Title
82262
    1SAPS     N    1   4.288   1.361  11.060  0.5537  0.5744  0.4600
    1SAPS   HN1    2   4.250   1.411  11.143  1.1002 -0.7459  1.5414
    1SAPS   HN2    3   4.309   1.421  10.978  2.7092 -2.4951 -1.4627
    1SAPS   HN3    4   4.211   1.296  11.034  0.6018  0.8169 -0.3162
    1SAPS   C12    5   4.401   1.285  11.094  0.2243  0.2177  0.3721
    1SAPS  H12A    6   4.478   1.348  11.134  0.7296  0.5878 -1.1107
    1SAPS   C13    7   4.387   1.167  11.197 -0.3018 -0.5386  0.6404
    1SAPS  O13A    8   4.265   1.142  11.228  0.3643  0.6147  0.1395
    1SAPS  O13B    9   4.485   1.100  11.237 -0.0881  0.0593  0.8181
    1SAPS   C11   10   4.461   1.221  10.970  0.7785 -0.3404  0.2257
    1SAPS  H11A   11   4.386   1.151  10.927  1.0591 -0.5417  0.0656
    1SAPS  H11B   12   4.543   1.154  11.001 -0.9596 -1.8183  1.9196
    1SAPS     P   13   4.635   1.325  10.802  0.2047  0.4916 -0.1168
    1SAPS   O13   14   4.625   1.407  10.677 -0.2739  0.2220 -0.2396
    1SAPS   O14   15   4.727   1.376  10.907  0.1297 -0.2422 -0.1132
    1SAPS   O12   16   4.492   1.323  10.870  0.1184 -0.1978 -0.1360
    1SAPS   O11   17   4.676   1.177  10.765  0.4869  0.0832 -0.3216
    1SAPS    C1   18   4.588   1.098  10.696 -0.4348  0.6114  0.6831
    1SAPS    HA   19   4.578   1.009  10.761 -0.3078 -0.2688 -0.4744
    1SAPS    HB   20   4.486   1.136  10.675 -0.1200 -0.3384 -3.5172
    1SAPS    C2   21   4.653   1.062  10.554  0.6577  0.3596 -0.6643
    1SAPS    HS   22   4.753   1.015  10.568 -0.4902 -2.1277 -0.1721
    1SAPS   O21   23   4.646   1.176  10.469  0.0246  0.0305 -0.5613
    1SAPS   C21   24   4.767   1.218  10.439  0.1785  0.2183 -0.1081
    1SAPS   O22   25   4.870   1.183  10.488 -0.4190  0.5826  0.6199
    1SAPS   C22   26   4.765   1.316  10.320  0.0249 -0.2508 -0.1932
    1SAPS   H2R   27   4.662   1.351  10.296 -0.3363 -1.0648  0.1283
    1SAPS   H2S   28   4.823   1.406  10.352 -1.3379  1.4641 -2.2334
    1SAPS    C3   29   4.569   0.940  10.492 -0.2459  0.2775 -0.0918
    1SAPS    HX   30   4.468   0.977  10.463 -0.8323  0.9065  2.5314
    1SAPS    HY   31   4.554   0.861  10.568 -0.1846 -1.5604 -1.9107
    1SAPS   O31   32   4.627   0.894  10.370  0.0842  0.0566  0.1240
    1SAPS   C31   33   4.553   0.808  10.307 -0.2645  0.1547 -0.7029
    1SAPS   O32   34   4.442   0.772  10.332 -0.2938  0.6242 -0.3157
    1SAPS   C32   35   4.639   0.753  10.191 -0.3931 -0.1980  0.2924
    1SAPS   H2X   36   4.707   0.682  10.241 -1.3301 -0.0773  1.8319
    1SAPS   H2Y   37   4.693   0.839  10.146 -2.1232  1.6351  1.5141
    1SAPS   C23   38   4.843   1.269  10.190  0.0813 -0.1007 -0.0758
    1SAPS   H3R   39   4.774   1.252  10.105  0.2443  0.3219 -0.2918
    1SAPS   H3S   40   4.903   1.181  10.223 -1.0640 -0.5264  0.9398
    1SAPS   C24   41   4.932   1.385  10.128 -0.3258 -0.2323  0.4162
    1SAPS   H4R   42   4.996   1.332  10.054  0.5688 -0.3934  1.2824
    1SAPS   H4S   43   4.997   1.415  10.213 -0.3337  1.3354 -0.1054
    1SAPS   C25   44   4.871   1.506  10.065  0.0866  0.2520  0.2397
    1SAPS   H5R   45   4.837   1.582  10.137 -2.9212  0.4674 -1.2540
    1SAPS   C26   46   4.835   1.516   9.934 -0.4454 -1.1416 -0.5666
    1SAPS   H6R   47   4.793   1.606   9.887  1.2064  0.6971  1.2657
    1SAPS   C27   48   4.849   1.428   9.822 -0.4800 -0.1117  0.4626
    1SAPS   H7R   49   4.747   1.429   9.779 -0.1563 -0.7362 -0.3367
    1SAPS   H7S   50   4.873   1.335   9.877  1.6437  1.1509  1.8224
    1SAPS   C28   51   4.962   1.463   9.726 -0.2319 -0.4016  0.7967
    1SAPS   H8R   52   5.059   1.499   9.765 -0.1305  1.4033 -0.9469
    1SAPS   C29   53   4.965   1.426   9.599  0.8514 -0.3244  0.2413
    1SAPS   H9R   54   5.051   1.465   9.542 -0.5258 -1.2203 -2.6244
    1SAPS  C210   55   4.865   1.355   9.520  0.3385  0.5398  0.4856
    1SAPS  H10R   56   4.800   1.429   9.469 -0.9015 -2.7671 -3.1409
    1SAPS  H10S   57   4.804   1.289   9.584 -0.5182 -0.6471 -1.4661
    1SAPS  C211   58   4.956   1.276   9.430  0.3077  0.1652 -0.2941
    1SAPS  H11R   59   5.011   1.190   9.473  2.5245  0.3451 -2.5295
    1SAPS  C212   60   4.963   1.291   9.298 -0.5456  0.6968  0.4493
    1SAPS  H12R   61   5.033   1.220   9.252 -1.8620  0.6958 -1.6719
    1SAPS  C213   62   4.882   1.385   9.212 -0.0318  0.2109 -0.4920
    1SAPS  H13R   63   4.870   1.480   9.269  0.7527 -0.1350  0.2786
    1SAPS  H13S   64   4.779   1.345   9.209  0.0513 -0.1946  1.2699
    1SAPS  C214   65   4.925   1.416   9.076 -0.2589 -0.0980 -0.0915
    1SAPS  H14R   66   5.016   1.478   9.067  0.6178 -1.4480 -0.9563
    1SAPS  C215   67   4.872   1.375   8.962 -0.1370 -0.2307 -0.1726
    1SAPS  H15R   68   4.921   1.410   8.870 -0.5229  2.4031  0.5331
    1SAPS  C216   69   4.755   1.285   8.934 -0.4745 -0.0352 -0.4764
    1SAPS  H16R   70   4.721   1.303   8.830  1.5249 -4.7679 -2.2670
    1SAPS  H16S   71   4.674   1.314   9.004 -1.0976 -2.6380 -0.0134
    1SAPS  C217   72   4.777   1.135   8.940 -0.0858 -0.1184 -1.1008
    1SAPS  H17R   73   4.685   1.074   8.959 -0.0809  0.4112  0.8255
    1SAPS  H17S   74   4.828   1.117   9.037 -1.6768  0.4337 -0.1191
    1SAPS  C218   75   4.863   1.075   8.832 -0.1304 -0.0976 -0.8957
    1SAPS  H18R   76   4.878   0.969   8.862 -0.9896 -0.1205 -0.5169
    1SAPS  H18S   77   4.954   1.138   8.823 -1.6413  2.1355 -1.5633
    1SAPS  C219   78   4.789   1.083   8.697 -0.2721 -0.4976 -0.1509
    1SAPS  H19R   79   4.782   1.186   8.654 -1.3028 -0.2702  0.5196
    1SAPS  H19S   80   4.679   1.067   8.701 -0.9145  2.8221 -1.1645
    1SAPS  C220   81   4.851   0.992   8.584 -0.0084 -0.1119  0.2969
    1SAPS  H20R   82   4.838   0.882   8.586  0.5113 -0.3827 -3.4730
    1SAPS  H20S   83   4.961   1.001   8.577 -0.0770 -0.3262 -1.6183
    1SAPS  H20T   84   4.813   1.011   8.481  1.6009  0.6922 -0.1727
    1SAPS   C33   85   4.546   0.685  10.086  0.0396 -0.5075 -0.8246
    1SAPS   H3X   86   4.452   0.742  10.068 -0.4848 -0.8918  0.5667
    1SAPS   H3Y   87   4.501   0.596  10.135  1.3794  0.0004  1.4514
    1SAPS   C34   88   4.605   0.641   9.954  0.5839  0.2971 -0.3413
    1SAPS   H4X   89   4.699   0.587   9.979 -0.3834 -2.3780 -2.0799
    1SAPS   H4Y   90   4.631   0.738   9.906 -0.0260 -0.1415 -1.6005
    1SAPS   C35   91   4.517   0.561   9.867  0.2101 -0.4747  0.4536
    1SAPS   H5X   92   4.425   0.622   9.858  0.4810  0.1544  1.7124
    1SAPS   H5Y   93   4.486   0.464   9.910  0.6689 -0.7318  0.2225
    1SAPS   C36   94   4.580   0.534   9.729  0.1296 -0.0077 -0.7488
    1SAPS   H6X   95   4.663   0.460   9.728 -0.4845 -0.7039 -1.4480
    1SAPS   H6Y   96   4.621   0.632   9.697 -1.6245  0.7961 -0.6075
    1SAPS   C37   97   4.480   0.495   9.620  0.0005 -0.1134 -0.6651
    1SAPS   H7X   98   4.391   0.562   9.622 -0.3722 -0.5825 -1.1728
    1SAPS   H7Y   99   4.462   0.386   9.628 -3.1124  0.4239  1.2155
    1SAPS   C38  100   4.544   0.522   9.483  0.2825  0.0871  0.5567
    1SAPS   H8X  101   4.646   0.480   9.471 -0.2174 -0.5422 -2.2091
    1SAPS   H8Y  102   4.551   0.632   9.467  1.6042 -0.1974 -1.2491
    1SAPS   C39  103   4.442   0.459   9.376 -0.2245  0.9847 -0.2766
    1SAPS   H9X  104   4.445   0.507   9.276  2.9842  0.2556 -0.6099
    1SAPS   H9Y  105   4.337   0.485   9.404 -1.2645 -1.0335 -2.0225
    1SAPS  C310  106   4.443   0.306   9.360 -0.5849  0.0846 -0.5738
    1SAPS  H10X  107   4.356   0.279   9.296  0.7160  0.2487 -2.4757
    1SAPS  H10Y  108   4.423   0.257   9.458  0.4291  1.1886  0.2023
    1SAPS  C311  109   4.574   0.256   9.294  0.4489  0.8950  0.2704
    1SAPS  H11X  110   4.581   0.145   9.303 -0.3067  0.8254  0.1416
    1SAPS  H11Y  111   4.663   0.304   9.338 -1.4902  2.1484  3.1215
    1SAPS  C312  112   4.585   0.279   9.136  0.2472 -0.0365  0.2622
    1SAPS  H12X  113   4.687   0.266   9.093 -0.4919 -0.7838 -1.3902
    1SAPS  H12Y  114   4.538   0.378   9.120  1.5543  0.4022 -1.0571
    1SAPS  C313  115   4.500   0.170   9.063 -0.2909  0.0742 -0.9878
    1SAPS  H13X  116   4.422   0.124   9.127  0.8861  0.9032  1.1522
    1SAPS  H13Y  117   4.565   0.087   9.029  2.5771  1.6746  0.2510
    1SAPS  C314  118   4.423   0.214   8.937  0.7390 -0.2814 -0.1695
    1SAPS  H14X  119   4.356   0.296   8.970 -0.8513 -2.0255  1.1487
    1SAPS  H14Y  120   4.362   0.124   8.917  0.5417 -0.2423  0.2483
    1SAPS  C315  121   4.506   0.269   8.824  0.7156  0.1580 -0.2956
    1SAPS  H15X  122   4.596   0.205   8.813  1.2359 -0.1375  4.0944
    1SAPS  H15Y  123   4.540   0.372   8.849  3.3118 -0.8742  0.8409
    1SAPS  C316  124   4.428   0.282   8.688 -0.1598 -0.0343 -0.3435
    1SAPS  H16X  125   4.332   0.336   8.705  0.0230  1.0610 -2.4666
    1SAPS  H16Y  126   4.414   0.176   8.660  0.8601 -0.1604 -0.4193
    1SAPS  C317  127   4.491   0.354   8.574  0.6016 -0.1939  0.2784
    1SAPS  H17X  128   4.421   0.365   8.488 -0.5544 -3.4164  0.6650
    1SAPS  H17Y  129   4.579   0.302   8.530  0.4405  0.9736 -1.5187
    1SAPS  C318  130   4.534   0.499   8.607  0.2256  0.7706  0.0389
    1SAPS  H18X  131   4.451   0.563   8.645 -0.0149 -0.0890  1.0185
    1SAPS  H18Y  132   4.575   0.551   8.518  0.0289  1.4363  0.3260
    1SAPS  H18Z  133   4.610   0.494   8.689  1.0444 -0.7114 -0.7869
    2SAPS     N  134   2.624   5.784  10.643 -0.3858  0.0404 -0.1281
    2SAPS   HN1  135   2.564   5.701  10.664 -0.9304  0.7744  1.3565
    2SAPS   HN2  136   2.575   5.866  10.602 -2.5696 -1.3454 -0.4908
    2SAPS   HN3  137   2.695   5.746  10.577 -0.9195 -0.6499 -0.3149
    2SAPS   C12  138   2.695   5.816  10.776 -0.0013  0.1167  0.1769
    2SAPS  H12A  139   2.638   5.874  10.847  0.3645 -0.3912  0.8985
    2SAPS   C13  140   2.736   5.695  10.862 -0.1157  0.3979 -0.0532
    2SAPS  O13A  141   2.740   5.581  10.809  0.6777  0.1951 -0.7945
    2SAPS  O13B  142   2.801   5.724  10.970 -0.2383  0.0032 -0.5807
    2SAPS   C11  143   2.819   5.902  10.728  0.0457  0.3652  0.4615
    2SAPS  H11A  144   2.890   5.844  10.664  0.5628  0.1176  1.2469
    2SAPS  H11B  145   2.876   5.935  10.817  2.1859 -3.0613  0.5414
    2SAPS     P  146   2.822   6.054  10.518  0.3217  0.1691 -0.3112
    2SAPS   O13  147   2.748   6.169  10.463 -0.1816  0.1268  0.3591
    2SAPS   O14  148   2.972   6.058  10.544  0.7567  0.3399 -0.5072
    2SAPS   O12  149   2.766   6.021  10.659  0.1523 -0.0703  0.0614
    2SAPS   O11  150   2.771   5.920  10.453 -0.1461  0.2299 -0.0953
    2SAPS    C1  151   2.732   5.925  10.310 -0.3880  0.1918 -0.1467
    2SAPS    HA  152   2.629   5.965  10.294 -0.0787  0.6513 -1.0198
    2SAPS    HB  153   2.806   5.987  10.255  0.2657 -0.3982  0.0576
    2SAPS    C2  154   2.734   5.786  10.249 -0.0526 -0.5476 -0.5938
    2SAPS    HS  155   2.653   5.725  10.293 -1.1708  2.0733  1.2526
    2SAPS   O21  156   2.861   5.733  10.264  0.5794 -0.3217 -0.4094
    2SAPS   C21  157   2.890   5.677  10.383  0.4308  0.5299 -0.0468
    2SAPS   O22  158   2.810   5.656  10.475  0.4308  0.3416  0.2597
    2SAPS   C22  159   3.030   5.616  10.376  0.0424 -0.8289 -0.4328
    2SAPS   H2R  160   3.105   5.690  10.342 -1.3708  0.5728 -0.6624
    2SAPS   H2S  161   3.052   5.597  10.483  0.9432 -0.3911 -0.5344
    2SAPS    C3  162   2.714   5.788  10.099 -0.2461 -0.7928  0.1770
    2SAPS    HX  163   2.739   5.692  10.049  0.3165  1.7236 -5.1757
    2SAPS    HY  164   2.787   5.859  10.054  0.6206 -0.8840  1.3955
    2SAPS   O31  165   2.579   5.829  10.052  0.5471 -0.2225 -0.4514
    2SAPS   C31  166   2.481   5.736  10.070 -0.3539 -0.5487 -0.3693
    2SAPS   O32  167   2.485   5.625  10.116  0.8684  0.4162  0.7904
    2SAPS   C32  168   2.347   5.804  10.031 -0.1204  0.5159 -0.0761
    2SAPS   H2X  169   2.379   5.879   9.955  2.0295 -0.2292  0.0452
    2SAPS   H2Y  170   2.305   5.846  10.124 -2.8288 -0.0785 -0.9413
    2SAPS   C23  171   3.047   5.487  10.292  0.5010 -0.5488 -0.0998
    2SAPS   H3R  172   3.005   5.403  10.351 -0.1838 -0.4740 -0.4724
    2SAPS   H3S  173   3.154   5.465  10.273  1.2474 -0.9908  3.7676
    2SAPS   C24  174   2.997   5.494  10.146  0.1846  0.6217  0.0652
    2SAPS   H4R  175   3.036   5.590  10.108 -2.5330  1.4233 -0.9386
    2SAPS   H4S  176   2.889   5.510  10.167  0.1073  0.0032  0.1672
    2SAPS   C25  177   3.022   5.385  10.047 -0.7771  0.8595  0.0157
    2SAPS   H5R  178   3.082   5.298  10.078 -0.5265  1.2353  0.6212
    2SAPS   C26  179   2.963   5.382   9.926  0.1421 -0.0958  0.5238
    2SAPS   H6R  180   2.991   5.308   9.849 -1.6419 -2.6137  2.1478
    2SAPS   C27  181   2.877   5.489   9.864  0.2620 -0.6281  0.6284
    2SAPS   H7R  182   2.912   5.513   9.762  3.4203 -1.1919  1.4896
    2SAPS   H7S  183   2.883   5.582   9.926  1.3152  1.8918 -2.9626
    2SAPS   C28  184   2.739   5.440   9.884 -0.5512  0.0517  0.2756
    2SAPS   H8R  185   2.708   5.416   9.986  2.4325  0.4052  1.3540
    2SAPS   C29  186   2.647   5.446   9.787  0.0241 -0.0300 -0.0876
    2SAPS   H9R  187   2.549   5.399   9.804 -0.7090  1.2544 -0.5443
    2SAPS  C210  188   2.659   5.510   9.645  0.0718  0.1107 -0.0902
    2SAPS  H10R  189   2.592   5.461   9.571  1.8544 -0.7134 -1.2067
    2SAPS  H10S  190   2.760   5.511   9.601 -0.7252 -1.1126 -2.0420
    2SAPS  C211  191   2.608   5.654   9.640 -0.0466  0.8591 -0.1991
    2SAPS  H11R  192   2.631   5.703   9.736 -1.0133  0.6046  0.1766
    2SAPS  C212  193   2.536   5.722   9.544 -0.1421  1.1409 -0.4879
    2SAPS  H12R  194   2.506   5.826   9.561  1.1530  1.5707 -0.6989
    2SAPS  C213  195   2.491   5.669   9.416  0.2157  0.4708  0.3752
    2SAPS  H13R  196   2.382   5.652   9.424  0.1064 -0.0698 -1.5538
    2SAPS  H13S  197   2.541   5.571   9.399  0.4390  0.1877  2.4083
    2SAPS  C214  198   2.491   5.777   9.313  0.2295 -0.6433 -0.1321
    2SAPS  H14R  199   2.410   5.850   9.328  1.6422  0.8563  0.5344
    2SAPS  C215  200   2.582   5.812   9.216  0.2785 -0.0691  0.0017
    2SAPS  H15R  201   2.561   5.906   9.162  3.4114  0.5627 -0.3537
    2SAPS  C216  202   2.704   5.733   9.175  0.1517  0.1556  0.4564
    2SAPS  H16R  203   2.695   5.628   9.208 -0.0949  0.4488  1.3577
    2SAPS  H16S  204   2.803   5.777   9.200  1.0045 -1.3542 -0.1656
    2SAPS  C217  205   2.701   5.701   9.016 -0.2907 -0.6908 -0.0481
    2SAPS  H17R  206   2.607   5.647   8.995  0.4138 -1.2560 -2.0151
    2SAPS  H17S  207   2.790   5.639   8.990 -0.1413 -0.2434 -0.6298
    2SAPS  C218  208   2.688   5.823   8.921 -0.2368 -0.0180  0.3983
    2SAPS  H18R  209   2.768   5.893   8.955  1.3587 -0.1401 -2.7051
    2SAPS  H18S  210   2.590   5.873   8.935 -0.9017 -1.5283  1.5338
    2SAPS  C219  211   2.694   5.772   8.769  0.5190  0.1959 -0.6356
    2SAPS  H19R  212   2.623   5.689   8.750  1.5313 -0.9213  0.2921
    2SAPS  H19S  213   2.786   5.715   8.743  0.4254 -1.7499  2.8335
    2SAPS  C220  214   2.662   5.886   8.671 -0.2588  0.9468 -0.1034
    2SAPS  H20R  215   2.575   5.949   8.700 -2.4071 -0.1887 -3.5251
    2SAPS  H20S  216   2.647   5.850   8.567  0.0587  1.4429 -0.3256
    2SAPS  H20T  217   2.751   5.951   8.659  1.0308 -0.6205  0.5780
    2SAPS   C33  218   2.231   5.712   9.968  0.2217  0.2392 -0.6805
    2SAPS   H3X  219   2.140   5.774   9.952 -0.7511 -0.8690  0.3707
    2SAPS   H3Y  220   2.218   5.621  10.031  1.5556 -0.6929 -1.6920
    2SAPS   C34  221   2.272   5.662   9.826 -0.0075  0.1397 -0.4665
    2SAPS   H4X  222   2.368   5.606   9.823  0.0541  0.2645 -2.3566
    2SAPS   H4Y  223   2.277   5.746   9.753 -0.9094  1.0142  0.4466
    2SAPS   C35  224   2.169   5.554   9.775 -0.6822  0.2845  0.2861
    2SAPS   H5X  225   2.079   5.616   9.755 -0.1325  0.6471 -1.2023
    2SAPS   H5Y  226   2.146   5.473   9.848 -4.1840  0.8556 -0.0544
    2SAPS   C36  227   2.209   5.489   9.640  0.2772 -0.2457 -0.0712
    2SAPS   H6X  228   2.311   5.454   9.668  1.3531  2.6366 -0.0118
    2SAPS   H6Y  229   2.201   5.565   9.560  1.2604  0.6292  0.6204
    2SAPS   C37  230   2.117   5.368   9.609 -0.1018 -0.0168  0.4038
    2SAPS   H7X  231   2.021   5.411   9.573 -0.3964 -1.3532 -0.4904
    2SAPS   H7Y  232   2.112   5.303   9.698  0.0801 -2.1924 -1.1014
    2SAPS   C38  233   2.169   5.282   9.486  0.2973 -0.3591 -0.2968
    2SAPS   H8X  234   2.254   5.213   9.508  0.0311 -0.3022  1.0010
    2SAPS   H8Y  235   2.189   5.360   9.409  1.1686 -1.5585 -1.3355
    2SAPS   C39  236   2.064   5.187   9.423  0.5231 -0.4792  0.0156
    2SAPS   H9X  237   1.979   5.254   9.400  2.7696  2.5212 -0.1721
    2SAPS   H9Y  238   2.028   5.103   9.486  0.2256 -2.1226 -2.1897
    2SAPS  C310  239   2.106   5.141   9.282  0.4045  0.3187 -0.7517
    2SAPS  H10X  240   2.204   5.090   9.289  0.2830  0.2502  0.9617
    2SAPS  H10Y  241   2.122   5.229   9.216  0.0909  0.3176 -0.8320
    2SAPS  C311  242   2.008   5.054   9.206 -0.8079 -0.1617  0.8923
    2SAPS  H11X  243   1.944   5.122   9.145  2.7342  1.3631 -1.4608
    2SAPS  H11Y  244   1.942   5.001   9.278 -1.3073 -0.1657  0.4308
    2SAPS  C312  245   2.077   4.954   9.124  0.4466  0.0369  0.5493
    2SAPS  H12X  246   1.998   4.918   9.055  0.3165  0.7141  0.3392
    2SAPS  H12Y  247   2.098   4.869   9.192  1.0754  1.3356  2.0302
    2SAPS  C313  248   2.201   4.982   9.047  0.1878 -0.2902  0.4114
    2SAPS  H13X  249   2.286   5.007   9.114 -1.7313  2.9863  1.8633
    2SAPS  H13Y  250   2.188   5.075   8.988 -1.9267  0.9169  2.6412
    2SAPS  C314  251   2.225   4.863   8.962  0.3209  0.3877 -0.4755
    2SAPS  H14X  252   2.136   4.859   8.896 -1.6234  1.4808  1.9333
    2SAPS  H14Y  253   2.234   4.767   9.017  1.7824 -0.7767 -2.5973
    2SAPS  C315  254   2.356   4.884   8.881 -0.1863 -0.7297  0.0925
    2SAPS  H15X  255   2.409   4.790   8.851  2.8328  1.1494 -0.9741
    2SAPS  H15Y  256   2.432   4.928   8.950  1.2057 -1.0738 -1.1530
    2SAPS  C316  257   2.331   4.949   8.750 -0.1837  0.5700 -0.0420
    2SAPS  H16X  258   2.269   5.039   8.768 -1.1069 -0.2732  1.1518
    2SAPS  H16Y  259   2.259   4.882   8.698  1.4578  0.2590 -2.0539
    2SAPS  C317  260   2.453   4.974   8.663  1.0978 -0.4492  0.5065
    2SAPS  H17X  261   2.404   5.019   8.574 -0.9712  0.5498  2.0514
    2SAPS  H17Y  262   2.508   4.880   8.642  0.0089 -1.5104  2.1770
    2SAPS  C318  263   2.548   5.073   8.721 -0.1646  0.1632  0.2492
    2SAPS  H18X  264   2.602   5.048   8.815 -1.0520  1.9896  1.2987
    2SAPS  H18Y  265   2.492   5.166   8.746  0.4633  0.3773  0.9003
    2SAPS  H18Z  266   2.623   5.092   8.642  1.4021  3.5974  2.3189
    3SAPS     N  267   3.201   4.376  10.642  0.3560  0.1742  0.2149
    3SAPS   HN1  268   3.288   4.333  10.605  0.1527  1.1455 -1.4802
    3SAPS   HN2  269   3.119   4.312  10.643 -2.7000  3.7900  1.0439
    3SAPS   HN3  270   3.185   4.462  10.587  0.5967 -0.0301 -0.1767
    3SAPS   C12  271   3.233   4.408  10.789 -0.3431 -0.0538  0.8182
    3SAPS  H12A  272   3.323   4.468  10.781  1.9569 -3.2662  0.4242
    3SAPS   C13  273   3.119   4.479  10.860  0.5988 -0.3492  0.3272
    3SAPS  O13A  274   3.006   4.493  10.799 -0.1980 -0.5562 -0.5069
    3SAPS  O13B  275   3.133   4.510  10.982 -0.6598 -0.4013 -0.2073
    3SAPS   C11  276   3.283   4.278  10.865 -0.3148 -0.1563  0.3239
    3SAPS  H11A  277   3.211   4.194  10.847  0.1083  0.1393 -3.5971
    3SAPS  H11B  278   3.281   4.294  10.975  0.3545 -1.8223  0.6084
    3SAPS     P  279   3.451   4.108  10.741 -0.0599 -0.3976 -0.1054
    3SAPS   O13  280   3.560   4.148  10.648  0.3367 -0.5432 -0.1506
    3SAPS   O14  281   3.473   3.994  10.835 -0.3190  0.3804  0.0320
    3SAPS   O12  282   3.406   4.232  10.826 -0.4087  0.4470 -0.3360
    3SAPS   O11  283   3.323   4.075  10.667 -0.0393 -0.3136  0.5970
    3SAPS    C1  284   3.225   3.970  10.692  0.1639 -0.2129  0.2455
    3SAPS    HA  285   3.248   3.912  10.784 -0.8845 -2.9426 -1.1220
    3SAPS    HB  286   3.124   4.010  10.717  0.4957  1.2623 -0.6636
    3SAPS    C2  287   3.219   3.869  10.572 -0.1779 -0.3793  0.3564
    3SAPS    HS  288   3.153   3.788  10.611  0.4896 -0.3288  1.6284
    3SAPS   O21  289   3.351   3.816  10.532  0.0690  0.1511  0.3691
    3SAPS   C21  290   3.348   3.703  10.469 -0.4027 -0.1750  0.1126
    3SAPS   O22  291   3.251   3.632  10.453 -0.4474 -0.4295  0.1733
    3SAPS   C22  292   3.498   3.662  10.426 -0.4012  0.2558  0.4533
    3SAPS   H2R  293   3.571   3.710  10.495  1.0634  0.2150 -1.0115
    3SAPS   H2S  294   3.511   3.552  10.436 -1.8606 -0.1609 -1.7418
    3SAPS    C3  295   3.145   3.940  10.448 -0.3039 -0.3307 -0.4897
    3SAPS    HX  296   3.207   4.032  10.435  1.3989 -1.5727 -1.6712
    3SAPS    HY  297   3.048   3.977  10.488  2.0849  2.7785  3.2301
    3SAPS   O31  298   3.128   3.860  10.331 -0.3370 -0.1979  0.2517
    3SAPS   C31  299   3.026   3.777  10.325  0.2739 -0.1980  0.2232
    3SAPS   O32  300   2.934   3.769  10.403 -0.3902  0.2239  0.0078
    3SAPS   C32  301   3.045   3.685  10.204 -0.2320  0.2056 -0.3849
    3SAPS   H2X  302   2.949   3.631  10.189  0.1588 -0.7115  0.3474
    3SAPS   H2Y  303   3.118   3.608  10.238 -1.8546 -0.4587  1.7788
    3SAPS   C23  304   3.522   3.710  10.278  0.9847 -0.4780  0.5049
    3SAPS   H3R  305   3.631   3.710  10.255  0.9788  2.0680  0.1481
    3SAPS   H3S  306   3.494   3.817  10.285  2.6503 -0.0967  2.1577
    3SAPS   C24  307   3.454   3.629  10.170  0.0447 -0.2548 -0.2312
    3SAPS   H4R  308   3.478   3.682  10.075 -2.1700 -0.2124 -0.8232
    3SAPS   H4S  309   3.348   3.651  10.195 -0.7517  0.4457 -3.6540
    3SAPS   C25  310   3.476   3.482  10.149  0.8194  0.6573 -0.3240
    3SAPS   H5R  311   3.448   3.415  10.232 -0.1065 -1.5490 -2.3101
    3SAPS   C26  312   3.551   3.419  10.053  0.0385 -0.5188 -0.5697
    3SAPS   H6R  313   3.552   3.309  10.055 -1.8030 -0.5575  0.7479
    3SAPS   C27  314   3.623   3.492   9.942 -0.0314  0.4886 -0.3756
    3SAPS   H7R  315   3.732   3.493   9.964  0.1085 -0.5370 -0.9597
    3SAPS   H7S  316   3.598   3.599   9.927  1.7979  0.8672 -0.9819
    3SAPS   C28  317   3.612   3.427   9.808  0.6217  0.2607 -0.0031
    3SAPS   H8R  318   3.606   3.317   9.814  1.7378  0.1846 -0.0324
    3SAPS   C29  319   3.626   3.484   9.686 -0.4286  0.0844  0.0705
    3SAPS   H9R  320   3.630   3.418   9.598 -3.7248  0.0937 -0.2070
    3SAPS  C210  321   3.654   3.631   9.656 -0.0591  0.1283 -0.3429
    3SAPS  H10R  322   3.635   3.693   9.746  1.9122  0.0231  0.1821
    3SAPS  H10S  323   3.584   3.668   9.578 -0.5431 -0.1322 -0.0413
    3SAPS  C211  324   3.794   3.661   9.614 -0.5194 -0.3392  0.1748
    3SAPS  H11R  325   3.879   3.675   9.682  1.9599 -0.2908 -2.7147
    3SAPS  C212  326   3.835   3.668   9.486  0.4905 -0.4107  0.3444
    3SAPS  H12R  327   3.942   3.684   9.462 -0.1319  2.6002 -0.9168
    3SAPS  C213  328   3.736   3.637   9.372 -0.6362 -0.5349 -0.5927
    3SAPS  H13R  329   3.653   3.575   9.412 -0.9334  1.4067  2.0431
    3SAPS  H13S  330   3.791   3.575   9.298  0.8363  1.1486 -0.9638
    3SAPS  C214  331   3.684   3.773   9.317  0.2449 -0.6703  0.6676
    3SAPS  H14R  332   3.665   3.847   9.396  0.1968  1.9388 -1.6017
    3SAPS  C215  333   3.672   3.797   9.185  0.2470 -0.1814 -0.6704
    3SAPS  H15R  334   3.625   3.894   9.161  0.7895  0.2834  0.1114
    3SAPS  C216  335   3.715   3.701   9.071  0.2809  0.2239 -0.3796
    3SAPS  H16R  336   3.623   3.689   9.010 -0.2368  0.3114  0.3677
    3SAPS  H16S  337   3.753   3.600   9.097 -1.7448 -0.1635  1.4279
    3SAPS  C217  338   3.826   3.761   8.985  0.0597  0.4125 -0.3551
    3SAPS  H17R  339   3.910   3.798   9.047  0.4448 -1.2654  0.1697
    3SAPS  H17S  340   3.798   3.854   8.931  5.7706  1.1398 -2.7920
    3SAPS  C218  341   3.880   3.670   8.876  0.0026  0.1586  0.0967
    3SAPS  H18R  342   3.795   3.619   8.826  1.4071 -1.8126 -0.3768
    3SAPS  H18S  343   3.932   3.588   8.931  2.5243  1.7954  0.3259
    3SAPS  C219  344   3.963   3.742   8.761  0.8657  0.6173 -0.0460
    3SAPS  H19R  345   4.037   3.794   8.825  0.4482 -1.2386  2.0769
    3SAPS  H19S  346   3.903   3.819   8.708 -0.8444 -0.4447  0.2876
    3SAPS  C220  347   4.009   3.634   8.659 -0.2718  0.0937 -0.1163
    3SAPS  H20R  348   4.068   3.692   8.585  0.6384  2.2870  2.1935
    3SAPS  H20S  349   3.931   3.576   8.606 -0.1622 -0.9959  0.8687
    3SAPS  H20T  350   4.076   3.559   8.708 -0.2315 -0.2237 -0.6454
    3SAPS   C33  351   3.103   3.749  10.078 -0.1775  0.4046 -0.6967
    3SAPS   H3X  352   3.191   3.815  10.086  0.6798 -0.8866  1.3985
    3SAPS   H3Y  353   3.029   3.818  10.032 -0.9717 -0.2788 -0.4751
    3SAPS   C34  354   3.134   3.656   9.968 -0.6156 -0.1576  0.3895
    3SAPS   H4X  355   3.044   3.599   9.936  1.8993 -2.9479 -2.3839
    3SAPS   H4Y  356   3.208   3.575   9.986  1.1552  0.8866 -1.6407
    3SAPS   C35  357   3.197   3.720   9.841 -0.4329  0.0398 -0.7977
    3SAPS   H5X  358   3.296   3.764   9.865  1.6295 -3.8455 -1.3221
    3SAPS   H5Y  359   3.138   3.793   9.781  2.6471  2.7999 -0.7823
    3SAPS   C36  360   3.232   3.614   9.740  0.1423  0.3964 -0.2068
    3SAPS   H6X  361   3.135   3.563   9.721 -0.0177  0.3673  0.6805
    3SAPS   H6Y  362   3.294   3.528   9.774 -0.1777  0.5069  0.6670
    3SAPS   C37  363   3.280   3.683   9.614  0.6171  0.2382  0.7582
    3SAPS   H7X  364   3.368   3.746   9.636 -0.0410  1.6724 -0.5185
    3SAPS   H7Y  365   3.197   3.745   9.575  1.1954  0.1524 -0.6496
    3SAPS   C38  366   3.298   3.587   9.496  0.4887 -0.4367 -0.6102
    3SAPS   H8X  367   3.209   3.520   9.489  1.0067 -1.2363  0.1273
    3SAPS   H8Y  368   3.387   3.520   9.505  1.6889  1.1648 -0.1924
    3SAPS   C39  369   3.306   3.684   9.375 -0.8962 -0.2121  0.3426
    3SAPS   H9X  370   3.381   3.764   9.391  0.8576 -2.1188  2.3235
    3SAPS   H9Y  371   3.205   3.727   9.360 -1.2393 -1.3113 -0.7156
    3SAPS  C310  372   3.343   3.602   9.245 -0.0042  0.7045  0.4772
    3SAPS  H10X  373   3.288   3.506   9.247 -0.7617  1.1445  0.8664
    3SAPS  H10Y  374   3.453   3.583   9.236 -0.0712  1.1795 -3.1691
    3SAPS  C311  375   3.324   3.662   9.112 -0.2508 -0.5453 -0.1074
    3SAPS  H11X  376   3.411   3.640   9.046  1.7860  3.8319  0.7951
    3SAPS  H11Y  377   3.317   3.773   9.118  1.3582 -0.4205 -0.2230
    3SAPS  C312  378   3.202   3.613   9.036  0.1731 -0.1152 -0.5715
    3SAPS  H12X  379   3.104   3.663   9.051  0.9524  1.2665  0.1563
    3SAPS  H12Y  380   3.194   3.506   9.066  1.1172  0.0467  0.3482
    3SAPS  C313  381   3.236   3.616   8.887  0.1016 -1.0462  0.2490
    3SAPS  H13X  382   3.327   3.555   8.869  0.5905 -1.5053  3.7273
    3SAPS  H13Y  383   3.255   3.718   8.846  0.4023  0.0185  2.8823
    3SAPS  C314  384   3.118   3.574   8.796  0.5893  0.7822 -0.4023
    3SAPS  H14X  385   3.088   3.475   8.838 -0.2213  0.9719 -0.5269
    3SAPS  H14Y  386   3.153   3.562   8.691  1.7603 -1.7068  0.1885
    3SAPS  C315  387   2.992   3.658   8.805  0.0429 -0.5841  0.1858
    3SAPS  H15X  388   3.025   3.764   8.799  0.8344 -0.8935 -2.0528
    3SAPS  H15Y  389   2.937   3.655   8.901 -2.3944  2.0665 -1.0022
    3SAPS  C316  390   2.888   3.637   8.692  0.1248  0.4800  0.2445
    3SAPS  H16X  391   2.847   3.534   8.697  1.6283 -0.1012  2.4797
    3SAPS  H16Y  392   2.937   3.665   8.597 -1.5216  3.1117  0.0542
    3SAPS  C317  393   2.773   3.736   8.705  1.2744  0.2230 -0.5575
    3SAPS  H17X  394   2.813   3.840   8.712  1.4067  0.1661 -0.4663
    3SAPS  H17Y  395   2.712   3.716   8.796 -0.5119  1.1650 -1.4941
    3SAPS  C318  396   2.681   3.719   8.583 -0.2057  0.1333  0.4133
    3SAPS  H18X  397   2.598   3.793   8.570 -0.4896 -0.4116 -1.2109
    3SAPS  H18Y  398   2.630   3.620   8.585  0.2351 -0.1566 -1.0308
    3SAPS  H18Z  399   2.739   3.731   8.489  0.9537 -1.2759  0.9127
    4SAPS     N  400   4.910   1.673  10.624 -0.1208  0.5121 -0.4142
    4SAPS   HN1  401   4.849   1.616  10.684 -2.3402  1.2115 -1.8865
    4SAPS   HN2  402   4.867   1.694  10.531  0.4045 -1.0949 -1.0498
    4SAPS   HN3  403   5.002   1.624  10.614  0.4441  1.7828 -1.9602
    4SAPS   C12  404   4.929   1.800  10.701 -0.2694  0.0797  0.4341
    4SAPS  H12A  405   4.827   1.833  10.710 -0.2379  0.6220 -0.9828
    4SAPS   C13  406   4.976   1.783  10.847 -0.0040  0.3587 -0.3081
    4SAPS  O13A  407   4.998   1.673  10.908  0.2957  0.1329  0.2604
    4SAPS  O13B  408   4.976   1.888  10.919  0.7759  0.0557  0.1004
    4SAPS   C11  409   5.011   1.908  10.617  0.1405 -0.1575 -0.1060
    4SAPS  H11A  410   5.104   1.850  10.600 -1.1968 -2.1388 -1.1190
    4SAPS  H11B  411   5.030   2.002  10.673  0.2909 -0.1273 -0.2056
    4SAPS     P  412   4.958   2.063  10.406 -0.4220 -0.3254 -0.1778
    4SAPS   O13  413   4.915   2.057  10.261  0.3076  0.0150 -0.0097
    4SAPS   O14  414   4.892   2.166  10.489  0.3702  0.2233  0.7094
    4SAPS   O12  415   4.949   1.924  10.488  0.9003  0.2968 -0.0680
    4SAPS   O11  416   5.116   2.086  10.426  0.8069 -0.2533  0.8414
    4SAPS    C1  417   5.204   2.035  10.331 -0.3688  0.3495 -0.4912
    4SAPS    HA  418   5.200   1.924  10.336  2.6311  0.2075  1.5926
    4SAPS    HB  419   5.185   2.060  10.224  2.5425 -0.1827 -1.2407
    4SAPS    C2  420   5.346   2.072  10.369 -0.4726 -0.5993  0.0233
    4SAPS    HS  421   5.378   2.021  10.462  3.2783 -0.3449 -0.9630
    4SAPS   O21  422   5.352   2.212  10.371  0.1043 -0.1643 -0.4190
    4SAPS   C21  423   5.471   2.260  10.414 -0.2823 -0.2352  0.6038
    4SAPS   O22  424   5.562   2.197  10.466  0.7535  0.1915 -0.0185
    4SAPS   C22  425   5.477   2.410  10.380 -0.2912  0.0023  0.2711
    4SAPS   H2R  426   5.467   2.424  10.270  2.1805 -0.8339 -0.1140
    4SAPS   H2S  427   5.408   2.469  10.445  1.8103  1.4763  1.2711
    4SAPS    C3  428   5.438   1.999  10.264  0.6221  0.0425  0.7693
    4SAPS    HX  429   5.419   1.891  10.282  1.7551 -0.2985 -0.0158
    4SAPS    HY  430   5.543   2.006  10.298  1.2586  0.2308 -1.1284
    4SAPS   O31  431   5.413   2.038  10.130 -0.1268  0.4690  0.2854
    4SAPS   C31  432   5.500   2.125  10.077  0.5920  0.3801  0.4032
    4SAPS   O32  433   5.608   2.154  10.123 -0.3067 -0.1764  0.1220
    4SAPS   C32  434   5.421   2.194   9.960  0.8990 -0.6940 -0.2910
    4SAPS   H2X  435   5.423   2.304   9.976 -1.0450 -0.7705  0.7361
    4SAPS   H2Y  436   5.317   2.163   9.982  1.6122 -0.8611  3.3828
    4SAPS   C23  437   5.622   2.456  10.408  0.2993  0.9067 -0.0556
    4SAPS   H3R  438   5.690   2.395  10.345 -0.5474  0.9313 -1.0297
    4SAPS   H3S  439   5.645   2.430  10.513 -0.6176  1.1736  0.2227
    4SAPS   C24  440   5.678   2.604  10.376 -0.6804  0.3468  0.5509
    4SAPS   H4R  441   5.689   2.605  10.265  0.5710 -3.1932  0.5258
    4SAPS   H4S  442   5.778   2.629  10.419 -0.4360  0.4971 -0.0847
    4SAPS   C25  443   5.572   2.704  10.433  0.3457  0.2575  0.4629
    4SAPS   H5R  444   5.514   2.665  10.518  0.4686 -1.5065 -0.2047
    4SAPS   C26  445   5.568   2.832  10.403 -0.7894 -0.7817 -0.2815
    4SAPS   H6R  446   5.490   2.882  10.463 -0.7486 -1.8123  0.6697
    4SAPS   C27  447   5.658   2.916  10.319  0.2306 -0.2183 -0.3345
    4SAPS   H7R  448   5.632   3.023  10.335 -1.4831 -0.8672  1.8574
    4SAPS   H7S  449   5.623   2.893  10.217 -2.1887 -0.4435  0.4704
    4SAPS   C28  450   5.802   2.893  10.345 -0.6709 -0.6510  0.7118
    4SAPS   H8R  451   5.833   2.873  10.449 -1.6031 -0.2948  1.0683
    4SAPS   C29  452   5.895   2.868  10.258 -0.5027 -0.4108  0.7406
    4SAPS   H9R  453   5.996   2.844  10.292  0.6981 -1.7714 -3.2016
    4SAPS  C210  454   5.868   2.866  10.105  0.3580 -0.3207 -0.0513
    4SAPS  H10R  455   5.793   2.942  10.077  1.0164 -0.3385 -2.0002
    4SAPS  H10S  456   5.812   2.772  10.087 -0.4934 -0.2334  1.8765
    4SAPS  C211  457   5.985   2.909  10.021 -0.1523 -1.4090 -0.4383
    4SAPS  H11R  458   6.077   2.951  10.065 -0.9520 -1.3842  1.3075
    4SAPS  C212  459   5.992   2.909   9.884 -0.1654 -0.3864 -0.2074
    4SAPS  H12R  460   6.074   2.953   9.825 -0.2882 -1.2165 -1.0309
    4SAPS  C213  461   5.876   2.854   9.803  0.2026  0.2560 -0.6978
    4SAPS  H13R  462   5.782   2.912   9.813  0.0920  0.0535 -0.5611
    4SAPS  H13S  463   5.846   2.754   9.842  1.8056  0.5652  1.4851
    4SAPS  C214  464   5.902   2.830   9.660  0.0054 -0.5904  0.5124
    4SAPS  H14R  465   5.908   2.724   9.632 -2.2948 -1.1727  1.9671
    4SAPS  C215  466   5.905   2.929   9.561  0.8907 -0.0233 -0.1823
    4SAPS  H15R  467   5.912   2.901   9.455 -1.2114 -0.2023 -0.3104
    4SAPS  C216  468   5.873   3.071   9.592  0.4015  0.0338  0.8036
    4SAPS  H16R  469   5.969   3.126   9.601  1.5811 -1.1360 -2.9096
    4SAPS  H16S  470   5.824   3.082   9.692 -1.6378  4.3782 -0.4461
    4SAPS  C217  471   5.784   3.149   9.490  0.0840  0.5710  0.2681
    4SAPS  H17R  472   5.780   3.253   9.529 -1.1529 -0.2020  2.3578
    4SAPS  H17S  473   5.684   3.108   9.464 -0.3268  2.2598 -0.9808
    4SAPS  C218  474   5.857   3.163   9.355 -0.0593 -0.3662  0.0376
    4SAPS  H18R  475   5.886   3.065   9.311 -0.1204  0.2863 -1.4847
    4SAPS  H18S  476   5.952   3.215   9.381  0.6447  0.6053 -3.8542
    4SAPS  C219  477   5.780   3.248   9.255  0.0095  0.6165  0.5733
    4SAPS  H19R  478   5.747   3.338   9.311 -0.9725  0.8338 -0.3078
    4SAPS  H19S  479   5.681   3.203   9.232  1.8125 -5.0191  2.1700
    4SAPS  C220  480   5.859   3.268   9.123 -0.1455  0.0689 -0.1642
    4SAPS  H20R  481   5.794   3.321   9.051  1.3135  0.3705 -1.2932
    4SAPS  H20S  482   5.879   3.168   9.079 -0.1455  0.2995 -0.6981
    4SAPS  H20T  483   5.946   3.334   9.141 -1.1532  1.4138 -0.0838
    4SAPS   C33  484   5.466   2.144   9.822  0.4013  0.8778  0.0603
    4SAPS   H3X  485   5.446   2.035   9.826 -0.3919  0.8691 -2.3615
    4SAPS   H3Y  486   5.572   2.173   9.804  0.5881  1.0374  1.2884
    4SAPS   C34  487   5.383   2.207   9.709  0.7345  0.5144  0.3632
    4SAPS   H4X  488   5.392   2.318   9.709 -0.2284  0.6275 -1.2178
    4SAPS   H4Y  489   5.273   2.187   9.712  0.6051  0.8477 -1.3093
    4SAPS   C35  490   5.432   2.146   9.569  0.4593  0.5194 -0.6572
    4SAPS   H5X  491   5.439   2.036   9.580 -1.8079  0.5568  2.7444
    4SAPS   H5Y  492   5.535   2.177   9.543  1.3657 -1.2802  0.5585
    4SAPS   C36  493   5.342   2.176   9.449 -0.1651 -0.0916 -1.1275
    4SAPS   H6X  494   5.238   2.148   9.474 -0.6141  2.5013  0.1733
    4SAPS   H6Y  495   5.367   2.122   9.356  1.8236  0.2968 -0.8802
    4SAPS   C37  496   5.353   2.318   9.400 -0.5876 -0.9939 -0.7679
    4SAPS   H7X  497   5.458   2.330   9.364 -1.2364  1.4339 -2.0576
    4SAPS   H7Y  498   5.354   2.391   9.484  0.3917 -0.1942 -1.4510
    4SAPS   C38  499   5.277   2.344   9.274  0.2362  0.2918 -0.3145
    4SAPS   H8X  500   5.169   2.325   9.291 -0.0673  1.3093 -1.0107
    4SAPS   H8Y  501   5.303   2.270   9.195 -1.3833  1.7585 -2.3273
    4SAPS   C39  502   5.304   2.458   9.193 -0.2108 -0.3939 -0.2157
    4SAPS   H9X  503   5.415   2.467   9.194 -0.2887  1.0077  1.9667
    4SAPS   H9Y  504   5.259   2.549   9.240  0.2167  0.1292 -0.7957
    4SAPS  C310  505   5.257   2.467   9.046  0.0692 -0.0035 -0.1166
    4SAPS  H10X  506   5.163   2.411   9.029 -0.1642  1.0300 -2.6888
    4SAPS  H10Y  507   5.333   2.405   8.995  1.6672  2.2984 -0.7021
    4SAPS  C311  508   5.269   2.602   8.966  0.4531  0.1079 -0.0061
    4SAPS  H11X  509   5.365   2.657   8.983 -0.4025  2.1413 -1.3677
    4SAPS  H11Y  510   5.184   2.671   8.982  0.7763  0.2907  1.0336
    4SAPS  C312  511   5.273   2.570   8.815  0.6701 -0.1521  0.4829
    4SAPS  H12X  512   5.202   2.642   8.768 -2.5213 -0.5816  4.1297
    4SAPS  H12Y  513   5.242   2.464   8.803  0.9467 -0.1387 -0.4600
    4SAPS  C313  514   5.415   2.586   8.757 -0.0346 -0.2234 -0.1792
    4SAPS  H13X  515   5.489   2.540   8.827  1.6542  1.3046 -0.8785
    4SAPS  H13Y  516   5.444   2.693   8.755  0.1528 -0.2332  1.2914
    4SAPS  C314  517   5.444   2.527   8.615 -0.2133 -0.7345 -0.4553
    4SAPS  H14X  518   5.402   2.600   8.541  1.8087  0.8550 -0.1240
    4SAPS  H14Y  519   5.414   2.420   8.613 -2.1696 -0.3391  2.4071
    4SAPS  C315  520   5.588   2.532   8.586 -0.4453  0.4326 -0.5755
    4SAPS  H15X  521   5.659   2.476   8.650 -2.7323 -1.2010  0.6938
    4SAPS  H15Y  522   5.624   2.637   8.587  2.8111 -0.5634 -1.0274
    4SAPS  C316  523   5.610   2.471   8.445  0.1931 -0.1292 -0.1872
    4SAPS  H16X  524   5.555   2.536   8.373 -1.1631 -1.0267  0.0083
    4SAPS  H16Y  525   5.567   2.369   8.436  1.7044 -0.6412 -2.4176
    4SAPS  C317  526   5.762   2.469   8.402  0.5636  0.2570  0.4742
    4SAPS  H17X  527   5.811   2.562   8.438  3.9144 -1.8615  1.7884
    4SAPS  H17Y  528   5.751   2.455   8.292  0.6425 -0.2705  0.5337
    4SAPS  C318  529   5.833   2.339   8.445 -1.0273 -0.0828 -0.2784
    4SAPS  H18X  530   5.817   2.333   8.555 -2.0471  0.8825 -0.3493
    4SAPS  H18Y  531   5.940   2.345   8.416 -0.9623 -2.6814 -0.8031
    4SAPS  H18Z  532   5.780   2.250   8.405 -1.1428 -0.9567  1.7097
    5SAPS     N  533   2.770   4.453  10.951  0.7937  0.1231  0.2227
    5SAPS   HN1  534   2.861   4.446  10.900  0.9996 -1.6593  0.7686
    5SAPS   HN2  535   2.725   4.537  10.909  2.0655  0.8457  0.2465
    5SAPS   HN3  536   2.788   4.475  11.051  3.0459 -0.6016  0.0520
    5SAPS   C12  537   2.683   4.336  10.930 -0.2664 -0.6131  0.1441
    5SAPS  H12A  538   2.731   4.247  10.969 -0.7389 -0.3986  1.2348
    5SAPS   C13  539   2.548   4.357  10.991 -0.3756  0.6473 -0.1586
    5SAPS  O13A  540   2.498   4.478  11.007 -0.2180  0.0350 -0.1173
    5SAPS  O13B  541   2.475   4.256  10.999 -0.0349 -0.5095  0.2465
    5SAPS   C11  542   2.661   4.316  10.775 -0.4651  0.5055 -0.1527
    5SAPS  H11A  543   2.600   4.403  10.744  0.2266  0.6866 -1.0297
    5SAPS  H11B  544   2.599   4.224  10.764 -1.9361  1.6270 -1.9000
    5SAPS     P  545   2.859   4.161  10.695  0.1155 -0.2004  0.1429
    5SAPS   O13  546   2.986   4.198  10.629 -1.0656  0.1879  0.2125
    5SAPS   O14  547   2.860   4.088  10.824  0.0433  0.5429  0.1407
    5SAPS   O12  548   2.791   4.308  10.703  0.5771  0.7124 -0.4985
    5SAPS   O11  549   2.765   4.081  10.592 -0.5280 -0.0161 -0.1333
    5SAPS    C1  550   2.679   4.146  10.502 -0.4896 -0.0077  0.9757
    5SAPS    HA  551   2.571   4.124  10.517 -0.4523  0.3928  1.9440
    5SAPS    HB  552   2.687   4.256  10.509  1.8209 -0.0793  0.0812
    5SAPS    C2  553   2.723   4.123  10.349  0.1258 -0.4012  0.7395
    5SAPS    HS  554   2.691   4.018  10.330 -1.4449  0.2592 -0.5059
    5SAPS   O21  555   2.860   4.143  10.320  0.4186 -0.0390  0.0165
    5SAPS   C21  556   2.912   4.268  10.339 -0.7777 -0.1486  0.6927
    5SAPS   O22  557   2.861   4.363  10.392  0.0664 -0.0523  0.4096
    5SAPS   C22  558   3.055   4.268  10.279 -0.0714 -0.6536 -0.0030
    5SAPS   H2R  559   3.108   4.303  10.370  0.9527  1.2733 -1.2545
    5SAPS   H2S  560   3.082   4.164  10.251 -0.7721 -0.9348  0.3584
    5SAPS    C3  561   2.632   4.214  10.261 -0.0214  0.0893  0.3889
    5SAPS    HX  562   2.629   4.317  10.302  2.6070 -0.1255  1.2994
    5SAPS    HY  563   2.533   4.163  10.269 -0.2789  0.4487 -0.4025
    5SAPS   O31  564   2.689   4.211  10.126  0.3087 -0.2790 -0.1384
    5SAPS   C31  565   2.601   4.179  10.031  0.1236  0.1892  0.6644
    5SAPS   O32  566   2.484   4.148  10.052 -0.0594 -0.4192 -0.0716
    5SAPS   C32  567   2.655   4.195   9.892  0.1237  0.0728  0.1108
    5SAPS   H2X  568   2.728   4.113   9.877  0.4719  0.5388 -0.8668
    5SAPS   H2Y  569   2.706   4.293   9.883  2.9431 -1.3572 -0.7891
    5SAPS   C23  570   3.084   4.365  10.165  0.1393 -0.7358 -0.1066
    5SAPS   H3R  571   3.190   4.364  10.131  0.8659  3.0677  1.5396
    5SAPS   H3S  572   3.066   4.470  10.197  1.8607 -0.7596  1.0684
    5SAPS   C24  573   2.996   4.335  10.038 -0.4303  1.3927 -0.0126
    5SAPS   H4R  574   3.018   4.415   9.965  0.0733  0.5714 -0.7884
    5SAPS   H4S  575   2.891   4.335  10.075 -1.0025 -0.1691 -1.4609
    5SAPS   C25  576   3.023   4.207   9.973 -0.3843 -0.1034  0.1171
    5SAPS   H5R  577   3.015   4.116  10.035 -2.1414  0.0716  0.2034
    5SAPS   C26  578   3.065   4.195   9.848 -0.7646  0.0952 -0.4183
    5SAPS   H6R  579   3.076   4.089   9.818  1.1153  0.5415 -1.4365
    5SAPS   C27  580   3.097   4.301   9.748 -0.0253  0.3546  0.1752
    5SAPS   H7R  581   3.174   4.262   9.678  0.3356  0.1913  0.6617
    5SAPS   H7S  582   3.144   4.392   9.790  1.5179 -0.3954  0.1666
    5SAPS   C28  583   2.973   4.336   9.667 -0.4127 -0.2991 -0.0771
    5SAPS   H8R  584   2.888   4.269   9.685  0.0859 -0.8381  0.2946
    5SAPS   C29  585   2.979   4.443   9.580  0.3493 -0.0433  0.0294
    5SAPS   H9R  586   2.887   4.457   9.521  0.6949 -2.2300 -1.1401
    5SAPS  C210  587   3.097   4.536   9.546  0.0764  0.4691  0.5204
    5SAPS  H10R  588   3.157   4.544   9.640  0.9475 -0.3401  0.0540
    5SAPS  H10S  589   3.057   4.638   9.533  0.6214  1.1865  3.6635
    5SAPS  C211  590   3.180   4.475   9.432 -0.6041 -0.0901  0.1520
    5SAPS  H11R  591   3.251   4.400   9.470 -2.2780 -3.1187 -2.2436
    5SAPS  C212  592   3.172   4.493   9.299 -0.0187 -0.5506  0.1895
    5SAPS  H12R  593   3.246   4.447   9.233 -0.1130  0.2243 -0.4688
    5SAPS  C213  594   3.075   4.584   9.236 -0.9797 -0.2789 -0.2214
    5SAPS  H13R  595   3.127   4.682   9.227  0.1845 -0.8277  0.3312
    5SAPS  H13S  596   2.993   4.608   9.306  1.3257 -0.3037  2.6622
    5SAPS  C214  597   3.040   4.542   9.095  0.3557  0.0258  0.4870
    5SAPS  H14R  598   2.956   4.471   9.087 -2.7217  3.3018  0.9141
    5SAPS  C215  599   3.109   4.563   8.975  0.3853 -0.3579  0.1530
    5SAPS  H15R  600   3.079   4.541   8.872 -0.1141  0.4113  0.1224
    5SAPS  C216  601   3.243   4.636   8.952  0.0797 -0.2950  0.2989
    5SAPS  H16R  602   3.294   4.668   9.045 -1.5137  3.2359  0.0995
    5SAPS  H16S  603   3.221   4.728   8.894  2.0018 -0.9259 -1.5501
    5SAPS  C217  604   3.338   4.555   8.862  1.0177  0.7568 -0.0687
    5SAPS  H17R  605   3.289   4.522   8.768  1.4529  2.7176 -1.0311
    5SAPS  H17S  606   3.366   4.462   8.916  0.3202  0.3770 -0.3570
    5SAPS  C218  607   3.458   4.627   8.805 -0.4679  1.1614  0.6531
    5SAPS  H18R  608   3.519   4.555   8.746 -0.2397  0.8058  1.3101
    5SAPS  H18S  609   3.431   4.720   8.751 -2.2502  0.1832 -0.2310
    5SAPS  C219  610   3.570   4.654   8.903  0.1461  0.2066 -0.4392
    5SAPS  H19R  611   3.617   4.557   8.930  1.5109  0.3252 -2.1808
    5SAPS  H19S  612   3.533   4.699   8.997  0.2869 -0.7777  0.1042
    5SAPS  C220  613   3.686   4.746   8.844  0.4456  0.6245  1.2557
    5SAPS  H20R  614   3.750   4.782   8.926  0.0801  0.9952  1.3783
    5SAPS  H20S  615   3.642   4.833   8.791  1.4938  0.6075  0.3239
    5SAPS  H20T  616   3.739   4.680   8.771 -0.4349 -0.7983  1.8475
    5SAPS   C33  617   2.550   4.196   9.777  0.2749  0.7840  0.6932
    5SAPS   H3X  618   2.447   4.215   9.814  0.1538 -0.1019  0.8446
    5SAPS   H3Y  619   2.547   4.092   9.736 -2.8212  0.6944  0.8619
    5SAPS   C34  620   2.581   4.302   9.668  1.0085 -0.0152 -0.2863
    5SAPS   H4X  621   2.684   4.283   9.633  0.9612  0.7050 -0.8200
    5SAPS   H4Y  622   2.580   4.406   9.707  2.9014 -0.4802  1.1387
    5SAPS   C35  623   2.479   4.290   9.555  0.0442  0.4633 -0.4186
    5SAPS   H5X  624   2.386   4.331   9.598  0.8168  2.6445 -0.6997
    5SAPS   H5Y  625   2.467   4.181   9.537 -0.8689  0.2545  1.2786
    5SAPS   C36  626   2.532   4.350   9.425 -0.3162 -1.4172 -1.0069
    5SAPS   H6X  627   2.598   4.436   9.449  0.6679 -2.8550  1.9126
    5SAPS   H6Y  628   2.440   4.384   9.372 -0.9730 -0.0684  0.8788
    5SAPS   C37  629   2.594   4.267   9.319 -0.3573 -0.7002  0.0080
    5SAPS   H7X  630   2.527   4.202   9.259  2.3396 -4.9530  1.1811
    5SAPS   H7Y  631   2.655   4.189   9.370 -0.7238 -0.7600  0.3632
    5SAPS   C38  632   2.680   4.350   9.223  0.0555  0.5306  0.3558
    5SAPS   H8X  633   2.752   4.294   9.159  0.2406 -0.9065  1.7791
    5SAPS   H8Y  634   2.750   4.416   9.279  0.8866  1.3897 -1.5711
    5SAPS   C39  635   2.592   4.442   9.132  0.2291  0.4144  0.2453
    5SAPS   H9X  636   2.646   4.532   9.095  1.1990 -0.3372 -0.1898
    5SAPS   H9Y  637   2.504   4.482   9.187  0.4577  2.4380 -0.7518
    5SAPS  C310  638   2.533   4.367   9.015  0.0911  0.3111  1.5386
    5SAPS  H10X  639   2.430   4.326   9.026  0.4094 -1.1573 -0.4105
    5SAPS  H10Y  640   2.596   4.276   9.007 -0.6557 -0.0749 -0.8813
    5SAPS  C311  641   2.542   4.450   8.886  0.3750  0.7043 -0.4554
    5SAPS  H11X  642   2.640   4.502   8.881  0.6118  0.7489  2.6717
    5SAPS  H11Y  643   2.468   4.532   8.895  1.0385  1.6513 -2.9711
    5SAPS  C312  644   2.525   4.367   8.759  0.0893  0.2599 -0.2707
    5SAPS  H12X  645   2.442   4.294   8.761  0.2913  0.0378 -0.0151
    5SAPS  H12Y  646   2.620   4.314   8.737  0.5382  0.8651  0.1867
    5SAPS  C313  647   2.495   4.452   8.636  0.4657 -0.1460 -1.2938
    5SAPS  H13X  648   2.577   4.524   8.619  2.4599 -1.9567  0.1276
    5SAPS  H13Y  649   2.399   4.506   8.653  0.7951 -0.4008  2.2289
    5SAPS  C314  650   2.475   4.365   8.505 -0.4302 -0.1260 -0.4482
    5SAPS  H14X  651   2.455   4.439   8.425  0.7013  0.5804 -0.1064
    5SAPS  H14Y  652   2.390   4.295   8.514 -0.3416 -0.4833 -2.1697
    5SAPS  C315  653   2.611   4.300   8.472  0.6291  0.5948 -0.1799
    5SAPS  H15X  654   2.635   4.213   8.537 -1.3543 -1.8371 -2.4686
    5SAPS  H15Y  655   2.704   4.358   8.457  2.0800 -1.0291  1.8805
    5SAPS  C316  656   2.598   4.224   8.335  0.2919  0.7273 -0.1135
    5SAPS  H16X  657   2.590   4.302   8.256 -0.8074 -0.2888 -1.0432
    5SAPS  H16Y  658   2.502   4.171   8.318  0.4062  1.3838 -3.8297
    5SAPS  C317  659   2.714   4.127   8.324  0.2380 -0.4207  0.4913
    5SAPS  H17X  660   2.732   4.040   8.392  0.9266  2.0129  3.6846
    5SAPS  H17Y  661   2.808   4.186   8.322 -0.4628  0.7394  0.8424
    5SAPS  C318  662   2.702   4.070   8.178 -0.2291  0.5729  0.0177
    5SAPS  H18X  663   2.715   4.144   8.097 -1.4948  1.3567  0.5052
    5SAPS  H18Y  664   2.603   4.025   8.157 -0.3072  1.0547 -0.6522
    5SAPS  H18Z  665   2.784   3.995   8.166 -0.6650  0.3783 -2.0602
    6SAPS     N  666   0.998   0.561  10.648 -0.1297 -0.8187 -0.2534
    6SAPS   HN1  667   1.071   0.490  10.623  0.4574 -0.5201  0.5639
    6SAPS   HN2  668   0.901   0.524  10.643 -1.8671  3.2934 -0.3115
    6SAPS   HN3  669   0.996   0.644  10.586 -2.3472  0.9111  1.9577
    6SAPS   C12  670   1.022   0.616  10.781  0.1760  0.2755  0.3426
    6SAPS  H12A  671   0.934   0.670  10.813  1.6143  3.2116 -0.3815
    6SAPS   C13  672   1.049   0.511  10.889 -0.6715 -0.6993 -0.2627
    6SAPS  O13A  673   1.007   0.395  10.871  0.5672 -0.2952  0.0180
    6SAPS  O13B  674   1.077   0.550  11.009 -0.2434 -0.6139 -0.0462
    6SAPS   C11  675   1.148   0.705  10.774 -0.1254 -0.0392 -0.2245
    6SAPS  H11A  676   1.236   0.643  10.748  0.1119  0.9117 -1.8247
    6SAPS  H11B  677   1.158   0.750  10.875 -2.7842  0.0478  0.0817
    6SAPS     P  678   1.219   0.938  10.684 -0.1403  0.1921 -0.2010
    6SAPS   O13  679   1.151   1.017  10.788  0.9946 -0.2380 -0.2104
    6SAPS   O14  680   1.361   0.909  10.721  0.1379  0.8707 -0.4275
    6SAPS   O12  681   1.130   0.805  10.669 -0.3949  0.3802 -0.2105
    6SAPS   O11  682   1.205   0.998  10.538  0.7268 -0.6926  0.2364
    6SAPS    C1  683   1.120   0.950  10.437 -0.2428  0.2232  0.4150
    6SAPS    HA  684   1.143   1.001  10.342 -0.1776 -1.1801 -0.3445
    6SAPS    HB  685   1.133   0.842  10.418 -1.9450  0.3249 -1.5945
    6SAPS    C2  686   0.970   0.982  10.483 -0.0373 -1.2017 -0.1809
    6SAPS    HS  687   0.964   0.943  10.587 -0.8237 -0.8953 -0.1045
    6SAPS   O21  688   0.863   0.934  10.394 -0.2011 -0.2743 -0.1630
    6SAPS   C21  689   0.853   0.797  10.393 -0.1722 -0.0065  0.3871
    6SAPS   O22  690   0.922   0.719  10.452 -0.0076 -0.1051 -0.0820
    6SAPS   C22  691   0.734   0.760  10.307 -0.7413 -0.2709 -0.0306
    6SAPS   H2R  692   0.650   0.741  10.377 -0.5200 -0.1479  0.2715
    6SAPS   H2S  693   0.698   0.849  10.252 -0.7569  1.1105  2.0877
    6SAPS    C3  694   0.957   1.138  10.491 -0.5855 -0.1344  0.0272
    6SAPS    HX  695   1.026   1.186  10.564  1.5364 -0.9365 -1.3644
    6SAPS    HY  696   0.853   1.153  10.525 -0.5725 -1.0763  0.5125
    6SAPS   O31  697   0.970   1.205  10.359  0.0645  0.4475  0.4192
    6SAPS   C31  698   1.059   1.295  10.340 -0.2971  0.3503 -0.2302
    6SAPS   O32  699   1.152   1.309  10.421 -0.2666 -0.1877  0.1388
    6SAPS   C32  700   1.034   1.366  10.207  0.3591 -0.6864  0.0603
    6SAPS   H2X  701   1.092   1.460  10.216  1.8146 -1.7062  2.0300
    6SAPS   H2Y  702   0.929   1.400  10.213 -0.1010 -2.1032  0.2427
    6SAPS   C23  703   0.769   0.644  10.210  0.3845  0.6027  0.1122
    6SAPS   H3R  704   0.780   0.553  10.273  0.6626 -0.3012 -1.2260
    6SAPS   H3S  705   0.858   0.666  10.147  0.6553  1.7609  0.8525
    6SAPS   C24  706   0.643   0.626  10.120 -0.3832  0.0679  0.1561
    6SAPS   H4R  707   0.615   0.712  10.056 -0.6090  0.3405  0.6204
    6SAPS   H4S  708   0.553   0.605  10.182 -0.4117 -2.6552 -0.6586
    6SAPS   C25  709   0.647   0.498  10.035 -0.1565  0.2009  0.3094
    6SAPS   H5R  710   0.678   0.415  10.100 -0.2189 -0.5196 -0.5692
    6SAPS   C26  711   0.610   0.475   9.907  0.3943 -0.1891  0.2481
    6SAPS   H6R  712   0.625   0.373   9.869  0.0799 -1.3005  2.8866
    6SAPS   C27  713   0.554   0.578   9.812  0.5563  0.1964  0.7079
    6SAPS   H7R  714   0.640   0.635   9.772  0.3576 -0.3226 -0.5241
    6SAPS   H7S  715   0.492   0.643   9.877  1.9877  0.1803  2.1323
    6SAPS   C28  716   0.464   0.528   9.698 -0.4919 -0.1908  0.1440
    6SAPS   H8R  717   0.395   0.445   9.723 -0.7247 -0.2216 -0.5787
    6SAPS   C29  718   0.449   0.571   9.570  0.1124 -0.6526  0.4256
    6SAPS   H9R  719   0.358   0.541   9.517  0.4241 -1.4195  0.3240
    6SAPS  C210  720   0.524   0.687   9.512  0.0143  0.1388  0.2457
    6SAPS  H10R  721   0.608   0.725   9.575  1.4198  1.3839 -2.2361
    6SAPS  H10S  722   0.444   0.762   9.494 -0.7146 -0.7639 -0.3296
    6SAPS  C211  723   0.585   0.645   9.383 -0.0061 -0.1868  0.6109
    6SAPS  H11R  724   0.689   0.610   9.374 -0.6662 -1.7217 -2.9405
    6SAPS  C212  725   0.542   0.657   9.255 -0.3459 -0.3010 -0.8108
    6SAPS  H12R  726   0.598   0.597   9.182  3.7198  0.8009  1.1112
    6SAPS  C213  727   0.410   0.721   9.205 -0.1096 -0.1701 -1.0611
    6SAPS  H13R  728   0.357   0.760   9.295  1.9578  1.5662 -0.5137
    6SAPS  H13S  729   0.350   0.639   9.159 -1.5234  1.4281 -2.1704
    6SAPS  C214  730   0.419   0.829   9.107  0.6854 -0.5152  0.3926
    6SAPS  H14R  731   0.517   0.862   9.070 -0.2720 -0.1622 -2.0361
    6SAPS  C215  732   0.321   0.891   9.032 -0.2038  0.1830  0.1467
    6SAPS  H15R  733   0.348   0.975   8.967 -1.5718  0.7962  0.3361
    6SAPS  C216  734   0.173   0.860   9.055 -0.0698  0.0658  0.3591
    6SAPS  H16R  735   0.113   0.948   9.088  0.7713  0.3575  1.1460
    6SAPS  H16S  736   0.149   0.779   9.126 -2.7405  0.2673 -0.2036
    6SAPS  C217  737   0.109   0.800   8.924 -0.0604 -0.0772  0.2455
    6SAPS  H17R  738   0.150   0.697   8.917 -3.3230 -1.4524 -0.2113
    6SAPS  H17S  739   0.134   0.859   8.833  0.8179  2.4587  2.0099
    6SAPS  C218  740  -0.046   0.789   8.925  0.4991 -0.1189 -0.3788
    6SAPS  H18R  741  -0.081   0.876   8.984  2.4822 -0.3069  1.1857
    6SAPS  H18S  742  -0.098   0.704   8.974 -2.4991  0.4074 -2.3681
    6SAPS  C219  743  -0.113   0.790   8.787 -0.1337  1.0188  0.0086
    6SAPS  H19R  744  -0.082   0.699   8.731 -1.6552 -0.2337  1.1091
    6SAPS  H19S  745  -0.064   0.878   8.738  0.7344  0.2242 -0.5891
    6SAPS  C220  746  -0.263   0.808   8.782  0.1757  0.0202 -0.8008
    6SAPS  H20R  747  -0.328   0.740   8.840 -1.7247  1.8487 -0.6759
    6SAPS  H20S  748  -0.306   0.797   8.680  1.0015 -0.6692 -1.0851
    6SAPS  H20T  749  -0.279   0.912   8.817  0.3328  0.0875 -0.9273
    6SAPS   C33  750   1.048   1.283  10.080 -0.3565  0.1441  0.6816
    6SAPS   H3X  751   1.014   1.178  10.096  0.2496 -0.1697 -0.0883
    6SAPS   H3Y  752   1.155   1.283  10.052 -0.6295  3.9474 -1.0378
    6SAPS   C34  753   0.975   1.344   9.958 -0.2202 -0.0013 -0.8507
    6SAPS   H4X  754   0.981   1.455   9.956  0.5547 -0.0384 -1.2537
    6SAPS   H4Y  755   0.869   1.313   9.964 -0.0651 -0.2068  1.7196
    6SAPS   C35  756   1.015   1.291   9.819  0.1225 -0.1950 -0.0275
    6SAPS   H5X  757   1.015   1.181   9.812 -0.7708 -0.1931 -0.2173
    6SAPS   H5Y  758   1.123   1.306   9.798  0.6720 -2.5017  0.9450
    6SAPS   C36  759   0.939   1.353   9.702  0.1712  0.3340  1.0025
    6SAPS   H6X  760   0.920   1.460   9.726 -0.6494  0.3968  0.1326
    6SAPS   H6Y  761   0.849   1.290   9.691  0.6270  0.0330 -1.5227
    6SAPS   C37  762   1.008   1.331   9.562  0.5870  0.5554 -0.3122
    6SAPS   H7X  763   1.036   1.224   9.557 -0.2971  0.3801 -2.1138
    6SAPS   H7Y  764   1.101   1.392   9.563  1.7859 -1.1120  2.2772
    6SAPS   C38  765   0.923   1.359   9.443 -0.6130 -0.1077  0.0716
    6SAPS   H8X  766   0.868   1.456   9.442 -0.4413  0.0326 -2.3975
    6SAPS   H8Y  767   0.837   1.289   9.446  0.3874 -1.3656  0.2716
    6SAPS   C39  768   1.004   1.355   9.311  0.2365  0.2524 -0.3395
    6SAPS   H9X  769   1.033   1.249   9.296  2.1809  0.6456  0.3687
    6SAPS   H9Y  770   1.094   1.415   9.336  0.0905  0.1117  0.5891
    6SAPS  C310  771   0.934   1.424   9.191  0.9002  0.4018  0.9248
    6SAPS  H10X  772   0.906   1.528   9.218 -0.3443  0.1687  0.5975
    6SAPS  H10Y  773   0.836   1.375   9.174  0.5031  1.0852  1.2313
    6SAPS  C311  774   1.022   1.429   9.071 -0.3030  0.3720 -0.3205
    6SAPS  H11X  775   1.099   1.350   9.080 -1.0007 -0.2144  0.5840
    6SAPS  H11Y  776   1.081   1.523   9.064 -1.7147  1.2242 -1.3252
    6SAPS  C312  777   0.941   1.401   8.943  0.5147  0.5577 -0.0419
    6SAPS  H12X  778   0.865   1.482   8.946 -0.1972 -0.0813 -0.4966
    6SAPS  H12Y  779   0.890   1.304   8.960  1.6045  0.0756  0.5353
    6SAPS  C313  780   1.017   1.414   8.808  0.1769 -0.1521 -0.6254
    6SAPS  H13X  781   1.050   1.520   8.808  0.6238 -0.2420 -2.8112
    6SAPS  H13Y  782   0.943   1.389   8.729  0.8809 -0.0203 -1.3414
    6SAPS  C314  783   1.146   1.325   8.795  0.4321  0.5281  0.9249
    6SAPS  H14X  784   1.227   1.368   8.858  0.4063  1.1522  0.5324
    6SAPS  H14Y  785   1.176   1.338   8.689 -2.4591 -0.0473 -0.0532
    6SAPS  C315  786   1.112   1.176   8.796 -0.6548  0.4287  0.1958
    6SAPS  H15X  787   1.053   1.166   8.890  1.3413  0.4465  1.5100
    6SAPS  H15Y  788   1.209   1.124   8.813 -1.2417 -1.4995 -1.7944
    6SAPS  C316  789   1.029   1.116   8.679 -0.1409 -0.4384 -0.0961
    6SAPS  H16X  790   0.947   1.189   8.664  0.7778  0.1177 -2.9210
    6SAPS  H16Y  791   0.984   1.020   8.712  0.2130 -0.4865  0.2606
    6SAPS  C317  792   1.103   1.093   8.547  0.5248  0.1079  0.3122
    6SAPS  H17X  793   1.185   1.022   8.573 -0.7168 -0.7684  2.0192
    6SAPS  H17Y  794   1.148   1.191   8.519  1.8467 -0.2434  1.0979
    6SAPS  C318  795   1.011   1.028   8.443 -0.6567  0.6901 -0.5340
    6SAPS  H18X  796   0.967   0.942   8.499  2.2825 -0.3883  0.2929
    6SAPS  H18Y  797   1.064   0.996   8.351  0.6221 -0.8886  0.6776
    6SAPS  H18Z  798   0.922   1.089   8.419 -0.6557  1.6298  1.6655
    7SAPS     N  799   2.871   4.548  10.577  0.6201 -0.1916  0.1420
    7SAPS   HN1  800   2.965   4.574  10.540  0.5115  0.4767  0.3228
    7SAPS   HN2  801   2.891   4.534  10.678  0.7858 -0.0156  0.1346
    7SAPS   HN3  802   2.839   4.467  10.521  1.0818 -0.1819 -0.1434
    7SAPS   C12  803   2.786   4.662  10.556  0.5098  0.6473  0.1206
    7SAPS  H12A  804   2.727   4.625  10.474 -1.6620 -1.0285  2.2892
    7SAPS   C13  805   2.675   4.708  10.658 -0.5500  0.8089 -0.8158
    7SAPS  O13A  806   2.685   4.663  10.775 -0.1089  0.0342  0.3827
    7SAPS  O13B  807   2.614   4.813  10.625 -0.0536 -0.1448  0.0684
    7SAPS   C11  808   2.882   4.788  10.523  0.7013 -0.4692 -0.2307
    7SAPS  H11A  809   2.833   4.886  10.547 -0.1881 -0.6897 -1.0579
    7SAPS  H11B  810   2.892   4.784  10.412 -4.2842  0.1942 -0.9676
    7SAPS     P  811   3.138   4.741  10.535  0.1939  0.4502  0.1304
    7SAPS   O13  812   3.251   4.772  10.629 -0.5508  0.3799 -0.5882
    7SAPS   O14  813   3.122   4.595  10.522  0.2854 -0.0980  0.2963
    7SAPS   O12  814   3.000   4.797  10.596 -0.2693 -0.2624  0.4505
    7SAPS   O11  815   3.143   4.803  10.392 -0.2134  0.0339 -0.2107
    7SAPS    C1  816   3.251   4.893  10.358  0.8160 -0.6361 -0.3266
    7SAPS    HA  817   3.348   4.869  10.406  0.1226 -0.9570  0.9379
    7SAPS    HB  818   3.281   4.882  10.251  0.2416 -1.7513 -0.3865
    7SAPS    C2  819   3.210   5.044  10.374 -0.0939  0.1111  0.6814
    7SAPS    HS  820   3.183   5.074  10.478  0.6321  2.8999  0.1454
    7SAPS   O21  821   3.109   5.071  10.279 -0.0339  0.4135 -0.2753
    7SAPS   C21  822   2.988   5.101  10.322 -0.2114 -0.9885 -0.0267
    7SAPS   O22  823   2.955   5.120  10.437  0.1732  0.0826  0.6384
    7SAPS   C22  824   2.898   5.114  10.200  0.1860 -0.4754  0.4661
    7SAPS   H2R  825   2.873   5.221  10.188  3.5599  0.3964  0.1898
    7SAPS   H2S  826   2.948   5.079  10.107  1.9250  2.9283 -0.0338
    7SAPS    C3  827   3.329   5.133  10.354  0.2541  0.1186 -0.5380
    7SAPS    HX  828   3.412   5.099  10.419 -0.6494 -1.6875 -0.2636
    7SAPS    HY  829   3.295   5.235  10.381 -1.0410 -0.1203 -1.1783
    7SAPS   O31  830   3.375   5.141  10.220 -0.1668  0.0737 -0.1976
    7SAPS   C31  831   3.476   5.065  10.184 -0.1179 -0.3970  0.0779
    7SAPS   O32  832   3.535   4.981  10.249 -0.6074  0.1474  0.0674
    7SAPS   C32  833   3.516   5.116  10.044 -0.2966  0.5457  0.3001
    7SAPS   H2X  834   3.555   5.219  10.060  3.2056 -0.6287  0.1151
    7SAPS   H2Y  835   3.428   5.115   9.976  1.1039  0.0171 -1.6065
    7SAPS   C23  836   2.769   5.034  10.227  0.3410 -0.5618 -0.2180
    7SAPS   H3R  837   2.711   5.055  10.319  0.7156 -1.3349  0.1975
    7SAPS   H3S  838   2.791   4.928  10.247 -0.4513 -0.3131  2.2443
    7SAPS   C24  839   2.677   5.047  10.107 -0.1350 -1.0225  0.3096
    7SAPS   H4R  840   2.727   4.993  10.024  1.3349  2.6165 -1.4073
    7SAPS   H4S  841   2.669   5.151  10.068  0.5105  0.6733  4.1689
    7SAPS   C25  842   2.537   4.984  10.130 -0.0649 -0.2609  0.3854
    7SAPS   H5R  843   2.475   5.043  10.199  0.7700  1.0518  0.0237
    7SAPS   C26  844   2.495   4.870  10.073  0.9530  0.3979  0.2357
    7SAPS   H6R  845   2.390   4.842  10.090  1.7685 -2.9080  0.5316
    7SAPS   C27  846   2.559   4.779   9.977  0.4789  0.1413  0.0716
    7SAPS   H7R  847   2.623   4.841   9.910 -0.5475  0.4901 -0.6120
    7SAPS   H7S  848   2.483   4.730   9.912  1.6868  1.2303 -2.3058
    7SAPS   C28  849   2.625   4.663  10.047  0.1227  0.2528  0.4353
    7SAPS   H8R  850   2.556   4.599  10.104  1.3295  1.8356  3.9856
    7SAPS   C29  851   2.753   4.622  10.041  0.1739 -0.1531 -0.1027
    7SAPS   H9R  852   2.783   4.537  10.105 -0.8268 -0.8359 -0.5056
    7SAPS  C210  853   2.859   4.694   9.961 -0.1668  0.1513 -0.2857
    7SAPS  H10R  854   2.814   4.782   9.911 -0.1155  0.0764 -0.4667
    7SAPS  H10S  855   2.905   4.632   9.881 -2.0110 -0.5396 -0.8835
    7SAPS  C211  856   2.971   4.742  10.051  0.1853  1.0923 -0.3287
    7SAPS  H11R  857   2.933   4.789  10.142 -1.7228 -1.1106  0.1250
    7SAPS  C212  858   3.098   4.740  10.022 -0.1035  0.1183  0.0693
    7SAPS  H12R  859   3.160   4.777  10.105  0.3130 -1.9434  0.7359
    7SAPS  C213  860   3.165   4.691   9.899 -0.0926 -0.2289  0.6117
    7SAPS  H13R  861   3.091   4.657   9.824  0.3304 -1.2108  0.6197
    7SAPS  H13S  862   3.212   4.595   9.929 -1.0235 -0.0944  2.6333
    7SAPS  C214  863   3.255   4.791   9.832  0.3180 -0.4985 -0.6319
    7SAPS  H14R  864   3.354   4.792   9.881 -0.7548  0.4732  1.6649
    7SAPS  C215  865   3.232   4.883   9.735  0.4233 -0.7232  0.0424
    7SAPS  H15R  866   3.312   4.943   9.690  1.7186 -1.4547  1.2591
    7SAPS  C216  867   3.101   4.897   9.667  0.4748 -0.5927 -0.3341
    7SAPS  H16R  868   3.047   4.801   9.686 -0.8350  0.3644  0.9479
    7SAPS  H16S  869   3.095   4.902   9.556  1.1921 -1.7865 -0.4559
    7SAPS  C217  870   2.999   5.003   9.727  0.4789 -0.1606  0.4082
    7SAPS  H17R  871   3.044   5.105   9.730 -0.3135  0.1805  1.5264
    7SAPS  H17S  872   2.988   4.976   9.834  3.0842 -0.4430  0.6670
    7SAPS  C218  873   2.867   4.992   9.641 -0.5522 -0.2677  0.1075
    7SAPS  H18R  874   2.835   4.888   9.623  0.1335 -0.4045 -0.3713
    7SAPS  H18S  875   2.894   5.038   9.543  1.7523 -1.0771  0.3155
    7SAPS  C219  876   2.754   5.064   9.704  0.4795 -0.1385 -0.2174
    7SAPS  H19R  877   2.783   5.171   9.712  0.7685 -0.3197  1.6414
    7SAPS  H19S  878   2.750   5.026   9.809  4.5740 -0.8439 -0.1600
    7SAPS  C220  879   2.619   5.051   9.634 -0.0649 -0.2621  1.1188
    7SAPS  H20R  880   2.645   5.066   9.527 -0.8099 -1.5526  0.7409
    7SAPS  H20S  881   2.546   5.117   9.686 -0.9834 -0.0683 -0.3364
    7SAPS  H20T  882   2.576   4.949   9.634 -1.0322 -0.0026 -2.3369
    7SAPS   C33  883   3.617   5.024   9.968  0.1581  0.5701 -0.2811
    7SAPS   H3X  884   3.583   4.918   9.966  0.7184  0.3977 -1.2443
    7SAPS   H3Y  885   3.715   5.025  10.020  1.4829 -0.5212 -2.5991
    7SAPS   C34  886   3.645   5.072   9.827  0.1051  0.3045  0.2785
    7SAPS   H4X  887   3.673   5.179   9.835  1.8179  0.0039 -1.1719
    7SAPS   H4Y  888   3.551   5.073   9.768  0.8182 -2.7145 -1.0916
    7SAPS   C35  889   3.744   4.981   9.749 -0.2829  0.2188 -0.4522
    7SAPS   H5X  890   3.710   4.875   9.760  0.3255  0.2660  2.9683
    7SAPS   H5Y  891   3.839   4.979   9.806 -0.1049  0.5740 -0.7300
    7SAPS   C36  892   3.746   5.019   9.596 -0.2819  0.2228 -0.0802
    7SAPS   H6X  893   3.777   5.126   9.586 -0.5204  0.1590 -1.6915
    7SAPS   H6Y  894   3.642   5.009   9.559  0.4285 -1.4771 -1.7446
    7SAPS   C37  895   3.834   4.929   9.514  0.8063  0.0136  0.4719
    7SAPS   H7X  896   3.787   4.828   9.510 -1.4501  1.0310 -2.4806
    7SAPS   H7Y  897   3.938   4.935   9.552  0.8638 -0.1546  0.3414
    7SAPS   C38  898   3.838   4.959   9.366 -0.1237 -0.2501  0.1324
    7SAPS   H8X  899   3.732   4.971   9.336 -1.0907 -1.1980  2.8891
    7SAPS   H8Y  900   3.884   4.871   9.315  0.6681 -0.6059  1.4242
    7SAPS   C39  901   3.916   5.072   9.311  0.1805  0.0742  0.0411
    7SAPS   H9X  902   4.026   5.063   9.322  0.7371  2.1015 -2.6347
    7SAPS   H9Y  903   3.885   5.167   9.361 -0.5002 -0.1427  0.0427
    7SAPS  C310  904   3.894   5.097   9.162  0.4921 -0.0049  0.2854
    7SAPS  H10X  905   3.906   5.000   9.109  2.2055 -0.9102  2.1959
    7SAPS  H10Y  906   3.975   5.164   9.125  0.3665  0.7713  1.3693
    7SAPS  C311  907   3.754   5.164   9.133  0.2084 -0.0848  0.3366
    7SAPS  H11X  908   3.756   5.269   9.169  1.3111 -0.6295  2.0284
    7SAPS  H11Y  909   3.676   5.108   9.189 -0.2737  0.2559  0.0094
    7SAPS  C312  910   3.726   5.184   8.980 -0.4531  0.4180  0.6291
    7SAPS  H12X  911   3.740   5.082   8.937 -0.0392  0.5825  0.3692
    7SAPS  H12Y  912   3.810   5.244   8.940 -0.3636  1.0689  1.7766
    7SAPS  C313  913   3.588   5.240   8.953 -0.0097 -0.0121 -0.0253
    7SAPS  H13X  914   3.579   5.343   8.996  2.9159  0.5723 -0.5795
    7SAPS  H13Y  915   3.513   5.172   8.998  1.8935 -0.6218  2.4517
    7SAPS  C314  916   3.555   5.256   8.803  0.5134  0.2017 -0.3299
    7SAPS  H14X  917   3.449   5.288   8.788 -0.0123 -1.2351  0.1817
    7SAPS  H14Y  918   3.565   5.158   8.753  1.1367  1.4964 -2.9336
    7SAPS  C315  919   3.647   5.352   8.732  0.3446  0.5576 -0.6113
    7SAPS  H15X  920   3.755   5.329   8.736  0.0267 -0.9554 -0.3508
    7SAPS  H15Y  921   3.646   5.452   8.780 -0.7886 -0.1742  0.9632
    7SAPS  C316  922   3.609   5.375   8.584  0.0967 -0.9305 -0.2567
    7SAPS  H16X  923   3.498   5.380   8.576  0.1120 -1.3961 -0.9051
    7SAPS  H16Y  924   3.638   5.284   8.526 -1.4989 -2.0215  0.5836
    7SAPS  C317  925   3.683   5.506   8.529  0.9925  0.4585 -0.7077
    7SAPS  H17X  926   3.788   5.472   8.537 -0.0833 -2.7229  5.5239
    7SAPS  H17Y  927   3.663   5.590   8.598  4.6665  1.8510 -1.1509
    7SAPS  C318  928   3.640   5.554   8.389  0.1173  0.5432  0.0663
    7SAPS  H18X  929   3.684   5.652   8.363  0.6761  0.7168  1.5647
    7SAPS  H18Y  930   3.532   5.576   8.397 -0.1602  0.0614 -1.7771
    7SAPS  H18Z  931   3.656   5.480   8.307  0.4863  0.0661  0.5577
    8SAPS     N  932   6.646   1.316  11.012  0.2436  0.0025 -0.1647
    8SAPS   HN1  933   6.742   1.330  10.975 -0.0428 -1.7918 -1.8131
    8SAPS   HN2  934   6.592   1.262  10.941 -2.1177  0.3805  1.2407
    8SAPS   HN3  935   6.600   1.407  11.032  0.2822 -0.6244  3.4554
    8SAPS   C12  936   6.652   1.245  11.148 -0.0122 -0.3806  0.1551
    8SAPS  H12A  937   6.681   1.323  11.216 -0.9048  1.2479 -1.2386
    8SAPS   C13  938   6.527   1.175  11.204  0.2833  0.3453  0.2287
    8SAPS  O13A  939   6.411   1.197  11.158 -0.1472  0.1935  0.3894
    8SAPS  O13B  940   6.541   1.107  11.313 -0.1255 -0.1898  0.0411
    8SAPS   C11  941   6.772   1.136  11.138 -0.5897 -0.5257  0.4979
    8SAPS  H11A  942   6.739   1.041  11.091 -1.2459 -0.2433  0.3679
    8SAPS  H11B  943   6.794   1.113  11.244 -0.6553 -2.8122  0.0710
    8SAPS     P  944   7.015   1.089  11.025  0.3141 -0.2046 -0.2663
    8SAPS   O13  945   7.137   1.118  11.104 -0.3710  0.1594 -0.6176
    8SAPS   O14  946   6.967   0.947  11.026  0.4928  0.1833 -0.3041
    8SAPS   O12  947   6.891   1.178  11.070 -0.4895 -0.7223 -0.0864
    8SAPS   O11  948   7.036   1.121  10.873 -0.6270 -0.2437  0.1840
    8SAPS    C1  949   7.022   1.253  10.821  0.0097  0.1890  0.0426
    8SAPS    HA  950   6.914   1.275  10.803 -0.3005  0.6217  2.1887
    8SAPS    HB  951   7.067   1.324  10.893 -0.8520  0.2294  0.5598
    8SAPS    C2  952   7.084   1.263  10.678 -0.2778 -0.3360  0.4086
    8SAPS    HS  953   7.048   1.355  10.626  0.9280 -0.7788 -1.3101
    8SAPS   O21  954   7.051   1.144  10.610 -0.2734 -0.0941 -0.0250
    8SAPS   C21  955   6.933   1.154  10.545  0.1218 -0.0218 -0.3331
    8SAPS   O22  956   6.849   1.243  10.563  0.2326  0.2183  0.5907
    8SAPS   C22  957   6.911   1.028  10.459 -0.7657  0.1956  0.8570
    8SAPS   H2R  958   7.000   1.027  10.393 -0.2599  0.5146  1.5140
    8SAPS   H2S  959   6.914   0.944  10.531 -0.5210 -2.5047 -2.1114
    8SAPS    C3  960   7.246   1.269  10.687 -0.1131  0.1439  0.5498
    8SAPS    HX  961   7.285   1.178  10.736 -2.4132 -0.9018  0.5564
    8SAPS    HY  962   7.278   1.355  10.749 -0.0473  1.4525 -1.2071
    8SAPS   O31  963   7.301   1.294  10.553 -0.3590  0.3241 -0.2237
    8SAPS   C31  964   7.388   1.211  10.503 -0.4534 -0.1693 -0.0800
    8SAPS   O32  965   7.432   1.112  10.555 -0.2101  0.2606  0.2546
    8SAPS   C32  966   7.450   1.284  10.382  0.2735  0.7811 -0.5147
    8SAPS   H2X  967   7.553   1.323  10.392 -0.0057  1.4555 -0.2538
    8SAPS   H2Y  968   7.393   1.379  10.374  2.2008  2.0632  0.4274
    8SAPS   C23  969   6.773   1.019  10.385  0.3157 -0.5164 -0.1666
    8SAPS   H3R  970   6.683   1.034  10.449 -0.5238 -1.7359 -1.0125
    8SAPS   H3S  971   6.773   0.912  10.356  0.6721 -0.8085  0.8791
    8SAPS   C24  972   6.757   1.117  10.268 -1.0303 -0.2829 -0.8919
    8SAPS   H4R  973   6.844   1.082  10.208  0.6379  0.8737  0.7150
    8SAPS   H4S  974   6.776   1.218  10.311  0.2625 -1.0153  0.3507
    8SAPS   C25  975   6.624   1.102  10.201 -0.0511  0.1208  0.3129
    8SAPS   H5R  976   6.543   1.164  10.242  0.9791  0.8294  1.3286
    8SAPS   C26  977   6.608   1.031  10.086 -0.1812  0.4856  0.4309
    8SAPS   H6R  978   6.506   1.026  10.045 -0.4981 -0.7751  1.2969
    8SAPS   C27  979   6.708   0.943  10.009 -0.0806 -0.2820 -0.1845
    8SAPS   H7R  980   6.801   0.931  10.069 -0.5171  1.1122  0.8259
    8SAPS   H7S  981   6.730   0.993   9.913 -1.9384 -3.1133 -2.2500
    8SAPS   C28  982   6.655   0.807   9.971 -0.1505 -0.3804  0.3905
    8SAPS   H8R  983   6.605   0.754  10.054 -1.8047  2.1679  1.1338
    8SAPS   C29  984   6.644   0.750   9.850  0.2221  0.0349 -0.8003
    8SAPS   H9R  985   6.581   0.661   9.834  0.0700 -0.0289  0.0933
    8SAPS  C210  986   6.694   0.809   9.723  0.0080  0.1192 -0.3607
    8SAPS  H10R  987   6.752   0.899   9.751  1.6643 -1.0361  0.1181
    8SAPS  H10S  988   6.602   0.839   9.669 -0.5612  0.1769  0.6114
    8SAPS  C211  989   6.790   0.712   9.649 -0.2259 -0.0281 -0.2054
    8SAPS  H11R  990   6.879   0.685   9.707 -0.3917 -0.3452 -0.0976
    8SAPS  C212  991   6.781   0.660   9.526 -0.7418  0.0573 -0.0592
    8SAPS  H12R  992   6.849   0.578   9.498 -0.1990  1.0144 -1.6992
    8SAPS  C213  993   6.670   0.709   9.440  0.2398 -0.2747  0.2707
    8SAPS  H13R  994   6.691   0.668   9.339 -0.3718 -0.6089  0.2741
    8SAPS  H13S  995   6.684   0.818   9.423 -1.9570 -0.1129 -0.8802
    8SAPS  C214  996   6.523   0.688   9.474  0.1462 -0.3845 -0.2987
    8SAPS  H14R  997   6.461   0.777   9.458 -1.2397 -0.8437  2.0450
    8SAPS  C215  998   6.457   0.575   9.499  0.0553 -0.5378 -0.2064
    8SAPS  H15R  999   6.349   0.576   9.523  0.3112  2.5969  1.2505
    8SAPS  C216 1000   6.521   0.442   9.467 -0.0624  0.3609 -0.6211
    8SAPS  H16R 1001   6.511   0.373   9.554  0.5536  0.8374 -0.1614
    8SAPS  H16S 1002   6.632   0.446   9.459 -0.1010  1.3406 -0.7570
    8SAPS  C217 1003   6.469   0.375   9.347  0.2477  0.8043  0.3812
    8SAPS  H17R 1004   6.364   0.340   9.356  0.1681  0.9196 -0.0764
    8SAPS  H17S 1005   6.530   0.283   9.343 -0.5008  0.2139  1.7964
    8SAPS  C218 1006   6.482   0.458   9.218  0.1989 -0.8915  0.2596
    8SAPS  H18R 1007   6.587   0.493   9.212 -0.4358  1.3265  1.2194
    8SAPS  H18S 1008   6.403   0.536   9.219 -0.7066 -1.7467 -0.9062
    8SAPS  C219 1009   6.461   0.372   9.086 -0.3833 -0.1853 -0.5734
    8SAPS  H19R 1010   6.363   0.319   9.084 -0.8982  0.7456 -0.9556
    8SAPS  H19S 1011   6.532   0.287   9.089 -0.2805 -0.0821  0.2248
    8SAPS  C220 1012   6.479   0.458   8.958  0.0038  0.3208 -0.1982
    8SAPS  H20R 1013   6.467   0.400   8.864 -0.3673 -0.3842  0.2748
    8SAPS  H20S 1014   6.584   0.491   8.949  0.5092 -1.6181 -2.2635
    8SAPS  H20T 1015   6.410   0.546   8.958  0.0051  0.3612  1.6672
    8SAPS   C33 1016   7.436   1.193  10.254  0.1057 -1.1754  0.0481
    8SAPS   H3X 1017   7.334   1.150  10.263 -0.2204 -0.5561 -0.5579
    8SAPS   H3Y 1018   7.511   1.112  10.263  1.5059 -0.1173 -1.4410
    8SAPS   C34 1019   7.450   1.268  10.113  0.9172 -0.3748  0.2927
    8SAPS   H4X 1020   7.545   1.324  10.100  0.3494  0.6987  0.5971
    8SAPS   H4Y 1021   7.376   1.351  10.116  0.4383 -0.6253 -2.4215
    8SAPS   C35 1022   7.428   1.182   9.993  0.2469  0.1438  0.0798
    8SAPS   H5X 1023   7.335   1.123  10.007  0.3046  0.2128  0.7592
    8SAPS   H5Y 1024   7.513   1.113   9.976  0.8964  0.9841 -0.1415
    8SAPS   C36 1025   7.414   1.264   9.861 -0.1895 -0.7911 -0.5121
    8SAPS   H6X 1026   7.501   1.333   9.855 -0.6412 -0.1133  0.4368
    8SAPS   H6Y 1027   7.320   1.320   9.882  0.1756 -0.4051  0.1151
    8SAPS   C37 1028   7.423   1.178   9.732 -0.2168  0.1145  0.0713
    8SAPS   H7X 1029   7.347   1.097   9.735  0.9069 -1.0002  3.7124
    8SAPS   H7Y 1030   7.523   1.133   9.712  0.2951  2.1676 -2.5100
    8SAPS   C38 1031   7.393   1.264   9.609  0.3077  0.1934  0.0781
    8SAPS   H8X 1032   7.465   1.348   9.626  1.3182 -0.6079 -0.1393
    8SAPS   H8Y 1033   7.289   1.300   9.619 -0.3483 -1.2812 -1.0886
    8SAPS   C39 1034   7.418   1.206   9.467  0.2160 -0.6520  0.4190
    8SAPS   H9X 1035   7.374   1.104   9.463  0.2045 -0.7241  1.8834
    8SAPS   H9Y 1036   7.528   1.200   9.454  0.6123  2.4569  1.4292
    8SAPS  C310 1037   7.368   1.303   9.359  0.0013  0.4593  0.2199
    8SAPS  H10X 1038   7.419   1.401   9.366  2.0033 -0.5883  1.3770
    8SAPS  H10Y 1039   7.260   1.326   9.370  0.3950  1.8571  1.3320
    8SAPS  C311 1040   7.393   1.247   9.211 -0.1816 -0.1975  0.5778
    8SAPS  H11X 1041   7.329   1.158   9.195 -1.6535  0.7802  0.7169
    8SAPS  H11Y 1042   7.496   1.206   9.208  0.5584  1.5685  0.6488
    8SAPS  C312 1043   7.374   1.361   9.099 -0.3445  0.8242  0.0725
    8SAPS  H12X 1044   7.456   1.435   9.115  0.4278  0.1117 -0.5090
    8SAPS  H12Y 1045   7.282   1.420   9.121 -0.2817  0.5388  1.1591
    8SAPS  C313 1046   7.382   1.309   8.956  0.6450  0.5178  0.1506
    8SAPS  H13X 1047   7.420   1.386   8.887  0.9600  0.0991 -0.1461
    8SAPS  H13Y 1048   7.278   1.281   8.926  0.8368  1.2307 -1.2185
    8SAPS  C314 1049   7.473   1.183   8.946  0.2781 -0.0223 -0.5530
    8SAPS  H14X 1050   7.427   1.092   8.990  1.0816 -0.2358 -0.1348
    8SAPS  H14Y 1051   7.567   1.206   9.000 -0.4694 -0.6794  1.0859
    8SAPS  C315 1052   7.514   1.138   8.807  0.1203  0.3543  0.0308
    8SAPS  H15X 1053   7.605   1.075   8.818  0.2593  0.0190 -2.4703
    8SAPS  H15Y 1054   7.546   1.226   8.747  1.9602 -0.8024 -0.7676
    8SAPS  C316 1055   7.400   1.073   8.737  0.9259 -0.1140  0.6419
    8SAPS  H16X 1056   7.323   1.152   8.725  0.3428 -0.7124  0.4070
    8SAPS  H16Y 1057   7.376   0.990   8.807 -0.6614 -0.5633 -0.3714
    8SAPS  C317 1058   7.426   1.037   8.589 -0.3525 -0.0461 -0.1621
    8SAPS  H17X 1059   7.475   1.126   8.544 -1.6541  0.1963 -1.1475
    8SAPS  H17Y 1060   7.329   1.022   8.537  0.3851  0.4736 -1.7625
    8SAPS  C318 1061   7.519   0.919   8.580 -0.3084  0.3998 -0.2001
    8SAPS  H18X 1062   7.619   0.942   8.624 -0.6754 -0.0969  0.9178
    8SAPS  H18Y 1063   7.525   0.884   8.475  0.8062  0.9109 -0.3227
    8SAPS  H18Z 1064   7.475   0.831   8.632 -0.5614 -0.0838 -1.1982
    9SAPS     N 1065   3.039   6.705   6.388  0.0408  0.1154  0.5874
    9SAPS   HN1 1066   3.063   6.609   6.421  0.1932  0.1177  0.4840
    9SAPS   HN2 1067   3.121   6.763   6.413  0.6563 -0.1990 -0.6114
    9SAPS   HN3 1068   2.953   6.739   6.434  0.2995  2.0637 -0.2612
    9SAPS   C12 1069   3.019   6.698   6.242  0.4468  0.7535  0.1277
    9SAPS  H12A 1070   2.983   6.794   6.207  1.2106  0.8887 -0.3164
    9SAPS   C13 1071   3.159   6.667   6.170 -0.2154  0.2603 -0.2650
    9SAPS  O13A 1072   3.241   6.594   6.237  0.1378 -0.7207 -0.2058
    9SAPS  O13B 1073   3.162   6.679   6.049 -0.0610 -0.4677  0.1023
    9SAPS   C11 1074   2.910   6.582   6.196  0.0623 -1.3714 -0.3312
    9SAPS  H11A 1075   2.959   6.483   6.206  1.7659 -0.3768  1.9474
    9SAPS  H11B 1076   2.889   6.606   6.089 -0.4016  0.7333  0.1797
    9SAPS     P 1077   2.680   6.493   6.268  0.1638 -0.1861  0.3818
    9SAPS   O13 1078   2.644   6.466   6.127 -0.0274  0.2114  0.1515
    9SAPS   O14 1079   2.714   6.368   6.340 -0.0343 -0.1282 -0.3288
    9SAPS   O12 1080   2.788   6.602   6.270 -0.2326 -0.3610  0.5062
    9SAPS   O11 1081   2.546   6.542   6.335  0.3114  1.0267 -0.1413
    9SAPS    C1 1082   2.515   6.672   6.377 -0.2559  0.1063 -0.0862
    9SAPS    HA 1083   2.557   6.742   6.301  0.1576 -0.6615 -0.5838
    9SAPS    HB 1084   2.404   6.673   6.374 -0.2525  0.5684 -2.3039
    9SAPS    C2 1085   2.579   6.698   6.519  0.0453  0.2542 -0.3060
    9SAPS    HS 1086   2.684   6.662   6.513  0.4654  1.4831 -0.7517
    9SAPS   O21 1087   2.504   6.629   6.614 -0.2351  0.1595 -0.3151
    9SAPS   C21 1088   2.566   6.586   6.720  0.0479  0.3842  0.2227
    9SAPS   O22 1089   2.680   6.604   6.755 -0.1973 -0.0028 -0.0707
    9SAPS   C22 1090   2.477   6.509   6.805  0.2431  0.4405 -0.6343
    9SAPS   H2R 1091   2.373   6.549   6.811 -0.1563 -0.6730  0.1835
    9SAPS   H2S 1092   2.457   6.411   6.756  0.1754 -0.4806  1.1252
    9SAPS    C3 1093   2.569   6.849   6.547  0.2719 -0.1182 -0.2545
    9SAPS    HX 1094   2.467   6.886   6.570  0.1211 -1.6022  1.7889
    9SAPS    HY 1095   2.611   6.886   6.451  2.2374 -1.2515  0.1028
    9SAPS   O31 1096   2.651   6.903   6.653 -0.5348 -0.1651 -0.2833
    9SAPS   C31 1097   2.781   6.879   6.642 -0.0068 -0.3489 -1.1474
    9SAPS   O32 1098   2.845   6.837   6.546  0.1499 -0.3335 -0.2562
    9SAPS   C32 1099   2.843   6.942   6.771  0.5477 -0.7090 -0.8206
    9SAPS   H2X 1100   2.810   6.886   6.861  0.6518 -1.0834 -1.0142
    9SAPS   H2Y 1101   2.802   7.045   6.787  0.4580 -0.4963 -2.2430
    9SAPS   C23 1102   2.530   6.490   6.946 -0.5977 -0.3007 -0.1625
    9SAPS   H3R 1103   2.562   6.590   6.983 -0.1011 -0.4791 -0.1048
    9SAPS   H3S 1104   2.612   6.415   6.943 -1.1645 -0.9776  0.7152
    9SAPS   C24 1105   2.431   6.436   7.048  0.1473 -0.5299 -0.6912
    9SAPS   H4R 1106   2.346   6.507   7.043  0.5111 -0.0686 -0.4829
    9SAPS   H4S 1107   2.474   6.460   7.148  2.5281 -1.1365 -1.4920
    9SAPS   C25 1108   2.383   6.293   7.040  0.3812 -0.4874 -0.7343
    9SAPS   H5R 1109   2.358   6.262   6.937  0.5027 -1.2263 -0.5469
    9SAPS   C26 1110   2.391   6.201   7.138 -0.1851  0.5294  0.0986
    9SAPS   H6R 1111   2.344   6.103   7.122 -0.4972  0.3009  2.1569
    9SAPS   C27 1112   2.444   6.216   7.278  0.1458  0.1082 -0.6524
    9SAPS   H7R 1113   2.518   6.299   7.284  0.9193 -0.6745  1.3607
    9SAPS   H7S 1114   2.512   6.131   7.304  0.0259  0.9885  2.9962
    9SAPS   C28 1115   2.343   6.217   7.389  0.2422 -0.4294  0.5860
    9SAPS   H8R 1116   2.289   6.121   7.402 -1.8924  0.4217 -1.2313
    9SAPS   C29 1117   2.320   6.313   7.480  1.3065 -0.4668  0.1049
    9SAPS   H9R 1118   2.233   6.290   7.543 -1.3299  0.3745 -2.9568
    9SAPS  C210 1119   2.379   6.450   7.488  0.0400  0.6943  0.2443
    9SAPS  H10R 1120   2.401   6.481   7.384  0.4079  2.7744  0.9007
    9SAPS  H10S 1121   2.480   6.446   7.535 -0.6324  0.1942  1.7251
    9SAPS  C211 1122   2.291   6.553   7.554 -0.3474 -0.2582 -0.3678
    9SAPS  H11R 1123   2.238   6.626   7.491 -0.2174  2.2581  2.2532
    9SAPS  C212 1124   2.274   6.563   7.688 -0.2036 -0.2688  0.1963
    9SAPS  H12R 1125   2.199   6.637   7.719 -0.3046  0.3675 -1.4649
    9SAPS  C213 1126   2.337   6.471   7.782  0.6339  0.2697 -0.8161
    9SAPS  H13R 1127   2.363   6.531   7.873 -1.6819  0.4557 -0.2206
    9SAPS  H13S 1128   2.433   6.437   7.737  1.6215  1.6865  0.1033
    9SAPS  C214 1129   2.242   6.356   7.820  0.2244 -0.1306 -0.0358
    9SAPS  H14R 1130   2.134   6.375   7.816  0.3654  0.7449  0.0508
    9SAPS  C215 1131   2.282   6.229   7.850 -0.5126  0.5368 -0.1859
    9SAPS  H15R 1132   2.210   6.147   7.863  0.1453 -0.1407 -0.7676
    9SAPS  C216 1133   2.421   6.178   7.869 -0.5173  0.7253  0.6326
    9SAPS  H16R 1134   2.494   6.259   7.850 -2.7380  2.5112 -0.8501
    9SAPS  H16S 1135   2.441   6.091   7.803  3.7225  1.2761  0.9286
    9SAPS  C217 1136   2.429   6.136   8.018 -0.4301 -0.1486 -0.8254
    9SAPS  H17R 1137   2.517   6.068   8.027 -1.7381 -1.6629  1.5203
    9SAPS  H17S 1138   2.336   6.087   8.054 -1.1370  2.2834  0.8685
    9SAPS  C218 1139   2.447   6.256   8.114 -0.0682 -0.1352  0.0273
    9SAPS  H18R 1140   2.390   6.342   8.073  0.2214 -0.1519 -0.4150
    9SAPS  H18S 1141   2.550   6.288   8.088 -0.0203 -1.0061 -0.9035
    9SAPS  C219 1142   2.417   6.225   8.265 -0.1645 -0.4978  0.5445
    9SAPS  H19R 1143   2.443   6.314   8.326 -0.1872 -0.1800  0.0866
    9SAPS  H19S 1144   2.486   6.142   8.293  2.0348  1.2102  0.4481
    9SAPS  C220 1145   2.272   6.193   8.296 -0.5042 -0.1081  0.0281
    9SAPS  H20R 1146   2.247   6.087   8.272 -2.1028  0.4375 -0.8433
    9SAPS  H20S 1147   2.206   6.262   8.240 -0.6339 -0.8536 -0.7571
    9SAPS  H20T 1148   2.253   6.205   8.404 -0.0593 -0.4881  0.1548
    9SAPS   C33 1149   2.994   6.959   6.763  0.6976  0.2110 -0.5420
    9SAPS   H3X 1150   3.020   6.983   6.657  0.3435  2.1793 -0.2151
    9SAPS   H3Y 1151   3.040   6.860   6.788 -1.2618 -0.1483  1.9770
    9SAPS   C34 1152   3.047   7.069   6.847 -0.3448 -0.4064 -0.5247
    9SAPS   H4X 1153   2.976   7.154   6.834  0.0368  0.1671  0.9561
    9SAPS   H4Y 1154   3.150   7.100   6.822 -0.7338  2.8117  1.3191
    9SAPS   C35 1155   3.049   7.032   7.000 -0.5415  0.2130  0.2060
    9SAPS   H5X 1156   2.956   6.974   7.016 -1.6621  2.0073  0.5408
    9SAPS   H5Y 1157   3.035   7.132   7.046 -1.2348  0.2786 -0.1341
    9SAPS   C36 1158   3.175   6.958   7.047  0.1412  0.7155 -0.1142
    9SAPS   H6X 1159   3.270   6.996   7.003  0.3838  0.3673  0.1041
    9SAPS   H6Y 1160   3.172   6.849   7.024 -2.3798  0.4433  1.1776
    9SAPS   C37 1161   3.182   6.966   7.206 -0.4947  0.1439  0.7534
    9SAPS   H7X 1162   3.079   6.950   7.244  0.1231 -0.0272  2.4141
    9SAPS   H7Y 1163   3.212   7.061   7.254 -1.7651 -0.1020  2.1066
    9SAPS   C38 1164   3.268   6.846   7.244  0.0079  0.1099 -0.1510
    9SAPS   H8X 1165   3.371   6.852   7.202  0.8577 -2.1937  1.3740
    9SAPS   H8Y 1166   3.220   6.755   7.203  0.8993 -0.9237  0.9967
    9SAPS   C39 1167   3.272   6.834   7.397  0.7678  0.5548  0.3540
    9SAPS   H9X 1168   3.185   6.896   7.426 -1.3863 -1.9484 -0.4086
    9SAPS   H9Y 1169   3.363   6.894   7.419  0.8205  0.8258 -0.5464
    9SAPS  C310 1170   3.247   6.689   7.445  0.0551  0.3855 -0.0661
    9SAPS  H10X 1171   3.307   6.618   7.384 -0.3488 -0.0243  0.0044
    9SAPS  H10Y 1172   3.139   6.661   7.442  0.3399 -0.9956  1.2370
    9SAPS  C311 1173   3.282   6.665   7.594  1.0904 -0.9191  0.0491
    9SAPS  H11X 1174   3.266   6.766   7.636  1.6121 -0.3185 -1.1496
    9SAPS  H11Y 1175   3.388   6.638   7.612  1.2061 -0.6314 -0.2005
    9SAPS  C312 1176   3.193   6.562   7.651  0.1474  0.0993  0.1493
    9SAPS  H12X 1177   3.226   6.462   7.617 -2.3183 -0.1732 -1.7194
    9SAPS  H12Y 1178   3.089   6.588   7.619 -0.4825 -0.9087  1.3093
    9SAPS  C313 1179   3.165   6.541   7.800  0.2312  0.4097  0.3457
    9SAPS  H13X 1180   3.119   6.629   7.850  0.0119 -0.3021  1.4346
    9SAPS  H13Y 1181   3.257   6.519   7.859  0.0831 -1.6802 -0.1368
    9SAPS  C314 1182   3.070   6.416   7.814 -0.1330  0.3442 -0.2967
    9SAPS  H14X 1183   3.125   6.326   7.779 -1.0338 -0.4180  0.2131
    9SAPS  H14Y 1184   2.981   6.431   7.749  0.5622 -0.6855 -1.5440
    9SAPS  C315 1185   3.018   6.388   7.960 -0.1118  0.0084  0.0288
    9SAPS  H15X 1186   2.970   6.484   7.992 -2.7898 -1.1566 -0.2292
    9SAPS  H15Y 1187   3.101   6.369   8.032  1.7624  0.0071 -2.0456
    9SAPS  C316 1188   2.911   6.281   7.962  1.1443 -0.3657  0.8969
    9SAPS  H16X 1189   2.968   6.192   7.928  0.4340 -0.6061  0.2878
    9SAPS  H16Y 1190   2.832   6.315   7.891  1.6396  0.0301  0.5289
    9SAPS  C317 1191   2.857   6.256   8.101 -0.1075 -0.4518  0.2471
    9SAPS  H17X 1192   2.943   6.208   8.152  0.8603  0.0363 -0.8857
    9SAPS  H17Y 1193   2.777   6.180   8.088 -2.0419  1.3372  1.1444
    9SAPS  C318 1194   2.796   6.371   8.177  0.0267 -0.6730 -0.4114
    9SAPS  H18X 1195   2.751   6.439   8.101  0.3261 -1.1512 -1.0272
    9SAPS  H18Y 1196   2.876   6.426   8.231 -1.5831  0.5801  0.7975
    9SAPS  H18Z 1197   2.717   6.341   8.248 -0.3589 -1.2990 -1.0830
   10SAPS     N 1198   0.643   0.570   5.943 -0.3288 -0.1519 -0.6303
   10SAPS   HN1 1199   0.649   0.570   6.047  2.2310 -0.6378 -0.7276
   10SAPS   HN2 1200   0.659   0.671   5.922 -1.5478  0.1262 -0.3560
   10SAPS   HN3 1201   0.546   0.557   5.906 -1.4782  1.0127  1.7393
   10SAPS   C12 1202   0.742   0.468   5.889  0.6517  0.4532 -0.2220
   10SAPS  H12A 1203   0.711   0.370   5.920 -0.4247  0.5985 -0.7891
   10SAPS   C13 1204   0.756   0.463   5.736  0.0054  0.7020  0.4088
   10SAPS  O13A 1205   0.683   0.545   5.673 -0.0767 -0.3514  0.0387
   10SAPS  O13B 1206   0.820   0.369   5.681 -0.4083  0.0127  0.3002
   10SAPS   C11 1207   0.878   0.514   5.953  1.1515  0.1623 -0.4999
   10SAPS  H11A 1208   0.903   0.618   5.924  0.7929  0.1367 -0.9157
   10SAPS  H11B 1209   0.967   0.457   5.917  1.4903  0.3116  0.0871
   10SAPS     P 1210   0.925   0.373   6.169  0.0205 -0.0516 -0.2141
   10SAPS   O13 1211   0.823   0.352   6.272  0.1344 -0.3591  0.2648
   10SAPS   O14 1212   0.951   0.261   6.075  0.0790 -0.2036  0.2302
   10SAPS   O12 1213   0.879   0.504   6.096  1.1699  0.0834 -0.1870
   10SAPS   O11 1214   1.062   0.417   6.239  0.0059 -0.1148 -0.3302
   10SAPS    C1 1215   1.087   0.373   6.371  0.1772  0.4754  0.3103
   10SAPS    HA 1216   0.999   0.361   6.437  0.4398 -2.3045  0.2670
   10SAPS    HB 1217   1.133   0.273   6.354 -0.4021  0.4001 -0.9515
   10SAPS    C2 1218   1.192   0.455   6.449 -0.4340  0.0957 -0.2420
   10SAPS    HS 1219   1.292   0.424   6.411  1.3080  1.7276  2.6631
   10SAPS   O21 1220   1.196   0.421   6.590  0.4023  0.5617  0.0834
   10SAPS   C21 1221   1.251   0.309   6.630  0.4502 -0.2095  1.0583
   10SAPS   O22 1222   1.291   0.216   6.563 -0.0535 -0.1439  0.1979
   10SAPS   C22 1223   1.245   0.302   6.791  0.7355  0.1517 -0.5409
   10SAPS   H2R 1224   1.143   0.341   6.805  0.5286 -0.8666  1.0374
   10SAPS   H2S 1225   1.255   0.197   6.828  1.1600  0.5118  0.3963
   10SAPS    C3 1226   1.178   0.607   6.427 -0.0919 -0.0599  0.0471
   10SAPS    HX 1227   1.074   0.641   6.443 -0.9008 -3.1034  2.4029
   10SAPS    HY 1228   1.207   0.631   6.323  0.0715 -0.4727 -0.0070
   10SAPS   O31 1229   1.261   0.684   6.515 -0.3226  0.1838  0.0648
   10SAPS   C31 1230   1.287   0.807   6.486 -0.6448 -1.1519 -0.5182
   10SAPS   O32 1231   1.262   0.862   6.381 -0.5239 -0.1656  0.0159
   10SAPS   C32 1232   1.368   0.873   6.602  0.3348 -0.3055  0.0714
   10SAPS   H2X 1233   1.441   0.800   6.645  1.8579 -0.1091 -2.0325
   10SAPS   H2Y 1234   1.291   0.884   6.682 -0.0711  0.0230 -0.3595
   10SAPS   C23 1235   1.361   0.385   6.860  0.0401 -0.3685 -0.0814
   10SAPS   H3R 1236   1.433   0.419   6.783 -0.7003  2.5552  0.3953
   10SAPS   H3S 1237   1.413   0.326   6.938  0.6117 -0.1944 -0.3239
   10SAPS   C24 1238   1.314   0.502   6.947  0.5455  0.1098  0.5759
   10SAPS   H4R 1239   1.403   0.553   6.989 -0.3470  1.9347  0.3543
   10SAPS   H4S 1240   1.253   0.453   7.026  0.5301 -0.9441 -0.0694
   10SAPS   C25 1241   1.237   0.599   6.854 -0.3805  0.6242  0.9870
   10SAPS   H5R 1242   1.267   0.598   6.749  1.1065 -3.2163  1.2729
   10SAPS   C26 1243   1.150   0.695   6.898 -0.3155  0.3823  0.5010
   10SAPS   H6R 1244   1.105   0.759   6.821 -0.1676 -0.4380 -0.2858
   10SAPS   C27 1245   1.114   0.717   7.045  0.4780  0.0697  0.5984
   10SAPS   H7R 1246   1.093   0.618   7.090 -1.3206  0.6716  1.1826
   10SAPS   H7S 1247   1.018   0.771   7.039  0.9379  0.9498  0.9269
   10SAPS   C28 1248   1.213   0.782   7.140 -0.4340  0.0912 -0.0720
   10SAPS   H8R 1249   1.316   0.780   7.102 -0.8604 -0.2038 -1.2531
   10SAPS   C29 1250   1.179   0.812   7.266 -0.4280 -0.3853 -0.4987
   10SAPS   H9R 1251   1.258   0.849   7.333 -1.9708 -0.5558  1.5051
   10SAPS  C210 1252   1.046   0.796   7.340 -0.2926 -0.8567  0.4805
   10SAPS  H10R 1253   0.967   0.763   7.269 -2.7191 -1.2328  3.1531
   10SAPS  H10S 1254   1.022   0.896   7.381 -1.8098  0.0079 -2.2239
   10SAPS  C211 1255   1.078   0.696   7.448 -0.1122 -0.1440 -0.3655
   10SAPS  H11R 1256   1.089   0.592   7.415 -0.1488 -0.3999  0.4143
   10SAPS  C212 1257   1.079   0.716   7.577 -0.6722 -0.0987  0.6795
   10SAPS  H12R 1258   1.103   0.627   7.638 -0.5048 -0.6465 -0.1611
   10SAPS  C213 1259   1.060   0.846   7.646  0.0471 -0.0755 -0.4224
   10SAPS  H13R 1260   1.029   0.817   7.748  0.9109  0.8252  0.1036
   10SAPS  H13S 1261   0.965   0.893   7.611 -1.0358 -0.8584  1.2993
   10SAPS  C214 1262   1.178   0.941   7.653  0.0304  0.1195  0.3155
   10SAPS  H14R 1263   1.183   1.026   7.584  1.4747  1.2925  1.7736
   10SAPS  C215 1264   1.272   0.930   7.746  0.0116 -0.5519 -0.5321
   10SAPS  H15R 1265   1.354   1.003   7.737  0.2204 -0.7591 -0.3186
   10SAPS  C216 1266   1.289   0.836   7.861 -0.0597  0.3459  0.1986
   10SAPS  H16R 1267   1.381   0.777   7.840  0.9712  2.0758 -0.3649
   10SAPS  H16S 1268   1.206   0.764   7.876 -0.1162  0.7556  1.9770
   10SAPS  C217 1269   1.314   0.923   7.992  0.0967 -0.7060  0.0213
   10SAPS  H17R 1270   1.243   1.009   7.990 -0.6941 -1.3225  0.8075
   10SAPS  H17S 1271   1.406   0.981   7.970  0.3957 -0.7637  1.0758
   10SAPS  C218 1272   1.305   0.850   8.123 -0.5087  0.4514 -0.1856
   10SAPS  H18R 1273   1.350   0.749   8.125 -0.9588  0.2224 -1.0155
   10SAPS  H18S 1274   1.196   0.831   8.130 -0.0582 -3.2075 -1.2725
   10SAPS  C219 1275   1.344   0.940   8.241  0.7227  0.5875 -0.4774
   10SAPS  H19R 1276   1.272   1.024   8.245 -0.8229 -0.6908  2.5444
   10SAPS  H19S 1277   1.442   0.984   8.217  0.3892  0.8252 -1.4411
   10SAPS  C220 1278   1.357   0.869   8.380 -0.1313  0.3063  0.2199
   10SAPS  H20R 1279   1.382   0.950   8.452 -0.7311  1.7480 -1.1375
   10SAPS  H20S 1280   1.426   0.783   8.366 -0.0903  0.3922 -0.1168
   10SAPS  H20T 1281   1.255   0.832   8.405  0.4464 -0.7008  1.1516
   10SAPS   C33 1282   1.430   1.008   6.584 -1.1774 -0.7146 -0.4370
   10SAPS   H3X 1283   1.348   1.083   6.592 -1.6721 -1.2066 -0.8112
   10SAPS   H3Y 1284   1.471   1.016   6.481  0.8787  1.5750  0.4597
   10SAPS   C34 1285   1.532   1.035   6.693 -0.4642 -0.5153 -0.0882
   10SAPS   H4X 1286   1.584   1.133   6.689  1.6042 -1.5953 -1.6452
   10SAPS   H4Y 1287   1.615   0.966   6.666 -2.4827 -2.7406 -0.9480
   10SAPS   C35 1288   1.476   1.022   6.831  0.4421  0.1352 -0.3484
   10SAPS   H5X 1289   1.433   0.921   6.849 -1.3935  0.5217 -2.1120
   10SAPS   H5Y 1290   1.384   1.083   6.839  0.7123  0.5569 -0.4171
   10SAPS   C36 1291   1.577   1.058   6.940  0.4340 -0.7698  0.7637
   10SAPS   H6X 1292   1.588   1.168   6.927 -1.5505 -0.3708  1.9843
   10SAPS   H6Y 1293   1.681   1.025   6.924  1.0240  2.0120 -2.1680
   10SAPS   C37 1294   1.521   1.035   7.074 -0.0929 -0.9171 -0.2600
   10SAPS   H7X 1295   1.512   0.925   7.081 -0.7996 -0.7724  1.8754
   10SAPS   H7Y 1296   1.417   1.070   7.092  0.6194  1.1053  0.3336
   10SAPS   C38 1297   1.603   1.097   7.192  0.0420  0.6070  0.2589
   10SAPS   H8X 1298   1.587   1.207   7.182 -1.9041  0.4698  1.3554
   10SAPS   H8Y 1299   1.707   1.065   7.172  0.0382 -0.3340  1.7000
   10SAPS   C39 1300   1.554   1.062   7.328  0.2486 -0.2756  0.2524
   10SAPS   H9X 1301   1.447   1.091   7.336 -0.1750 -1.9209  1.0657
   10SAPS   H9Y 1302   1.607   1.126   7.401  1.9684 -1.5334  0.1651
   10SAPS  C310 1303   1.575   0.915   7.362  0.9777  0.4576 -0.0350
   10SAPS  H10X 1304   1.684   0.895   7.357  0.5884 -1.5885 -1.8092
   10SAPS  H10Y 1305   1.518   0.840   7.304  0.7194 -0.6470  1.5803
   10SAPS  C311 1306   1.537   0.889   7.511  0.5402 -0.0450 -0.6928
   10SAPS  H11X 1307   1.433   0.850   7.515  0.6766 -0.3153  1.1834
   10SAPS  H11Y 1308   1.534   0.978   7.579  0.0693 -0.5896  0.0150
   10SAPS  C312 1309   1.621   0.776   7.573 -0.1006  0.3391  1.0774
   10SAPS  H12X 1310   1.569   0.753   7.668 -0.8886  0.4614  0.6852
   10SAPS  H12Y 1311   1.726   0.809   7.581  0.0461 -0.2518  1.6043
   10SAPS  C313 1312   1.627   0.653   7.490 -0.3075 -0.0035  0.6386
   10SAPS  H13X 1313   1.670   0.566   7.546  2.6251 -0.9737 -2.7061
   10SAPS  H13Y 1314   1.701   0.660   7.407  0.5132  0.2268  1.3759
   10SAPS  C314 1315   1.489   0.607   7.434  0.3811 -1.1001 -0.6984
   10SAPS  H14X 1316   1.454   0.664   7.346 -0.6068  0.1122  0.4322
   10SAPS  H14Y 1317   1.420   0.633   7.517  1.3332 -0.4918 -0.0717
   10SAPS  C315 1318   1.488   0.453   7.404 -0.0316 -0.3498 -0.1422
   10SAPS  H15X 1319   1.503   0.406   7.503  2.7502  0.0262 -0.3109
   10SAPS  H15Y 1320   1.577   0.438   7.339  0.2924 -0.8253  0.4008
   10SAPS  C316 1321   1.361   0.415   7.331  0.7326  0.2408 -0.7768
   10SAPS  H16X 1322   1.357   0.470   7.235 -1.6353  0.0295 -0.8621
   10SAPS  H16Y 1323   1.280   0.451   7.398  1.5387  0.8802 -0.1225
   10SAPS  C317 1324   1.353   0.257   7.316 -0.3090 -0.1668 -0.1174
   10SAPS  H17X 1325   1.330   0.205   7.411 -0.1159 -0.2611 -0.1227
   10SAPS  H17Y 1326   1.454   0.224   7.286  0.3194 -0.0544  1.7513
   10SAPS  C318 1327   1.247   0.214   7.212 -0.6381 -0.6312 -0.1143
   10SAPS  H18X 1328   1.241   0.103   7.199 -1.9508 -0.4504 -1.3153
   10SAPS  H18Y 1329   1.264   0.263   7.114 -1.8549 -3.4259 -1.8738
   10SAPS  H18Z 1330   1.147   0.244   7.250  0.4010  2.1015  0.7031
   11SAPS     N 1331   5.654   2.172   5.823 -0.0701 -0.4357 -0.4593
   11SAPS   HN1 1332   5.680   2.148   5.725 -0.2754  1.2868 -0.9743
   11SAPS   HN2 1333   5.735   2.206   5.879 -1.1824  0.4002  0.7102
   11SAPS   HN3 1334   5.609   2.087   5.863  2.4902 -1.3972  0.5564
   11SAPS   C12 1335   5.556   2.278   5.816 -0.3553  0.0271  0.3045
   11SAPS  H12A 1336   5.534   2.317   5.914  0.0661 -0.0651  0.4405
   11SAPS   C13 1337   5.606   2.394   5.731  0.1261 -0.1206 -0.2106
   11SAPS  O13A 1338   5.728   2.402   5.697  0.2761 -0.5762  0.1246
   11SAPS  O13B 1339   5.529   2.489   5.711 -0.3885 -0.2081 -0.1534
   11SAPS   C11 1340   5.431   2.216   5.748 -0.0060  0.5668  0.0318
   11SAPS  H11A 1341   5.456   2.186   5.644 -1.7481 -2.6447  0.3976
   11SAPS  H11B 1342   5.355   2.298   5.747  0.4328  0.9769 -0.0765
   11SAPS     P 1343   5.255   2.043   5.853  0.6265  0.0130  0.2009
   11SAPS   O13 1344   5.155   2.049   5.745  0.2587  0.1880 -0.3601
   11SAPS   O14 1345   5.269   1.905   5.920 -0.4690 -0.0992  0.0365
   11SAPS   O12 1346   5.394   2.097   5.817  0.7856  0.0251 -0.4199
   11SAPS   O11 1347   5.199   2.147   5.959  0.3232 -0.3461 -0.7547
   11SAPS    C1 1348   5.294   2.170   6.070  0.7118  0.1656  0.3245
   11SAPS    HA 1349   5.398   2.131   6.058  0.3834 -1.5696  2.4543
   11SAPS    HB 1350   5.293   2.281   6.075 -1.0398  0.4759 -3.2464
   11SAPS    C2 1351   5.231   2.126   6.205 -0.8067  0.0930  0.2179
   11SAPS    HS 1352   5.134   2.179   6.218 -1.4330 -1.2043  0.9838
   11SAPS   O21 1353   5.314   2.157   6.321 -0.0200  0.0513 -0.4697
   11SAPS   C21 1354   5.350   2.284   6.344  0.7376 -0.3099  0.4001
   11SAPS   O22 1355   5.311   2.381   6.279 -0.3582  0.4958 -0.3692
   11SAPS   C22 1356   5.444   2.282   6.462 -0.0798 -0.5367 -0.3117
   11SAPS   H2R 1357   5.426   2.194   6.528  0.3106 -0.3798  0.0105
   11SAPS   H2S 1358   5.548   2.272   6.423 -0.1961  0.6529 -0.9797
   11SAPS    C3 1359   5.185   1.975   6.221 -0.3964 -0.0044  0.6078
   11SAPS    HX 1360   5.262   1.897   6.204 -1.9047 -1.8299  1.7859
   11SAPS    HY 1361   5.116   1.958   6.136  0.2598  2.8076 -0.6215
   11SAPS   O31 1362   5.120   1.954   6.347  0.1398  0.5732 -0.3050
   11SAPS   C31 1363   5.195   1.900   6.448 -0.1936 -0.0540 -0.1436
   11SAPS   O32 1364   5.313   1.878   6.438  0.7531 -0.9038  0.3166
   11SAPS   C32 1365   5.108   1.873   6.569 -0.2828 -0.2701 -0.0604
   11SAPS   H2X 1366   5.003   1.870   6.535 -0.4822  0.1291  0.5012
   11SAPS   H2Y 1367   5.118   1.955   6.644  0.6059 -1.1384  0.8131
   11SAPS   C23 1368   5.443   2.422   6.537  0.0612  0.0064  0.3096
   11SAPS   H3R 1369   5.338   2.454   6.553 -0.0603 -0.4370  0.3977
   11SAPS   H3S 1370   5.492   2.485   6.459  0.2594 -0.6688 -0.1261
   11SAPS   C24 1371   5.508   2.423   6.669 -0.5890 -0.3089  0.3458
   11SAPS   H4R 1372   5.615   2.396   6.662 -1.0349 -1.9458 -0.4065
   11SAPS   H4S 1373   5.471   2.353   6.748 -1.3577  0.8758  1.0821
   11SAPS   C25 1374   5.506   2.565   6.718  0.7851 -0.0248  0.2440
   11SAPS   H5R 1375   5.581   2.632   6.673  1.2135 -1.2888 -0.9632
   11SAPS   C26 1376   5.436   2.610   6.826  0.2296  0.5037  0.2358
   11SAPS   H6R 1377   5.436   2.718   6.846 -1.5113  0.6664 -0.4803
   11SAPS   C27 1378   5.348   2.534   6.922  0.1535  0.0798 -0.0536
   11SAPS   H7R 1379   5.390   2.536   7.025 -0.2835 -0.1611  0.1308
   11SAPS   H7S 1380   5.341   2.428   6.890  0.9198 -0.7533  2.3552
   11SAPS   C28 1381   5.214   2.602   6.906  0.9492 -0.6986  0.1949
   11SAPS   H8R 1382   5.192   2.644   6.807  0.7506 -0.5311  0.3090
   11SAPS   C29 1383   5.119   2.613   7.005 -0.0439  0.0015 -0.8531
   11SAPS   H9R 1384   5.029   2.673   6.986  0.2046  0.5008 -0.4764
   11SAPS  C210 1385   5.130   2.571   7.151 -0.3333  0.2367  0.1066
   11SAPS  H10R 1386   5.033   2.606   7.193 -2.2061 -0.7784 -3.0981
   11SAPS  H10S 1387   5.222   2.620   7.190 -0.9286  0.6157  1.0748
   11SAPS  C211 1388   5.136   2.421   7.179 -0.8229 -0.4428 -0.8732
   11SAPS  H11R 1389   5.155   2.364   7.087  0.4184 -0.0593 -0.8722
   11SAPS  C212 1390   5.087   2.362   7.292 -0.2152 -0.3792  0.0162
   11SAPS  H12R 1391   5.080   2.252   7.300 -1.2887 -0.2234  1.4938
   11SAPS  C213 1392   5.019   2.437   7.406  0.3719 -0.3618 -0.0261
   11SAPS  H13R 1393   5.038   2.546   7.403 -1.2612 -0.0572  0.0782
   11SAPS  H13S 1394   5.067   2.410   7.502 -3.5569 -0.3093  2.1501
   11SAPS  C214 1395   4.871   2.412   7.412  0.0506  0.0461 -0.1850
   11SAPS  H14R 1396   4.825   2.364   7.324 -0.0544  0.2488 -0.2406
   11SAPS  C215 1397   4.799   2.436   7.526  0.7238  0.1014 -0.3467
   11SAPS  H15R 1398   4.692   2.410   7.529  1.2307 -2.1601  0.2939
   11SAPS  C216 1399   4.855   2.484   7.655 -0.6927  0.4608 -0.3462
   11SAPS  H16R 1400   4.772   2.518   7.720 -0.8764  1.2065 -0.9539
   11SAPS  H16S 1401   4.924   2.571   7.648 -1.3898  1.0345 -0.2391
   11SAPS  C217 1402   4.923   2.371   7.740  0.1846 -0.2609 -0.0018
   11SAPS  H17R 1403   5.033   2.365   7.731  0.3705 -1.8623  2.5317
   11SAPS  H17S 1404   4.887   2.270   7.710  0.4373 -0.3164 -0.1187
   11SAPS  C218 1405   4.889   2.380   7.893 -0.2160 -0.0372 -0.1509
   11SAPS  H18R 1406   4.783   2.390   7.922 -0.5839 -3.6550  0.2337
   11SAPS  H18S 1407   4.935   2.466   7.946 -0.3720 -0.5223  0.7793
   11SAPS  C219 1408   4.958   2.253   7.967  0.2388 -1.3977  0.4515
   11SAPS  H19R 1409   4.949   2.274   8.075 -2.2964  1.2232 -0.1364
   11SAPS  H19S 1410   5.066   2.257   7.943  0.5581 -0.0595  1.9834
   11SAPS  C220 1411   4.888   2.123   7.955 -0.4049  0.7119  0.2692
   11SAPS  H20R 1412   4.949   2.050   8.011  0.0103  1.9985  1.5401
   11SAPS  H20S 1413   4.870   2.088   7.851 -0.4976  0.3451  0.4078
   11SAPS  H20T 1414   4.788   2.118   8.005 -1.1057 -2.0235 -1.2181
   11SAPS   C33 1415   5.154   1.747   6.645 -0.8321 -0.3143  1.4206
   11SAPS   H3X 1416   5.264   1.733   6.643 -0.9930 -1.7716 -0.0623
   11SAPS   H3Y 1417   5.103   1.656   6.606  0.0508  0.3895 -1.6952
   11SAPS   C34 1418   5.105   1.742   6.789 -0.3921 -0.5411  0.4512
   11SAPS   H4X 1419   4.994   1.742   6.786 -0.3712 -0.4720 -0.3627
   11SAPS   H4Y 1420   5.150   1.834   6.833  0.5634 -0.6681 -0.2370
   11SAPS   C35 1421   5.144   1.618   6.865  0.9165  0.1830 -0.0008
   11SAPS   H5X 1422   5.252   1.626   6.888  0.9957 -2.8523  1.0519
   11SAPS   H5Y 1423   5.119   1.527   6.806 -0.2098  0.2161  0.4049
   11SAPS   C36 1424   5.059   1.606   6.994 -0.0812  0.5954 -0.1293
   11SAPS   H6X 1425   4.961   1.560   6.971  0.3509 -2.6402  3.5170
   11SAPS   H6Y 1426   5.044   1.710   7.031 -0.9985  1.4660 -2.7113
   11SAPS   C37 1427   5.134   1.522   7.102 -0.1612  0.0998  0.2938
   11SAPS   H7X 1428   5.240   1.554   7.099 -0.3111  0.5548 -0.2783
   11SAPS   H7Y 1429   5.145   1.418   7.065  0.5548  0.0534  0.6290
   11SAPS   C38 1430   5.083   1.553   7.238 -0.5237 -0.0661 -0.3782
   11SAPS   H8X 1431   4.980   1.514   7.247  0.1301 -1.7718  0.0606
   11SAPS   H8Y 1432   5.088   1.664   7.235 -1.3672 -0.0175 -0.1133
   11SAPS   C39 1433   5.162   1.493   7.362 -0.1167  0.4889 -0.1398
   11SAPS   H9X 1434   5.266   1.529   7.369 -0.2156  0.8286 -0.3954
   11SAPS   H9Y 1435   5.172   1.384   7.342  0.6042  0.2264  1.4979
   11SAPS  C310 1436   5.082   1.520   7.491 -0.2591 -0.5147  0.3019
   11SAPS  H10X 1437   5.134   1.470   7.576 -1.3758  0.3428  1.5288
   11SAPS  H10Y 1438   4.984   1.468   7.481 -0.9664  0.9508 -0.8871
   11SAPS  C311 1439   5.055   1.671   7.523 -0.4488  0.6199  0.3164
   11SAPS  H11X 1440   5.038   1.727   7.429 -0.5759  2.7266  1.5413
   11SAPS  H11Y 1441   5.152   1.704   7.566  0.2119 -0.4557 -0.2924
   11SAPS  C312 1442   4.944   1.694   7.616 -0.3859 -0.1686  0.2641
   11SAPS  H12X 1443   4.848   1.660   7.571 -0.4400 -0.1012  0.3299
   11SAPS  H12Y 1444   4.932   1.803   7.630 -2.0681  0.2022 -2.9384
   11SAPS  C313 1445   4.950   1.645   7.760 -0.6964 -0.1926  0.8032
   11SAPS  H13X 1446   5.057   1.641   7.789 -0.6322  1.8268  0.9299
   11SAPS  H13Y 1447   4.908   1.542   7.764 -1.1807 -0.1134 -1.4248
   11SAPS  C314 1448   4.872   1.734   7.856  0.2398 -0.7658  0.0454
   11SAPS  H14X 1449   4.779   1.759   7.801 -0.0393 -1.7726  0.0374
   11SAPS  H14Y 1450   4.929   1.827   7.874 -1.2846  0.1562  0.3574
   11SAPS  C315 1451   4.841   1.684   7.998  0.0280  0.0504 -0.0237
   11SAPS  H15X 1452   4.935   1.655   8.051  0.5870  0.7889 -0.5762
   11SAPS  H15Y 1453   4.777   1.594   7.995 -0.0161  0.0237  1.2835
   11SAPS  C316 1454   4.750   1.782   8.084  0.4490  0.2221  0.3911
   11SAPS  H16X 1455   4.641   1.762   8.076  0.2082  1.0701  1.2851
   11SAPS  H16Y 1456   4.766   1.881   8.035  0.4835  0.6470  1.2417
   11SAPS  C317 1457   4.777   1.790   8.236 -0.8852  0.8154 -0.0502
   11SAPS  H17X 1458   4.755   1.692   8.283 -0.6315  0.5904 -0.4007
   11SAPS  H17Y 1459   4.700   1.855   8.284  0.5764  1.8535  0.9953
   11SAPS  C318 1460   4.917   1.846   8.274  0.5579  0.1037  0.1316
   11SAPS  H18X 1461   4.923   1.888   8.377  1.5590  1.7540 -0.5493
   11SAPS  H18Y 1462   4.952   1.926   8.205 -1.0400  0.2140 -0.6003
   11SAPS  H18Z 1463   5.000   1.772   8.272  2.5065  2.0249 -4.3934
   12SAPS     N 1464   0.492   3.473   5.857 -0.3709 -0.0270 -0.3193
   12SAPS   HN1 1465   0.446   3.380   5.848 -1.2870  0.1689  1.6992
   12SAPS   HN2 1466   0.496   3.516   5.763  2.1246 -1.2914 -0.8807
   12SAPS   HN3 1467   0.579   3.468   5.913 -2.0068  2.5682  2.7755
   12SAPS   C12 1468   0.399   3.553   5.957  0.2113  0.3374 -0.1280
   12SAPS  H12A 1469   0.440   3.543   6.056 -0.3222 -2.1176 -0.0894
   12SAPS   C13 1470   0.378   3.696   5.929 -0.1710  0.3891 -0.2387
   12SAPS  O13A 1471   0.414   3.742   5.821  0.4869  0.2739  0.0710
   12SAPS  O13B 1472   0.300   3.767   6.004  0.1959 -0.3116  0.6236
   12SAPS   C11 1473   0.256   3.495   5.956  0.1761  0.6095  0.1744
   12SAPS  H11A 1474   0.210   3.529   5.860 -0.5108 -0.4550  0.1104
   12SAPS  H11B 1475   0.198   3.553   6.030  1.3128  0.8414  0.9089
   12SAPS     P 1476   0.138   3.276   6.036  0.3659  0.0225 -0.0002
   12SAPS   O13 1477   0.014   3.308   5.965 -0.6740 -0.4726  0.2745
   12SAPS   O14 1478   0.171   3.130   6.053  0.1723 -0.3326 -0.0192
   12SAPS   O12 1479   0.257   3.351   5.970 -0.0531  0.0226 -0.2409
   12SAPS   O11 1480   0.133   3.341   6.174  0.2113 -0.6440 -0.1146
   12SAPS    C1 1481   0.249   3.336   6.258 -0.2905  0.2019 -0.2777
   12SAPS    HA 1482   0.345   3.294   6.221  0.5927  1.2633  0.7095
   12SAPS    HB 1483   0.275   3.439   6.291 -0.9779  0.6685 -1.1529
   12SAPS    C2 1484   0.225   3.255   6.389  0.1860 -0.4137  0.0061
   12SAPS    HS 1485   0.220   3.147   6.362  0.3146 -0.6313  0.8125
   12SAPS   O21 1486   0.106   3.295   6.460  0.1327 -0.2157 -0.1447
   12SAPS   C21 1487  -0.011   3.233   6.424  0.5593  0.1361 -0.2151
   12SAPS   O22 1488  -0.017   3.129   6.362 -0.3633 -0.2580  0.2740
   12SAPS   C22 1489  -0.125   3.311   6.492 -0.1452  0.1962 -0.5278
   12SAPS   H2R 1490  -0.082   3.352   6.586  0.6425 -0.9928 -0.3555
   12SAPS   H2S 1491  -0.154   3.390   6.419  1.1706  0.2842 -0.9865
   12SAPS    C3 1492   0.343   3.273   6.482 -0.1064 -0.1525 -0.8141
   12SAPS    HX 1493   0.366   3.382   6.491  0.7325 -0.3485 -0.4097
   12SAPS    HY 1494   0.431   3.223   6.436  0.5360 -0.0648  0.2720
   12SAPS   O31 1495   0.322   3.210   6.613 -0.1100  0.3961  0.3364
   12SAPS   C31 1496   0.279   3.274   6.715  0.0014  0.2614  0.6311
   12SAPS   O32 1497   0.269   3.397   6.730  0.8639  0.2365 -0.3459
   12SAPS   C32 1498   0.254   3.169   6.828  0.0468  0.5344  0.1987
   12SAPS   H2X 1499   0.359   3.141   6.853  1.2066  0.8454 -3.7425
   12SAPS   H2Y 1500   0.207   3.082   6.777 -0.5686  1.0530 -0.1321
   12SAPS   C23 1501  -0.248   3.234   6.538  0.2523  0.0856  0.2836
   12SAPS   H3R 1502  -0.286   3.162   6.463  1.7548 -0.7005  0.2269
   12SAPS   H3S 1503  -0.336   3.301   6.549 -0.0358 -0.0868 -0.8209
   12SAPS   C24 1504  -0.224   3.155   6.672  0.2044  0.4567  0.2494
   12SAPS   H4R 1505  -0.315   3.173   6.732  0.7664  1.3256  0.8715
   12SAPS   H4S 1506  -0.151   3.203   6.741  0.0369  0.8250  0.1739
   12SAPS   C25 1507  -0.197   3.002   6.665 -0.3683 -0.3378 -0.2871
   12SAPS   H5R 1508  -0.216   2.962   6.564  1.9182 -2.4235  0.0377
   12SAPS   C26 1509  -0.150   2.922   6.764 -0.3741 -0.1337  0.3989
   12SAPS   H6R 1510  -0.127   2.818   6.737  2.2295  0.8596 -1.6237
   12SAPS   C27 1511  -0.128   2.954   6.908  0.0700 -0.5720 -0.7453
   12SAPS   H7R 1512  -0.166   3.056   6.925  0.2979 -0.4180 -1.1480
   12SAPS   H7S 1513  -0.019   2.948   6.930 -0.1182  0.2191  0.5240
   12SAPS   C28 1514  -0.206   2.855   6.994 -0.0193  1.0581 -0.1028
   12SAPS   H8R 1515  -0.232   2.767   6.932 -2.4839  1.2771  0.5236
   12SAPS   C29 1516  -0.230   2.868   7.129  0.8763 -1.5463  0.1390
   12SAPS   H9R 1517  -0.284   2.792   7.187 -1.5708 -0.0171  0.0148
   12SAPS  C210 1518  -0.186   2.990   7.213 -0.1461 -0.0198  0.1535
   12SAPS  H10R 1519  -0.169   3.075   7.142 -0.6629 -0.8045 -0.9420
   12SAPS  H10S 1520  -0.085   2.964   7.252  0.2317 -2.9410 -2.4155
   12SAPS  C211 1521  -0.285   3.032   7.314 -0.0728 -0.0781  0.5683
   12SAPS  H11R 1522  -0.345   3.121   7.287  1.9404  1.5199  1.1233
   12SAPS  C212 1523  -0.291   2.980   7.435  0.0241 -0.1910  0.3654
   12SAPS  H12R 1524  -0.356   3.032   7.507 -2.2357 -0.0100 -1.6828
   12SAPS  C213 1525  -0.202   2.867   7.497 -0.1369  0.2990 -0.4898
   12SAPS  H13R 1526  -0.094   2.894   7.502  0.5065 -2.1414  4.1072
   12SAPS  H13S 1527  -0.189   2.776   7.435  0.4159 -1.2772  1.8168
   12SAPS  C214 1528  -0.240   2.830   7.636  0.7061  0.0307 -0.3326
   12SAPS  H14R 1529  -0.304   2.741   7.644  0.9992 -0.0809  1.1951
   12SAPS  C215 1530  -0.213   2.895   7.750 -0.5160  0.8733  0.5762
   12SAPS  H15R 1531  -0.230   2.838   7.843 -0.3647  1.1877  0.7963
   12SAPS  C216 1532  -0.136   3.019   7.772 -0.3661  0.2762  0.9324
   12SAPS  H16R 1533  -0.118   3.073   7.677 -2.1880  0.8839  0.9076
   12SAPS  H16S 1534  -0.034   3.002   7.814  0.1821  0.1366 -0.3984
   12SAPS  C217 1535  -0.217   3.125   7.849 -0.1290  0.2322  0.2607
   12SAPS  H17R 1536  -0.312   3.146   7.795 -0.3408 -0.2163  0.4567
   12SAPS  H17S 1537  -0.171   3.226   7.847 -3.3937  1.8877  0.2109
   12SAPS  C218 1538  -0.252   3.084   7.993 -0.5444  0.1835 -0.3039
   12SAPS  H18R 1539  -0.311   2.991   7.979 -2.4152  1.2220  0.3112
   12SAPS  H18S 1540  -0.328   3.160   8.023 -1.3184 -1.0453  0.9938
   12SAPS  C219 1541  -0.136   3.074   8.089 -0.5819 -0.1586 -0.6075
   12SAPS  H19R 1542  -0.177   3.115   8.185 -0.4988 -1.2892 -0.0669
   12SAPS  H19S 1543  -0.043   3.122   8.056 -1.2934 -0.0395 -2.5346
   12SAPS  C220 1544  -0.094   2.928   8.106  0.4258  0.4545  0.0781
   12SAPS  H20R 1545  -0.085   2.884   8.005 -2.1041  1.2509 -0.5697
   12SAPS  H20S 1546  -0.174   2.877   8.163 -0.6105  1.9292  0.0082
   12SAPS  H20T 1547   0.006   2.916   8.152 -0.4832  0.6201  2.2539
   12SAPS   C33 1548   0.167   3.213   6.944  0.8884 -0.4754  0.0850
   12SAPS   H3X 1549   0.117   3.128   6.994  0.1518 -1.1093 -1.6707
   12SAPS   H3Y 1550   0.090   3.276   6.895 -0.1627 -1.3149  0.6289
   12SAPS   C34 1551   0.252   3.292   7.046 -0.9631  0.3395 -0.6174
   12SAPS   H4X 1552   0.185   3.355   7.108 -0.3282  0.0375  0.4155
   12SAPS   H4Y 1553   0.315   3.369   6.996  0.9833 -1.1775 -0.6537
   12SAPS   C35 1554   0.315   3.204   7.155 -0.1518  0.4029  0.8675
   12SAPS   H5X 1555   0.396   3.142   7.111 -0.4128  0.5099  0.2320
   12SAPS   H5Y 1556   0.237   3.128   7.178 -0.6183  0.4247 -0.5778
   12SAPS   C36 1557   0.371   3.275   7.280 -0.0055 -0.3938  0.6364
   12SAPS   H6X 1558   0.414   3.371   7.243  1.7671 -1.2102  0.4834
   12SAPS   H6Y 1559   0.453   3.211   7.319 -0.9507 -2.0616  0.0025
   12SAPS   C37 1560   0.274   3.307   7.390 -0.0222  0.4885 -0.2243
   12SAPS   H7X 1561   0.177   3.337   7.345  0.9174  1.6146 -1.5946
   12SAPS   H7Y 1562   0.311   3.391   7.452 -2.4805 -1.4536  4.3827
   12SAPS   C38 1563   0.263   3.183   7.474  0.2248 -0.0094  0.0420
   12SAPS   H8X 1564   0.363   3.146   7.505 -0.2588 -1.6026 -0.2177
   12SAPS   H8Y 1565   0.224   3.095   7.419 -1.7340 -0.0374  1.3858
   12SAPS   C39 1566   0.165   3.192   7.591  0.4589  0.5227  0.0816
   12SAPS   H9X 1567   0.168   3.094   7.644  2.4909  1.5431  2.0303
   12SAPS   H9Y 1568   0.064   3.226   7.559  0.8576  0.0982 -1.7188
   12SAPS  C310 1569   0.215   3.299   7.688 -0.3915 -1.0629 -0.4551
   12SAPS  H10X 1570   0.201   3.404   7.657  1.6771 -0.5046  0.3429
   12SAPS  H10Y 1571   0.326   3.292   7.682 -0.0596  2.6168 -0.5191
   12SAPS  C311 1572   0.168   3.280   7.829  0.0672 -0.7635 -0.7659
   12SAPS  H11X 1573   0.187   3.187   7.887 -1.1884  0.2375  1.3739
   12SAPS  H11Y 1574   0.060   3.304   7.839  0.2895 -0.3922  1.2321
   12SAPS  C312 1575   0.211   3.401   7.919  0.0112 -0.4717  0.4842
   12SAPS  H12X 1576   0.174   3.497   7.876  0.4680 -0.3402  0.3774
   12SAPS  H12Y 1577   0.319   3.403   7.943  0.2859 -0.1382 -0.7128
   12SAPS  C313 1578   0.149   3.396   8.065 -0.5457 -0.5097  0.7978
   12SAPS  H13X 1579   0.150   3.288   8.087  0.3502 -0.3327  1.6654
   12SAPS  H13Y 1580   0.053   3.452   8.057 -0.6955 -0.8935 -0.2138
   12SAPS  C314 1581   0.216   3.462   8.186  0.5266  0.5121 -0.4603
   12SAPS  H14X 1582   0.242   3.566   8.156  1.5616 -0.0262 -1.5368
   12SAPS  H14Y 1583   0.315   3.412   8.196  1.0620  1.7405  0.7575
   12SAPS  C315 1584   0.126   3.452   8.302  0.4263  0.2300 -0.7795
   12SAPS  H15X 1585   0.021   3.486   8.295 -0.0548  0.4455  3.9297
   12SAPS  H15Y 1586   0.181   3.520   8.370 -0.2490 -1.2919  1.3974
   12SAPS  C316 1587   0.111   3.312   8.352 -0.1003  0.0559  0.2300
   12SAPS  H16X 1588   0.211   3.263   8.342  0.2010  0.6561  0.2323
   12SAPS  H16Y 1589   0.048   3.259   8.279 -0.2264 -1.6064  1.4880
   12SAPS  C317 1590   0.041   3.295   8.489  0.3481  0.2576  0.2009
   12SAPS  H17X 1591  -0.063   3.323   8.462 -0.0134 -2.2989 -1.4259
   12SAPS  H17Y 1592   0.080   3.375   8.556  1.6993 -0.3815  0.2157
   12SAPS  C318 1593   0.046   3.160   8.553 -0.4664 -0.5947  0.9743
   12SAPS  H18X 1594   0.145   3.110   8.541 -0.0986  0.0791  1.1412
   12SAPS  H18Y 1595  -0.043   3.108   8.512 -1.5816  3.1270 -1.9275
   12SAPS  H18Z 1596   0.022   3.163   8.661  0.1790 -1.9013  1.1827
   13SAPS     N 1597   3.552   1.542   5.950 -0.7363  0.1024  0.9094
   13SAPS   HN1 1598   3.512   1.510   5.860 -0.9017 -0.2393  1.1031
   13SAPS   HN2 1599   3.487   1.611   5.993  0.6536  1.4994  0.8924
   13SAPS   HN3 1600   3.634   1.603   5.929 -0.9758  0.2044  0.2594
   13SAPS   C12 1601   3.588   1.430   6.040  0.4350 -0.0680  0.0837
   13SAPS  H12A 1602   3.507   1.389   6.099  0.6258  0.2634  0.5843
   13SAPS   C13 1603   3.626   1.305   5.961  0.2298 -0.0839 -0.5983
   13SAPS  O13A 1604   3.605   1.296   5.835 -0.4391 -0.2982 -0.0411
   13SAPS  O13B 1605   3.664   1.204   6.023 -0.0093  0.0136  0.1823
   13SAPS   C11 1606   3.702   1.486   6.128 -0.2391 -0.2374  0.4906
   13SAPS  H11A 1607   3.719   1.409   6.206 -1.4775 -0.2491  0.7788
   13SAPS  H11B 1608   3.662   1.582   6.168 -1.8402 -0.3946 -0.6142
   13SAPS     P 1609   3.872   1.644   5.999  0.2830  0.0945  0.1744
   13SAPS   O13 1610   4.006   1.633   5.934 -0.0835 -0.4091 -0.2807
   13SAPS   O14 1611   3.759   1.686   5.914  0.4105  0.2057 -0.5294
   13SAPS   O12 1612   3.833   1.505   6.061 -0.0321 -0.3344 -0.3056
   13SAPS   O11 1613   3.883   1.727   6.132  0.4191  0.0795  0.0307
   13SAPS    C1 1614   3.808   1.846   6.149 -0.8014 -0.2807 -0.1164
   13SAPS    HA 1615   3.846   1.925   6.081 -1.3042  0.4630  0.4523
   13SAPS    HB 1616   3.698   1.831   6.137 -1.2742  1.3562  1.6616
   13SAPS    C2 1617   3.842   1.900   6.292  0.1736 -0.1487  0.2344
   13SAPS    HS 1618   3.947   1.875   6.317 -0.3858 -1.7878  1.0595
   13SAPS   O21 1619   3.759   1.832   6.389  0.8290 -0.0093  0.8685
   13SAPS   C21 1620   3.819   1.812   6.506 -0.0875 -0.4817 -0.0934
   13SAPS   O22 1621   3.928   1.855   6.547  0.2953  0.2876 -0.6621
   13SAPS   C22 1622   3.721   1.732   6.592 -0.2405 -0.1928 -0.2426
   13SAPS   H2R 1623   3.620   1.779   6.589 -0.2437 -0.0324  1.4759
   13SAPS   H2S 1624   3.717   1.626   6.559  0.6326 -0.4910  0.5523
   13SAPS    C3 1625   3.822   2.060   6.303 -0.3437  0.0670  0.2601
   13SAPS    HX 1626   3.882   2.106   6.222 -1.3451 -0.4128 -0.7997
   13SAPS    HY 1627   3.864   2.089   6.401  0.1589 -0.9557  0.3587
   13SAPS   O31 1628   3.682   2.095   6.292 -0.0405  0.0544  0.0200
   13SAPS   C31 1629   3.648   2.208   6.232  0.0854  0.8287  0.2154
   13SAPS   O32 1630   3.724   2.302   6.208 -0.6766  0.1328  0.4646
   13SAPS   C32 1631   3.501   2.203   6.201 -0.0737 -1.0991  0.4703
   13SAPS   H2X 1632   3.488   2.122   6.125  2.0489 -1.9637  0.9629
   13SAPS   H2Y 1633   3.492   2.304   6.156 -0.5940 -0.6462  1.5463
   13SAPS   C23 1634   3.760   1.732   6.750  0.2313  0.2629  0.3340
   13SAPS   H3R 1635   3.715   1.825   6.792 -1.5927 -0.1103 -0.7164
   13SAPS   H3S 1636   3.870   1.736   6.770  0.4862 -0.5038 -0.7975
   13SAPS   C24 1637   3.693   1.621   6.814  0.3128  0.0780 -0.2046
   13SAPS   H4R 1638   3.747   1.527   6.790 -1.3544 -1.2973  1.1364
   13SAPS   H4S 1639   3.603   1.580   6.762 -0.6552 -4.3092  4.1962
   13SAPS   C25 1640   3.683   1.634   6.970  0.1638  0.0634 -0.6632
   13SAPS   H5R 1641   3.768   1.676   7.026  1.7665  1.4119 -3.8465
   13SAPS   C26 1642   3.578   1.593   7.048 -0.3434 -0.0226 -0.0868
   13SAPS   H6R 1643   3.589   1.606   7.157 -1.6598 -0.2391  0.0885
   13SAPS   C27 1644   3.461   1.517   6.993 -0.0780 -0.6746 -0.1648
   13SAPS   H7R 1645   3.412   1.474   7.083  0.4861 -2.0250 -0.4628
   13SAPS   H7S 1646   3.491   1.423   6.940  1.3928  0.5758 -1.6694
   13SAPS   C28 1647   3.364   1.601   6.906 -0.1130 -0.7073 -0.5797
   13SAPS   H8R 1648   3.408   1.669   6.832  1.5567  1.0279  1.8447
   13SAPS   C29 1649   3.232   1.614   6.940  0.1462  0.4363  0.6115
   13SAPS   H9R 1650   3.170   1.685   6.882  1.0810  0.0280 -0.9532
   13SAPS  C210 1651   3.163   1.540   7.055 -0.0880 -0.5325 -0.3580
   13SAPS  H10R 1652   3.179   1.433   7.030 -0.7188 -1.0178  1.2239
   13SAPS  H10S 1653   3.053   1.553   7.056 -0.2273 -1.5365  1.5377
   13SAPS  C211 1654   3.204   1.565   7.198  0.3758  0.4636  0.1610
   13SAPS  H11R 1655   3.293   1.628   7.212  1.1029 -0.3305 -0.7754
   13SAPS  C212 1656   3.135   1.514   7.309 -0.6130 -0.2040  0.5419
   13SAPS  H12R 1657   3.171   1.539   7.409  1.7460  3.9838 -1.0823
   13SAPS  C213 1658   3.017   1.427   7.319 -0.7004  0.2577 -0.0767
   13SAPS  H13R 1659   3.052   1.345   7.386 -0.9607 -0.0385 -0.2982
   13SAPS  H13S 1660   2.995   1.386   7.218 -0.8570 -0.4748  0.2478
   13SAPS  C214 1661   2.898   1.483   7.381  0.3630  0.0234  0.0321
   13SAPS  H14R 1662   2.842   1.557   7.323  1.5305 -0.5178 -1.8619
   13SAPS  C215 1663   2.847   1.439   7.501 -0.5776 -0.3313  0.3662
   13SAPS  H15R 1664   2.757   1.494   7.534 -0.1113  1.7201 -1.4700
   13SAPS  C216 1665   2.893   1.322   7.582  0.3031 -0.3724 -0.8603
   13SAPS  H16R 1666   2.952   1.251   7.522  0.0099 -0.1430 -1.4303
   13SAPS  H16S 1667   2.801   1.274   7.622  0.5405 -1.5027 -1.6385
   13SAPS  C217 1668   2.982   1.379   7.691  0.3690  0.3309  0.3490
   13SAPS  H17R 1669   2.933   1.465   7.742 -3.4081 -1.9471  0.8838
   13SAPS  H17S 1670   3.077   1.411   7.643  0.0796 -1.2845 -1.3853
   13SAPS  C218 1671   3.027   1.272   7.794  0.3618 -0.4755  1.2288
   13SAPS  H18R 1672   3.068   1.185   7.738  1.3984  1.2027 -0.7393
   13SAPS  H18S 1673   2.937   1.233   7.846  1.1065 -1.4449  1.8319
   13SAPS  C219 1674   3.119   1.327   7.905 -0.1250 -0.7860  0.3897
   13SAPS  H19R 1675   3.055   1.382   7.977 -1.0024 -1.3801  0.0748
   13SAPS  H19S 1676   3.198   1.388   7.855 -1.1111 -0.1572 -0.4464
   13SAPS  C220 1677   3.196   1.209   7.976 -0.7663  0.4680 -0.0059
   13SAPS  H20R 1678   3.257   1.161   7.896 -0.9692  2.0592 -1.1447
   13SAPS  H20S 1679   3.117   1.143   8.018  0.6514 -0.4595  1.3506
   13SAPS  H20T 1680   3.264   1.238   8.060  1.7364  2.8256 -2.6140
   13SAPS   C33 1681   3.416   2.187   6.324  0.3460 -0.2962 -0.3732
   13SAPS   H3X 1682   3.311   2.216   6.303 -0.6956 -3.9090 -0.9007
   13SAPS   H3Y 1683   3.454   2.247   6.409  1.9269  0.1188 -1.3218
   13SAPS   C34 1684   3.386   2.038   6.370 -0.0509 -0.1956 -0.3375
   13SAPS   H4X 1685   3.488   1.997   6.388  0.1259  0.7942  1.0668
   13SAPS   H4Y 1686   3.340   1.989   6.281 -1.8820 -0.4186  0.6696
   13SAPS   C35 1687   3.298   2.029   6.493 -0.1974 -0.0349 -0.2353
   13SAPS   H5X 1688   3.298   1.921   6.517 -1.4938 -0.2002 -0.8968
   13SAPS   H5Y 1689   3.195   2.065   6.471 -0.7953 -0.2016  2.0248
   13SAPS   C36 1690   3.345   2.095   6.629  0.2456  0.0484 -0.0249
   13SAPS   H6X 1691   3.258   2.084   6.696  0.3243 -0.7110 -0.0406
   13SAPS   H6Y 1692   3.371   2.203   6.618  0.0895 -0.1494 -3.1975
   13SAPS   C37 1693   3.469   2.027   6.685 -0.4400  0.6924 -0.1422
   13SAPS   H7X 1694   3.539   2.098   6.732  1.3121 -1.2016  0.2648
   13SAPS   H7Y 1695   3.518   1.983   6.596 -0.2446 -0.5204  0.5352
   13SAPS   C38 1696   3.430   1.910   6.784  0.3010 -0.1218 -0.0558
   13SAPS   H8X 1697   3.510   1.834   6.775 -0.7110 -1.4197  1.4567
   13SAPS   H8Y 1698   3.330   1.872   6.752  1.1642 -1.6750 -0.9981
   13SAPS   C39 1699   3.412   1.950   6.931 -1.1861  0.2193  0.8488
   13SAPS   H9X 1700   3.376   1.861   6.988  0.4871  1.7146  4.5598
   13SAPS   H9Y 1701   3.332   2.026   6.942 -0.7486  0.9175 -0.6626
   13SAPS  C310 1702   3.541   1.979   7.014  0.8766 -0.3414  0.3723
   13SAPS  H10X 1703   3.585   2.069   6.965 -2.4586  0.6116 -1.1201
   13SAPS  H10Y 1704   3.618   1.899   7.008  1.1507  0.0099 -1.6403
   13SAPS  C311 1705   3.511   1.962   7.166  0.0941 -0.1764 -0.1388
   13SAPS  H11X 1706   3.485   1.855   7.178 -0.1305  0.0001  1.0711
   13SAPS  H11Y 1707   3.422   2.020   7.197  1.6651  1.6810  1.1632
   13SAPS  C312 1708   3.621   2.001   7.260 -0.1093  0.3675  0.0843
   13SAPS  H12X 1709   3.642   2.110   7.264 -0.9095  0.5783 -1.1168
   13SAPS  H12Y 1710   3.722   1.961   7.235  0.0954  2.7825 -3.7609
   13SAPS  C313 1711   3.566   1.966   7.403  0.5638 -1.0199  0.6479
   13SAPS  H13X 1712   3.571   1.856   7.420  1.5648 -0.9780  0.6992
   13SAPS  H13Y 1713   3.466   2.013   7.410  0.9454 -0.0444 -0.2106
   13SAPS  C314 1714   3.664   2.028   7.510  1.2021 -0.1846 -0.4677
   13SAPS  H14X 1715   3.663   2.137   7.493 -0.5105 -0.5492 -3.5103
   13SAPS  H14Y 1716   3.765   1.984   7.496  1.4870 -0.3597  1.7822
   13SAPS  C315 1717   3.613   2.002   7.661 -0.2819 -0.5554  0.4640
   13SAPS  H15X 1718   3.616   1.894   7.685  1.2569 -0.5672  0.3197
   13SAPS  H15Y 1719   3.506   2.034   7.654 -0.3747 -0.8012  0.7864
   13SAPS  C316 1720   3.687   2.084   7.759  0.3507 -0.2574 -0.4518
   13SAPS  H16X 1721   3.691   2.185   7.713  1.7746 -0.3984 -0.6940
   13SAPS  H16Y 1722   3.792   2.047   7.768 -0.0381 -1.9491 -2.2165
   13SAPS  C317 1723   3.618   2.102   7.889  0.1361  0.4425 -1.0354
   13SAPS  H17X 1724   3.598   2.004   7.937 -0.6261  1.7835  1.5446
   13SAPS  H17Y 1725   3.528   2.164   7.867  1.7235  3.3570  0.2193
   13SAPS  C318 1726   3.697   2.183   7.988 -0.2138  0.5041 -0.0079
   13SAPS  H18X 1727   3.759   2.114   8.048  0.1463  1.1752  0.4050
   13SAPS  H18Y 1728   3.627   2.224   8.065 -1.8281  0.2247 -1.2566
   13SAPS  H18Z 1729   3.766   2.247   7.930 -1.9572  1.2614 -1.3524
   14SAPS     N 1730   5.519   3.905   5.843  0.7845  0.2488  0.6400
   14SAPS   HN1 1731   5.462   3.964   5.780  4.7401  2.2862 -1.3362
   14SAPS   HN2 1732   5.476   3.906   5.938  0.1267  0.1550  0.3529
   14SAPS   HN3 1733   5.607   3.960   5.847  1.5936 -1.0536  1.8596
   14SAPS   C12 1734   5.526   3.770   5.785  0.0335  0.2785 -0.2798
   14SAPS  H12A 1735   5.434   3.750   5.732 -0.0403 -2.1540  0.6164
   14SAPS   C13 1736   5.642   3.762   5.681  0.5090 -0.5496  0.2111
   14SAPS  O13A 1737   5.727   3.853   5.662  0.1597 -0.3438 -0.4134
   14SAPS  O13B 1738   5.644   3.649   5.632 -0.2153  0.2686 -0.3947
   14SAPS   C11 1739   5.540   3.661   5.895  0.1007 -0.7002 -0.7013
   14SAPS  H11A 1740   5.644   3.676   5.932  0.8383 -0.4805 -2.7392
   14SAPS  H11B 1741   5.539   3.559   5.852  0.0906 -0.7718 -0.5306
   14SAPS     P 1742   5.309   3.624   6.011  0.0915 -0.1725  0.0798
   14SAPS   O13 1743   5.218   3.728   5.970  0.4613 -0.4869 -0.2117
   14SAPS   O14 1744   5.301   3.502   5.926  0.3298 -0.0923 -0.5692
   14SAPS   O12 1745   5.453   3.682   6.005 -0.3076  0.3392 -0.1921
   14SAPS   O11 1746   5.285   3.580   6.159 -0.1946 -0.6822  0.3050
   14SAPS    C1 1747   5.375   3.492   6.232  0.3697 -0.3702  0.0603
   14SAPS    HA 1748   5.313   3.413   6.279 -1.7446  0.9871 -0.3166
   14SAPS    HB 1749   5.437   3.436   6.158 -0.5753  0.0826 -1.1214
   14SAPS    C2 1750   5.454   3.565   6.346  0.4870  0.3215 -0.3098
   14SAPS    HS 1751   5.502   3.493   6.416  1.1147  0.0329 -1.0206
   14SAPS   O21 1752   5.367   3.655   6.414  0.1964 -0.2306  0.8667
   14SAPS   C21 1753   5.283   3.589   6.490 -0.4247 -0.3114 -0.2210
   14SAPS   O22 1754   5.294   3.474   6.527  0.0581 -0.1255  0.0309
   14SAPS   C22 1755   5.168   3.689   6.523  0.1132  0.0587 -0.1803
   14SAPS   H2R 1756   5.165   3.765   6.442  0.7863  0.1484 -0.1242
   14SAPS   H2S 1757   5.071   3.639   6.545  1.1830 -2.3342 -0.5712
   14SAPS    C3 1758   5.583   3.632   6.290 -0.5829  0.2118 -0.3932
   14SAPS    HX 1759   5.553   3.714   6.221 -2.0319 -2.3229 -3.0247
   14SAPS    HY 1760   5.628   3.553   6.226 -1.2095 -0.6112  0.1544
   14SAPS   O31 1761   5.660   3.670   6.410 -0.1014 -0.4168  0.1187
   14SAPS   C31 1762   5.744   3.578   6.451 -0.5239 -0.9856 -0.8832
   14SAPS   O32 1763   5.784   3.479   6.393  0.0759  0.5714 -0.0782
   14SAPS   C32 1764   5.786   3.627   6.593  0.6070  0.2288  0.9710
   14SAPS   H2X 1765   5.836   3.726   6.585  3.6681 -1.3652 -2.6726
   14SAPS   H2Y 1766   5.866   3.557   6.623  0.1275 -0.2313  1.1974
   14SAPS   C23 1767   5.214   3.769   6.654  0.6693  0.0949  0.4917
   14SAPS   H3R 1768   5.144   3.855   6.651 -0.1358 -0.5603 -1.1113
   14SAPS   H3S 1769   5.311   3.818   6.630 -0.5091  1.6951 -1.2885
   14SAPS   C24 1770   5.201   3.692   6.785  0.5634  0.0222 -0.2994
   14SAPS   H4R 1771   5.206   3.761   6.872 -0.2498 -0.9229  0.5143
   14SAPS   H4S 1772   5.286   3.620   6.783  0.2738 -0.4497  1.8363
   14SAPS   C25 1773   5.071   3.616   6.806 -0.4555  0.2940 -0.2129
   14SAPS   H5R 1774   4.977   3.648   6.758 -1.0878 -0.9662  0.1290
   14SAPS   C26 1775   5.044   3.540   6.918 -0.2367  0.5207  0.7557
   14SAPS   H6R 1776   4.949   3.485   6.927 -0.2764  0.8639  3.1179
   14SAPS   C27 1777   5.140   3.494   7.024 -0.5103  0.9501  0.0771
   14SAPS   H7R 1778   5.226   3.446   6.973 -2.2852 -0.3381 -1.8177
   14SAPS   H7S 1779   5.097   3.416   7.090 -2.0990  1.2545 -0.5543
   14SAPS   C28 1780   5.182   3.601   7.118 -0.0174  0.1227  0.0758
   14SAPS   H8R 1781   5.212   3.693   7.066  0.3411  1.0747  1.9015
   14SAPS   C29 1782   5.193   3.595   7.252 -0.0546  0.8739  0.0799
   14SAPS   H9R 1783   5.224   3.688   7.301 -0.3069  0.3274  1.3105
   14SAPS  C210 1784   5.166   3.470   7.335  1.3290 -0.4659  0.0446
   14SAPS  H10R 1785   5.257   3.453   7.396  0.8831 -0.7899  0.6320
   14SAPS  H10S 1786   5.169   3.371   7.285 -0.7527 -0.6107  0.0876
   14SAPS  C211 1787   5.042   3.479   7.414  0.8217  0.4901  0.3292
   14SAPS  H11R 1788   4.953   3.481   7.351  0.9803  2.6670  0.0998
   14SAPS  C212 1789   5.032   3.490   7.549  0.1374 -0.3028  0.1492
   14SAPS  H12R 1790   4.930   3.488   7.590  0.7247 -0.8475  1.6347
   14SAPS  C213 1791   5.143   3.494   7.650  0.0250 -0.6679 -0.1237
   14SAPS  H13R 1792   5.233   3.523   7.593 -0.7823  0.7335 -0.7433
   14SAPS  H13S 1793   5.173   3.390   7.673  2.3475 -0.1718 -0.7001
   14SAPS  C214 1794   5.123   3.592   7.766  0.0298 -0.4662 -0.0455
   14SAPS  H14R 1795   5.111   3.697   7.738  1.8199  0.2316  1.5824
   14SAPS  C215 1796   5.134   3.559   7.894  0.7264  1.0696 -0.5076
   14SAPS  H15R 1797   5.122   3.636   7.971  0.9130 -1.9543  2.8278
   14SAPS  C216 1798   5.159   3.414   7.946 -0.7518 -0.3835  0.4450
   14SAPS  H16R 1799   5.215   3.428   8.041 -0.6208 -1.2560  0.5041
   14SAPS  H16S 1800   5.229   3.362   7.876 -0.5659  0.9214 -0.3673
   14SAPS  C217 1801   5.033   3.334   7.980  0.5534  1.0510 -0.2203
   14SAPS  H17R 1802   5.076   3.242   8.024  0.6058  1.2714  0.1936
   14SAPS  H17S 1803   4.976   3.298   7.891 -0.4190  0.8081  0.4859
   14SAPS  C218 1804   4.935   3.381   8.090 -0.3906 -0.2973 -0.0941
   14SAPS  H18R 1805   4.881   3.476   8.072  0.5471  0.9973  3.1706
   14SAPS  H18S 1806   5.004   3.406   8.173  0.4352 -0.1568 -0.8064
   14SAPS  C219 1807   4.831   3.276   8.122  0.0509  0.3989 -0.2539
   14SAPS  H19R 1808   4.870   3.172   8.115  1.2905  0.8187  0.0117
   14SAPS  H19S 1809   4.754   3.283   8.042  1.2933 -0.8351 -1.6131
   14SAPS  C220 1810   4.759   3.294   8.254  0.6390 -0.4307 -0.1271
   14SAPS  H20R 1811   4.682   3.215   8.265  1.0867 -0.6658  1.7544
   14SAPS  H20S 1812   4.697   3.387   8.249  1.0175 -0.1701 -0.0278
   14SAPS  H20T 1813   4.827   3.305   8.341 -0.4055 -1.1286  0.8016
   14SAPS   C33 1814   5.675   3.622   6.698 -0.0871 -0.5038 -0.5734
   14SAPS   H3X 1815   5.578   3.602   6.647 -0.8013  2.9288 -0.8130
   14SAPS   H3Y 1816   5.658   3.728   6.725  2.8176  0.0828 -0.7019
   14SAPS   C34 1817   5.706   3.542   6.829 -0.7556 -0.0538  0.0429
   14SAPS   H4X 1818   5.797   3.583   6.877  1.0786 -1.7541 -1.7820
   14SAPS   H4Y 1819   5.722   3.434   6.811  1.0970  0.1177  0.4810
   14SAPS   C35 1820   5.600   3.545   6.940  0.4671  0.0194  0.3286
   14SAPS   H5X 1821   5.497   3.521   6.907 -0.2512  2.2644  0.7199
   14SAPS   H5Y 1822   5.595   3.653   6.968 -0.1741  0.4108 -1.2085
   14SAPS   C36 1823   5.632   3.465   7.070  0.4832 -0.4127  0.6812
   14SAPS   H6X 1824   5.743   3.462   7.079  0.3859 -2.4932  2.2063
   14SAPS   H6Y 1825   5.613   3.360   7.037  0.9929  0.0568 -1.2349
   14SAPS   C37 1826   5.560   3.516   7.195 -0.5460 -0.1857  0.4594
   14SAPS   H7X 1827   5.451   3.520   7.178 -0.5509 -2.1399 -0.1951
   14SAPS   H7Y 1828   5.590   3.620   7.218  2.3904 -0.2630 -2.2288
   14SAPS   C38 1829   5.592   3.427   7.316 -0.8084  0.4096  0.5953
   14SAPS   H8X 1830   5.701   3.404   7.310 -1.2907 -2.3521  0.7806
   14SAPS   H8Y 1831   5.544   3.327   7.310  0.9229 -0.3918 -0.7633
   14SAPS   C39 1832   5.558   3.483   7.457 -0.1266  0.3752 -0.0945
   14SAPS   H9X 1833   5.463   3.541   7.459  1.6801  3.5622  1.4188
   14SAPS   H9Y 1834   5.630   3.561   7.490  0.6893  0.1055 -1.1753
   14SAPS  C310 1835   5.525   3.377   7.571  0.0611  0.2385  0.2112
   14SAPS  H10X 1836   5.591   3.288   7.562 -0.7761 -0.2814 -1.1078
   14SAPS  H10Y 1837   5.423   3.333   7.559  1.2284 -2.1656 -1.8859
   14SAPS  C311 1838   5.541   3.444   7.706  0.0601  0.5195 -0.6742
   14SAPS  H11X 1839   5.468   3.525   7.728  1.0653  0.4467  3.8411
   14SAPS  H11Y 1840   5.636   3.500   7.719 -0.3702  0.7024  2.5802
   14SAPS  C312 1841   5.529   3.332   7.810 -0.4765 -0.8272  0.2507
   14SAPS  H12X 1842   5.598   3.250   7.782  0.3112 -1.0733  2.6802
   14SAPS  H12Y 1843   5.424   3.298   7.822 -0.3788 -0.7779  1.2864
   14SAPS  C313 1844   5.568   3.371   7.952 -0.0589  0.0161 -0.2314
   14SAPS  H13X 1845   5.678   3.385   7.961 -0.3188  3.2621 -0.7179
   14SAPS  H13Y 1846   5.555   3.295   8.032 -3.4281 -0.5680 -1.1835
   14SAPS  C314 1847   5.507   3.497   8.017 -0.0450  0.0144  0.3730
   14SAPS  H14X 1848   5.467   3.468   8.117  0.4512 -0.8860  0.3143
   14SAPS  H14Y 1849   5.422   3.527   7.952  0.0551 -2.3295 -0.9368
   14SAPS  C315 1850   5.597   3.620   8.026 -0.0010  0.3110 -0.4978
   14SAPS  H15X 1851   5.636   3.639   7.924 -0.2877 -2.0899 -1.1263
   14SAPS  H15Y 1852   5.688   3.602   8.087  0.7097 -3.0353 -2.2766
   14SAPS  C316 1853   5.510   3.743   8.062 -0.0249  0.5934 -0.8470
   14SAPS  H16X 1854   5.418   3.751   8.001 -0.5948  0.4705 -0.0159
   14SAPS  H16Y 1855   5.574   3.830   8.036 -1.7648  1.6721 -1.6715
   14SAPS  C317 1856   5.463   3.754   8.199 -0.1403 -0.0028 -0.2377
   14SAPS  H17X 1857   5.406   3.661   8.222 -0.2135 -0.1348 -0.9313
   14SAPS  H17Y 1858   5.388   3.834   8.218  0.8438  0.4061  2.3461
   14SAPS  C318 1859   5.574   3.766   8.300 -0.2885 -0.4573  0.3807
   14SAPS  H18X 1860   5.651   3.686   8.295 -0.6692 -0.8195  0.3186
   14SAPS  H18Y 1861   5.545   3.798   8.402 -1.3116 -1.6943  0.4958
   14SAPS  H18Z 1862   5.625   3.859   8.266 -1.9702  1.1301  2.0226
   15SAPS     N 1863   6.045   1.489   5.472 -0.1433  0.0284  0.3559
   15SAPS   HN1 1864   6.020   1.564   5.404 -1.9144  0.9880  1.9607
   15SAPS   HN2 1865   6.147   1.502   5.486  0.1868  0.2831 -1.9998
   15SAPS   HN3 1866   6.028   1.398   5.425 -1.7210  0.3625  0.2244
   15SAPS   C12 1867   5.948   1.506   5.580 -0.2982  0.3485  0.0704
   15SAPS  H12A 1868   5.932   1.610   5.604 -3.3240  0.2362 -1.0875
   15SAPS   C13 1869   5.809   1.454   5.541  0.3234 -0.2275 -0.0448
   15SAPS  O13A 1870   5.788   1.423   5.420  0.3369 -0.0345  0.7291
   15SAPS  O13B 1871   5.714   1.461   5.622 -0.0261 -0.3092 -0.1678
   15SAPS   C11 1872   6.001   1.438   5.711  0.4752  0.3911 -0.1965
   15SAPS  H11A 1873   6.007   1.328   5.694  0.8438  0.2256  0.9389
   15SAPS  H11B 1874   5.919   1.465   5.781  0.8011 -0.0516  0.3680
   15SAPS     P 1875   6.196   1.488   5.876 -0.4069  0.3597  0.0977
   15SAPS   O13 1876   6.265   1.355   5.888  0.3721 -0.5348  0.0171
   15SAPS   O14 1877   6.271   1.615   5.900  0.6365 -0.4205  0.3829
   15SAPS   O12 1878   6.128   1.497   5.740 -0.1537 -0.3114  0.8347
   15SAPS   O11 1879   6.075   1.494   5.969  0.0071  0.0596 -0.5609
   15SAPS    C1 1880   6.017   1.375   6.027  0.1540  0.1202  0.3133
   15SAPS    HA 1881   5.917   1.357   5.983 -0.5430  1.7279  1.1321
   15SAPS    HB 1882   6.082   1.286   6.014  0.5511  0.4164  0.2578
   15SAPS    C2 1883   6.008   1.400   6.180 -0.8272  0.7255  0.0844
   15SAPS    HS 1884   5.990   1.504   6.217  0.4378  1.3851 -1.0706
   15SAPS   O21 1885   6.135   1.341   6.224  0.0849  0.0949 -0.0142
   15SAPS   C21 1886   6.229   1.421   6.258 -0.6813 -0.1303 -0.1089
   15SAPS   O22 1887   6.239   1.538   6.241 -0.1304 -0.0620  0.1423
   15SAPS   C22 1888   6.340   1.332   6.315 -0.1420  0.3383 -0.4376
   15SAPS   H2R 1889   6.297   1.232   6.333 -0.9592  0.0884 -3.3248
   15SAPS   H2S 1890   6.421   1.321   6.239 -1.7096 -2.3854 -1.8326
   15SAPS    C3 1891   5.895   1.312   6.239  0.0052 -0.2658 -1.3698
   15SAPS    HX 1892   5.905   1.207   6.204  1.4933 -1.1933  1.5226
   15SAPS    HY 1893   5.795   1.347   6.205 -0.7982  2.0769  2.7036
   15SAPS   O31 1894   5.891   1.311   6.383 -0.1413 -0.3318  0.1835
   15SAPS   C31 1895   5.852   1.427   6.444  0.4828 -0.2545  0.8668
   15SAPS   O32 1896   5.813   1.529   6.387 -0.6979 -0.3741 -0.1103
   15SAPS   C32 1897   5.840   1.403   6.598 -0.0951  0.6704  0.1143
   15SAPS   H2X 1898   5.905   1.316   6.624  1.3387  0.8250 -2.4998
   15SAPS   H2Y 1899   5.737   1.376   6.629  0.4573 -1.6278  0.1515
   15SAPS   C23 1900   6.387   1.397   6.448 -0.2456 -0.6009  1.2439
   15SAPS   H3R 1901   6.441   1.494   6.435  0.4081 -0.8730  1.8702
   15SAPS   H3S 1902   6.467   1.333   6.490  3.1019  1.7151 -1.0406
   15SAPS   C24 1903   6.289   1.422   6.561 -0.1623  0.1335  0.6310
   15SAPS   H4R 1904   6.202   1.474   6.514  0.5895 -0.1040 -1.1036
   15SAPS   H4S 1905   6.339   1.485   6.638  0.6686  0.2762 -0.0183
   15SAPS   C25 1906   6.230   1.300   6.608 -0.3434  0.3514 -0.1620
   15SAPS   H5R 1907   6.202   1.229   6.529  0.3288 -0.5138  0.3486
   15SAPS   C26 1908   6.221   1.256   6.736  0.2033  0.6619 -0.2925
   15SAPS   H6R 1909   6.181   1.154   6.738  2.5139 -0.2938  0.2208
   15SAPS   C27 1910   6.271   1.326   6.865  0.5657  0.1588 -0.2493
   15SAPS   H7R 1911   6.248   1.433   6.848  3.4371  0.8850 -0.0607
   15SAPS   H7S 1912   6.382   1.334   6.860  0.5734  0.5999  0.4114
   15SAPS   C28 1913   6.233   1.280   6.998 -0.3848  0.0270 -0.1501
   15SAPS   H8R 1914   6.178   1.185   7.007 -1.3590  0.2795 -2.7111
   15SAPS   C29 1915   6.276   1.349   7.109  0.6588  0.3761 -0.4716
   15SAPS   H9R 1916   6.247   1.319   7.210 -1.5480 -0.3829 -1.2783
   15SAPS  C210 1917   6.353   1.473   7.112  0.5675 -0.8670 -0.6860
   15SAPS  H10R 1918   6.320   1.539   7.196  0.1994 -3.0100  0.9557
   15SAPS  H10S 1919   6.336   1.531   7.019  1.3407  1.1887  0.3857
   15SAPS  C211 1920   6.504   1.457   7.129  0.5942  0.3721 -0.5367
   15SAPS  H11R 1921   6.552   1.411   7.042  1.3525 -0.8921  0.5243
   15SAPS  C212 1922   6.580   1.498   7.233  0.4305 -0.3931  0.9320
   15SAPS  H12R 1923   6.681   1.458   7.248  0.2179 -1.1177  0.4653
   15SAPS  C213 1924   6.519   1.570   7.358 -0.0636  0.4599  0.6267
   15SAPS  H13R 1925   6.455   1.500   7.416  1.7277 -0.6106  1.3797
   15SAPS  H13S 1926   6.451   1.650   7.320 -0.5814 -0.0931  0.3615
   15SAPS  C214 1927   6.627   1.619   7.451  0.1381 -0.4788  0.3049
   15SAPS  H14R 1928   6.724   1.567   7.448 -0.4410 -1.6428 -2.8357
   15SAPS  C215 1929   6.609   1.711   7.548 -0.1193  0.5248 -0.7562
   15SAPS  H15R 1930   6.680   1.739   7.627 -3.4140  1.2182  2.2259
   15SAPS  C216 1931   6.482   1.789   7.577  0.2034  0.5399  0.3546
   15SAPS  H16R 1932   6.409   1.787   7.493  0.3353 -1.6089  0.2231
   15SAPS  H16S 1933   6.506   1.891   7.614 -0.7444  1.2172 -0.8217
   15SAPS  C217 1934   6.396   1.717   7.684 -0.1447  0.0627  0.7778
   15SAPS  H17R 1935   6.396   1.607   7.667 -0.6067  0.2603 -0.6681
   15SAPS  H17S 1936   6.289   1.743   7.674 -0.6371 -2.0482  0.0914
   15SAPS  C218 1937   6.421   1.732   7.835  0.3972  0.0539 -0.5324
   15SAPS  H18R 1938   6.417   1.840   7.859 -3.5407 -0.0722  0.0444
   15SAPS  H18S 1939   6.526   1.702   7.852  0.7099  0.4212 -1.6863
   15SAPS  C219 1940   6.321   1.652   7.918 -0.1653  0.3321 -0.1632
   15SAPS  H19R 1941   6.331   1.545   7.889  0.6251  0.1325  0.8033
   15SAPS  H19S 1942   6.218   1.676   7.884  0.7861  0.1899 -3.5271
   15SAPS  C220 1943   6.319   1.635   8.072 -0.2919  0.2402  0.3603
   15SAPS  H20R 1944   6.266   1.543   8.103  0.2383  0.2853  1.4623
   15SAPS  H20S 1945   6.273   1.726   8.118 -2.0810 -1.1283  1.3975
   15SAPS  H20T 1946   6.419   1.628   8.120 -0.0428  0.2079 -0.1560
   15SAPS   C33 1947   5.893   1.506   6.689  0.5700 -0.3318  0.0964
   15SAPS   H3X 1948   5.843   1.604   6.674  1.2700 -0.1627 -1.2489
   15SAPS   H3Y 1949   6.003   1.522   6.684  0.6464  0.0288  2.0449
   15SAPS   C34 1950   5.872   1.455   6.827  0.0249 -0.7976 -0.3849
   15SAPS   H4X 1951   5.896   1.348   6.840  0.7929 -0.6653 -0.6309
   15SAPS   H4Y 1952   5.763   1.473   6.842 -0.2497 -2.5489 -0.1424
   15SAPS   C35 1953   5.941   1.555   6.934  0.0923  0.2082  0.2843
   15SAPS   H5X 1954   5.946   1.662   6.906  0.5285 -0.0027 -0.4801
   15SAPS   H5Y 1955   6.045   1.517   6.932  0.1939  0.4808  0.2763
   15SAPS   C36 1956   5.887   1.531   7.076  0.1544  0.6865 -0.1013
   15SAPS   H6X 1957   5.905   1.426   7.106 -0.0879  1.4054  2.8773
   15SAPS   H6Y 1958   5.776   1.538   7.076 -0.0301 -1.4402 -1.7111
   15SAPS   C37 1959   5.962   1.624   7.171 -0.3053 -0.7525 -0.1717
   15SAPS   H7X 1960   5.931   1.725   7.139  0.9380 -0.4754 -0.5607
   15SAPS   H7Y 1961   6.071   1.602   7.169 -0.2860 -1.1172  2.0759
   15SAPS   C38 1962   5.906   1.611   7.318 -0.1632 -0.1367 -0.4208
   15SAPS   H8X 1963   5.909   1.511   7.366  1.0066  0.7314  1.4235
   15SAPS   H8Y 1964   5.799   1.638   7.303  0.1045  0.0517 -2.1902
   15SAPS   C39 1965   5.964   1.711   7.422 -0.2709  0.1297  0.3234
   15SAPS   H9X 1966   5.964   1.818   7.390 -0.5690 -0.0564 -0.3171
   15SAPS   H9Y 1967   6.065   1.681   7.455  0.3609  0.8574 -0.8559
   15SAPS  C310 1968   5.881   1.714   7.554  0.7049  0.0811  0.9505
   15SAPS  H10X 1969   5.829   1.618   7.573 -1.8858  1.6149  2.1670
   15SAPS  H10Y 1970   5.804   1.794   7.552  1.1891  0.5646  1.1984
   15SAPS  C311 1971   5.976   1.745   7.667 -0.2362 -0.2461 -0.3117
   15SAPS  H11X 1972   6.024   1.839   7.635 -2.4230  1.4562  1.1411
   15SAPS  H11Y 1973   6.053   1.665   7.669 -0.6260 -0.6380 -0.6703
   15SAPS  C312 1974   5.920   1.774   7.803 -0.8163  0.4722 -0.2599
   15SAPS  H12X 1975   5.838   1.847   7.790 -0.7360  0.5619 -0.2651
   15SAPS  H12Y 1976   5.996   1.826   7.866  0.4799  3.0358 -3.6651
   15SAPS  C313 1977   5.861   1.655   7.884  0.0490  0.1635  0.2268
   15SAPS  H13X 1978   5.945   1.587   7.905 -0.8166 -0.7229  0.9291
   15SAPS  H13Y 1979   5.781   1.607   7.822 -1.9806  0.7562  2.2712
   15SAPS  C314 1980   5.783   1.708   8.006 -0.2919  0.0638 -0.4045
   15SAPS  H14X 1981   5.708   1.787   7.987 -2.4515 -1.5940  0.8143
   15SAPS  H14Y 1982   5.861   1.758   8.068 -0.2721 -0.9304  0.4025
   15SAPS  C315 1983   5.712   1.593   8.086 -0.2358 -0.1212 -0.0521
   15SAPS  H15X 1984   5.781   1.505   8.082  0.9598  0.8218 -1.0510
   15SAPS  H15Y 1985   5.622   1.559   8.030 -0.8184 -1.1521  1.4294
   15SAPS  C316 1986   5.663   1.639   8.220  0.4228 -0.2619 -0.6936
   15SAPS  H16X 1987   5.583   1.575   8.262  1.0586 -1.0480 -0.6614
   15SAPS  H16Y 1988   5.609   1.734   8.199  3.7625  1.8902 -0.3936
   15SAPS  C317 1989   5.771   1.655   8.337  0.1440 -0.0588  0.0527
   15SAPS  H17X 1990   5.811   1.757   8.322 -2.2917  0.8179 -0.9897
   15SAPS  H17Y 1991   5.852   1.582   8.318  1.7113  2.0931 -1.9976
   15SAPS  C318 1992   5.710   1.642   8.477  0.2073  0.4294 -0.2573
   15SAPS  H18X 1993   5.631   1.719   8.489 -0.6761 -0.7228  1.9402
   15SAPS  H18Y 1994   5.783   1.653   8.560 -1.3432  0.4135  1.1564
   15SAPS  H18Z 1995   5.665   1.543   8.500 -1.7146  1.3695  0.2465
   16SAPS     N 1996   6.144   1.783   6.113  0.1086 -0.6227  0.3748
   16SAPS   HN1 1997   6.068   1.800   6.182 -0.1862 -0.3079 -0.0223
   16SAPS   HN2 1998   6.095   1.730   6.038  1.8494  0.0056 -1.2915
   16SAPS   HN3 1999   6.204   1.709   6.156 -0.5814 -0.9926  0.7279
   16SAPS   C12 2000   6.221   1.903   6.071 -0.1803  0.1801  0.1275
   16SAPS  H12A 2001   6.293   1.876   5.996  1.8779  0.6257  1.8607
   16SAPS   C13 2002   6.138   2.016   6.003  0.1877 -0.1593  0.1007
   16SAPS  O13A 2003   6.012   1.996   5.998 -0.0576 -0.2300 -0.0036
   16SAPS  O13B 2004   6.202   2.118   5.962 -0.3416  0.5246 -0.4704
   16SAPS   C11 2005   6.311   1.954   6.192  0.7446 -0.5666  0.6107
   16SAPS  H11A 2006   6.238   1.977   6.273  0.0520 -0.9436  0.1054
   16SAPS  H11B 2007   6.363   2.046   6.158  0.2612  0.0445  1.4661
   16SAPS     P 2008   6.519   1.905   6.332  0.2522  0.1341  0.0376
   16SAPS   O13 2009   6.626   1.804   6.351 -1.1890  0.4358  0.0129
   16SAPS   O14 2010   6.570   2.042   6.296  0.1959 -0.3062  0.4866
   16SAPS   O12 2011   6.403   1.852   6.234 -0.2125 -0.2999 -0.5216
   16SAPS   O11 2012   6.430   1.919   6.463  0.4677 -0.7790 -0.0334
   16SAPS    C1 2013   6.370   1.799   6.508  0.0845 -0.0005  0.3694
   16SAPS    HA 2014   6.276   1.776   6.454  0.2563 -2.8740  1.1312
   16SAPS    HB 2015   6.429   1.705   6.499  0.0077 -0.1006  0.8585
   16SAPS    C2 2016   6.344   1.822   6.660 -0.1168  0.9557  0.5715
   16SAPS    HS 2017   6.317   1.721   6.699 -5.4246  2.0300  0.4535
   16SAPS   O21 2018   6.235   1.910   6.692  0.1004 -0.1856  0.1206
   16SAPS   C21 2019   6.121   1.855   6.650  0.9591 -0.2791 -0.0161
   16SAPS   O22 2020   6.100   1.748   6.604  0.0001 -0.1578 -0.3617
   16SAPS   C22 2021   6.012   1.966   6.664  0.5602  0.2605  0.0300
   16SAPS   H2R 2022   6.044   2.072   6.662 -1.9006  1.1639  2.8498
   16SAPS   H2S 2023   5.950   1.953   6.572  0.2915 -1.5765  0.4267
   16SAPS    C3 2024   6.474   1.864   6.736 -0.6641 -0.3171 -0.0674
   16SAPS    HX 2025   6.501   1.963   6.695 -1.4052 -0.5491 -1.1634
   16SAPS    HY 2026   6.554   1.793   6.707 -1.2233 -1.4688  1.0832
   16SAPS   O31 2027   6.458   1.860   6.877  0.5984 -0.3324 -0.5408
   16SAPS   C31 2028   6.417   1.971   6.942 -0.7584  1.0825  0.1845
   16SAPS   O32 2029   6.392   2.075   6.883  0.1849  0.3035  0.8249
   16SAPS   C32 2030   6.424   1.941   7.091  0.4191  0.2378 -0.1252
   16SAPS   H2X 2031   6.500   1.864   7.117  1.4401  1.2853  0.0430
   16SAPS   H2Y 2032   6.329   1.895   7.126  0.3822  0.9051  0.6822
   16SAPS   C23 2033   5.930   1.941   6.799 -0.1556  0.0415 -0.1529
   16SAPS   H3R 2034   5.885   1.840   6.805 -2.2428  0.8148 -1.3184
   16SAPS   H3S 2035   5.847   2.015   6.790 -1.9092 -1.8628 -0.3224
   16SAPS   C24 2036   6.016   1.974   6.931  0.1289 -0.3191  0.6180
   16SAPS   H4R 2037   6.100   1.901   6.934  0.2875 -0.3848 -2.4714
   16SAPS   H4S 2038   5.955   1.948   7.020  0.0882 -1.4900  0.2663
   16SAPS   C25 2039   6.067   2.118   6.924 -0.3627 -0.7232 -0.7064
   16SAPS   H5R 2040   6.161   2.137   6.869  0.2692 -0.6101  0.3756
   16SAPS   C26 2041   6.011   2.229   6.982 -0.8200  0.0876 -0.4690
   16SAPS   H6R 2042   6.066   2.324   6.975 -0.2073 -0.2161  0.1816
   16SAPS   C27 2043   5.892   2.242   7.076 -0.6327  0.6549 -0.2797
   16SAPS   H7R 2044   5.925   2.302   7.164  0.3334  0.0022 -0.1847
   16SAPS   H7S 2045   5.870   2.141   7.117  2.3402  0.4682  1.1755
   16SAPS   C28 2046   5.770   2.290   7.006  0.1983  0.1790 -0.3001
   16SAPS   H8R 2047   5.760   2.262   6.900  0.3673  1.5049 -0.6879
   16SAPS   C29 2048   5.668   2.337   7.067 -0.2028  0.1905 -0.0802
   16SAPS   H9R 2049   5.580   2.366   7.007 -2.0238 -0.3641  2.1699
   16SAPS  C210 2050   5.638   2.356   7.216 -0.4965  0.0939  0.2778
   16SAPS  H10R 2051   5.725   2.342   7.284  0.2925  0.6004 -0.6151
   16SAPS  H10S 2052   5.563   2.279   7.246  0.6089 -0.8033  0.7855
   16SAPS  C211 2053   5.563   2.486   7.232 -0.4037  0.8410 -0.0173
   16SAPS  H11R 2054   5.571   2.550   7.143 -0.3157  0.7233 -0.0948
   16SAPS  C212 2055   5.501   2.538   7.344  0.0056 -0.4099 -0.1497
   16SAPS  H12R 2056   5.456   2.638   7.330 -0.4457 -0.6940 -0.7750
   16SAPS  C213 2057   5.483   2.474   7.479 -0.5607  0.1752 -0.2395
   16SAPS  H13R 2058   5.560   2.527   7.539  0.9976 -0.6829 -1.4278
   16SAPS  H13S 2059   5.511   2.367   7.480 -0.3583  0.2199  0.9158
   16SAPS  C214 2060   5.345   2.482   7.531  0.7566  0.3375 -0.4246
   16SAPS  H14R 2061   5.271   2.442   7.460  1.0472  0.3005 -0.7086
   16SAPS  C215 2062   5.307   2.515   7.662 -0.4064  0.1500 -0.2859
   16SAPS  H15R 2063   5.202   2.507   7.693 -0.3590  1.5158  0.2997
   16SAPS  C216 2064   5.399   2.549   7.786  0.0843  0.2830 -0.1383
   16SAPS  H16R 2065   5.349   2.625   7.850  0.5522  0.4098  0.0734
   16SAPS  H16S 2066   5.492   2.600   7.756 -1.3132  3.4190  0.4528
   16SAPS  C217 2067   5.420   2.418   7.868 -0.0239 -0.0989 -0.2084
   16SAPS  H17R 2068   5.493   2.363   7.805 -0.8109 -0.3191 -0.9592
   16SAPS  H17S 2069   5.319   2.374   7.883 -0.9505  2.0945  0.4349
   16SAPS  C218 2070   5.482   2.443   8.007 -0.0062  0.2781  0.0312
   16SAPS  H18R 2071   5.425   2.529   8.048  0.2160  0.6104 -0.3392
   16SAPS  H18S 2072   5.587   2.474   7.988  0.2329 -0.6693 -0.2262
   16SAPS  C219 2073   5.482   2.315   8.084  0.0279  0.2896 -0.1138
   16SAPS  H19R 2074   5.382   2.267   8.093 -0.8280  1.7896 -1.2399
   16SAPS  H19S 2075   5.510   2.335   8.190  0.8183 -1.9037  0.1399
   16SAPS  C220 2076   5.576   2.210   8.020  0.5505 -0.2859 -0.2765
   16SAPS  H20R 2077   5.592   2.117   8.078  1.3260  1.5680  2.7553
   16SAPS  H20S 2078   5.678   2.252   8.008  1.4509 -2.5453 -1.0202
   16SAPS  H20T 2079   5.535   2.181   7.921 -1.6676 -1.2507  0.8499
   16SAPS   C33 2080   6.471   2.060   7.174 -0.0999 -0.4162 -0.5623
   16SAPS   H3X 2081   6.425   2.159   7.153 -2.2750 -1.2585 -0.0095
   16SAPS   H3Y 2082   6.581   2.080   7.178 -0.2204  0.0449  0.7685
   16SAPS   C34 2083   6.450   2.038   7.324  0.8202  0.2022  0.3267
   16SAPS   H4X 2084   6.479   2.129   7.380  2.6764 -0.8518  1.1639
   16SAPS   H4Y 2085   6.522   1.957   7.350 -1.2756 -3.0319 -2.9181
   16SAPS   C35 2086   6.300   2.000   7.367  0.4702  0.6608  0.3574
   16SAPS   H5X 2087   6.307   1.987   7.477  1.8418 -0.3333  0.1830
   16SAPS   H5Y 2088   6.266   1.907   7.317  0.5286  2.1396 -2.6961
   16SAPS   C36 2089   6.193   2.102   7.333 -0.1274 -0.0841  0.7861
   16SAPS   H6X 2090   6.174   2.078   7.226 -0.9886  1.6507  0.5091
   16SAPS   H6Y 2091   6.230   2.207   7.336 -5.8153  2.4474 -1.9536
   16SAPS   C37 2092   6.066   2.095   7.418  0.0841 -0.9911  0.3538
   16SAPS   H7X 2093   6.079   2.042   7.515 -0.9694  0.6987  1.4641
   16SAPS   H7Y 2094   5.989   2.043   7.357 -0.5982 -1.9513  1.9674
   16SAPS   C38 2095   5.994   2.231   7.454 -0.5697  0.2022 -0.4330
   16SAPS   H8X 2096   5.940   2.275   7.367 -2.0935  0.8656  0.7831
   16SAPS   H8Y 2097   6.069   2.302   7.493  0.5946 -2.6532  3.1778
   16SAPS   C39 2098   5.896   2.215   7.570  0.1662  0.7280  0.1487
   16SAPS   H9X 2099   5.940   2.158   7.655  0.1491 -0.2852 -0.5106
   16SAPS   H9Y 2100   5.821   2.146   7.527  0.5889  1.2696 -1.5585
   16SAPS  C310 2101   5.809   2.341   7.609  0.3960  0.3120  0.6135
   16SAPS  H10X 2102   5.717   2.298   7.655  0.5970 -1.9227 -0.9003
   16SAPS  H10Y 2103   5.777   2.389   7.514 -0.3187  0.0967  0.7363
   16SAPS  C311 2104   5.869   2.443   7.702 -0.7661 -0.1509 -0.6520
   16SAPS  H11X 2105   5.793   2.516   7.736  0.5590  1.6377 -1.4101
   16SAPS  H11Y 2106   5.958   2.491   7.657 -1.1658  1.9345  0.6947
   16SAPS  C312 2107   5.902   2.388   7.846  0.0845  0.1947  0.3956
   16SAPS  H12X 2108   5.988   2.319   7.835  0.9071  1.1017  0.9017
   16SAPS  H12Y 2109   5.814   2.332   7.885 -0.1695  0.6090  0.4317
   16SAPS  C313 2110   5.963   2.497   7.942  0.2805 -0.3830 -0.1136
   16SAPS  H13X 2111   5.894   2.581   7.966  1.7089  0.9559 -0.5343
   16SAPS  H13Y 2112   6.049   2.539   7.885 -0.2936 -0.1465 -0.8199
   16SAPS  C314 2113   6.014   2.449   8.082 -0.1981 -0.1815 -0.3665
   16SAPS  H14X 2114   6.090   2.369   8.066  1.5569  0.7301  2.5496
   16SAPS  H14Y 2115   5.927   2.410   8.139  0.0690 -0.4222 -0.1211
   16SAPS  C315 2116   6.083   2.563   8.160 -0.5474 -0.1043 -0.4385
   16SAPS  H15X 2117   6.128   2.519   8.251 -0.9652  1.8464  0.7692
   16SAPS  H15Y 2118   6.009   2.636   8.200 -1.2846 -1.1276  0.0903
   16SAPS  C316 2119   6.194   2.632   8.084 -0.3948  0.3316  0.9026
   16SAPS  H16X 2120   6.153   2.686   7.995 -3.1786  0.2084  2.0094
   16SAPS  H16Y 2121   6.273   2.558   8.060 -2.6613 -1.5114 -1.3898
   16SAPS  C317 2122   6.254   2.744   8.173 -0.8118  0.7599 -0.4071
   16SAPS  H17X 2123   6.278   2.691   8.267 -1.1781  1.1997 -0.0622
   16SAPS  H17Y 2124   6.179   2.824   8.192 -2.0881 -0.7195  1.0347
   16SAPS  C318 2125   6.379   2.809   8.113  0.4887 -0.0083 -0.1792
   16SAPS  H18X 2126   6.472   2.770   8.158  0.2713 -0.9198 -0.4859
   16SAPS  H18Y 2127   6.369   2.917   8.138 -1.9736  0.2821 -2.0009
   16SAPS  H18Z 2128   6.387   2.787   8.004  0.6334 -0.5391 -0.0651
   17SAPC     N 2129   6.705   1.954  10.686 -0.3712 -0.1487  0.0048
   17SAPC   C12 2130   6.830   1.923  10.603 -0.1078  0.8754  0.3074
   17SAPC  H12A 2131   6.858   1.820  10.621  0.1523  0.7779 -0.5936
   17SAPC  H12B 2132   6.915   1.969  10.652  2.0610 -1.4999 -0.9791
   17SAPC   C13 2133   6.658   2.097  10.656 -0.8387 -0.3262 -0.5149
   17SAPC  H13A 2134   6.739   2.167  10.667 -0.5973 -0.6944  0.0680
   17SAPC  H13B 2135   6.625   2.098  10.553  2.1644  1.4898 -1.6060
   17SAPC  H13C 2136   6.581   2.137  10.720 -0.2336 -0.2536  0.1907
   17SAPC   C14 2137   6.593   1.855  10.662 -0.3042  1.1513  0.1194
   17SAPC  H14A 2138   6.562   1.852  10.559 -0.5081 -1.3461  0.1849
   17SAPC  H14B 2139   6.635   1.757  10.682 -0.2782  1.4283  1.5599
   17SAPC  H14C 2140   6.511   1.857  10.733 -0.2323 -2.1859  0.4432
   17SAPC   C15 2141   6.742   1.942  10.832 -0.5482  0.6414  0.2121
   17SAPC  H15A 2142   6.762   1.839  10.856  0.2431  0.5429 -0.8067
   17SAPC  H15B 2143   6.836   1.990  10.857  0.3623 -0.0404 -1.6694
   17SAPC  H15C 2144   6.660   1.977  10.894 -0.6444  0.1967  0.3351
   17SAPC   C11 2145   6.825   1.937  10.458 -0.2803 -0.0956  0.4090
   17SAPC  H11A 2146   6.925   1.926  10.410 -0.9676 -1.4522 -0.8110
   17SAPC  H11B 2147   6.799   2.041  10.432 -0.4991 -0.4616 -0.8799
   17SAPC     P 2148   6.777   1.706  10.369  0.2571  0.0056  0.0963
   17SAPC   O13 2149   6.857   1.660  10.485  0.2741 -0.6663  0.2329
   17SAPC   O14 2150   6.660   1.617  10.325 -0.1289 -0.5273 -0.1629
   17SAPC   O12 2151   6.729   1.855  10.401 -0.2090  0.1537  0.5739
   17SAPC   O11 2152   6.869   1.733  10.240  0.1755 -0.8799 -0.6012
   17SAPC    C1 2153   6.799   1.759  10.119 -0.6370 -0.6209 -0.0083
   17SAPC    HA 2154   6.792   1.668  10.055 -1.9302 -0.2268 -0.4577
   17SAPC    HB 2155   6.699   1.808  10.123  0.1013  1.1389 -1.6754
   17SAPC    C2 2156   6.881   1.862  10.035 -0.2857  0.2387 -0.2497
   17SAPC    HS 2157   6.897   1.957  10.089 -2.5596 -0.3329  1.6042
   17SAPC   O21 2158   6.828   1.875   9.903  0.5276  0.9091 -0.3372
   17SAPC   C21 2159   6.726   1.948   9.887 -0.4553  0.7562  0.6453
   17SAPC   O22 2160   6.665   2.007   9.974 -0.2610  0.3529  0.0632
   17SAPC   C22 2161   6.695   1.940   9.737  0.1078 -0.0307  0.0238
   17SAPC   H2R 2162   6.747   1.856   9.686 -0.3976 -0.6023  0.4370
   17SAPC   H2S 2163   6.587   1.920   9.725  0.3831 -0.7874 -1.3818
   17SAPC    C3 2164   7.027   1.804  10.009 -0.1104  0.4858  0.5465
   17SAPC    HX 2165   7.009   1.697   9.982  2.2733  0.7248 -2.5975
   17SAPC    HY 2166   7.092   1.812  10.098  1.1022 -1.2358 -0.1170
   17SAPC   O31 2167   7.080   1.870   9.895 -0.4998  0.5912  0.3609
   17SAPC   C31 2168   7.145   1.986   9.923 -0.6410  0.3490 -0.2463
   17SAPC   O32 2169   7.146   2.045  10.032 -0.1627 -0.3216 -0.1595
   17SAPC   C32 2170   7.222   2.027   9.803  0.9292 -1.2039  0.1488
   17SAPC   H2X 2171   7.281   1.942   9.763  1.4606 -0.5513 -0.4763
   17SAPC   H2Y 2172   7.298   2.100   9.838 -0.8314  1.9136 -2.0181
   17SAPC   C23 2173   6.734   2.077   9.675  0.1194 -0.0152 -0.1314
   17SAPC   H3R 2174   6.841   2.099   9.694 -0.1904 -0.6171  2.6564
   17SAPC   H3S 2175   6.682   2.161   9.725  0.8335 -0.0005  0.5975
   17SAPC   C24 2176   6.716   2.073   9.518 -0.8347  0.0073  0.8130
   17SAPC   H4R 2177   6.766   1.978   9.489 -2.6673 -1.1038  1.1796
   17SAPC   H4S 2178   6.762   2.166   9.476  0.5117  0.7564  3.6998
   17SAPC   C25 2179   6.572   2.057   9.473 -0.2747 -0.5157 -0.5262
   17SAPC   H5R 2180   6.499   2.034   9.552 -0.4560  0.7759 -0.3016
   17SAPC   C26 2181   6.524   2.076   9.346 -0.2105 -0.6043 -0.4075
   17SAPC   H6R 2182   6.417   2.050   9.344 -0.5544  0.4195  1.5691
   17SAPC   C27 2183   6.603   2.111   9.223 -0.2852 -0.2723  0.6382
   17SAPC   H7R 2184   6.711   2.105   9.248 -0.3993 -2.6151  0.7269
   17SAPC   H7S 2185   6.575   2.216   9.198 -1.1468 -0.1328  2.1368
   17SAPC   C28 2186   6.588   2.013   9.105 -0.5565 -0.4011 -0.1799
   17SAPC   H8R 2187   6.571   1.907   9.129 -0.9779 -0.2626  0.1480
   17SAPC   C29 2188   6.604   2.054   8.979 -0.5291 -0.3540  0.3733
   17SAPC   H9R 2189   6.567   1.994   8.895 -1.9922 -0.7353  1.2682
   17SAPC  C210 2190   6.644   2.194   8.934  0.8611 -0.3394  0.0349
   17SAPC  H10R 2191   6.691   2.175   8.835  0.7164 -1.4077  0.1666
   17SAPC  H10S 2192   6.728   2.235   8.994  1.5950 -0.3686 -0.9575
   17SAPC  C211 2193   6.531   2.303   8.933  0.5232  0.5618  0.1258
   17SAPC  H11R 2194   6.490   2.346   9.025 -0.6528 -1.2201  0.4926
   17SAPC  C212 2195   6.491   2.368   8.825 -0.1861  0.4352 -0.1234
   17SAPC  H12R 2196   6.410   2.441   8.835 -2.5641 -1.8993 -1.1890
   17SAPC  C213 2197   6.542   2.353   8.683 -0.4834 -0.7232  0.3278
   17SAPC  H13R 2198   6.541   2.250   8.643  0.3365 -0.5989 -0.0191
   17SAPC  H13S 2199   6.648   2.385   8.678 -0.6018 -0.2606  0.6854
   17SAPC  C214 2200   6.454   2.430   8.588  0.1048 -0.4492  0.6697
   17SAPC  H14R 2201   6.355   2.396   8.554 -0.5545  1.3222  0.6865
   17SAPC  C215 2202   6.476   2.558   8.543 -0.1523  0.4200 -0.3032
   17SAPC  H15R 2203   6.413   2.597   8.462  0.3802  0.4057 -0.7272
   17SAPC  C216 2204   6.598   2.648   8.571  0.4188 -0.7609 -0.4431
   17SAPC  H16R 2205   6.675   2.646   8.491  0.9639 -0.6364  0.0727
   17SAPC  H16S 2206   6.650   2.621   8.665  1.5261  0.0547 -0.8057
   17SAPC  C217 2207   6.574   2.800   8.599  0.1175 -0.4132  0.0467
   17SAPC  H17R 2208   6.672   2.852   8.599  0.7605 -1.4614  2.7386
   17SAPC  H17S 2209   6.524   2.819   8.696 -0.0951  0.1011 -0.1625
   17SAPC  C218 2210   6.492   2.881   8.494 -0.1967 -0.2430 -1.0332
   17SAPC  H18R 2211   6.425   2.814   8.435 -1.1680  0.8267 -1.1886
   17SAPC  H18S 2212   6.564   2.915   8.417 -0.5807  1.5222 -0.6588
   17SAPC  C219 2213   6.424   3.008   8.547  0.0475  0.1588 -0.9129
   17SAPC  H19R 2214   6.332   2.973   8.599  2.4113 -1.9704  2.1732
   17SAPC  H19S 2215   6.394   3.076   8.464  1.6754 -1.4078 -2.8983
   17SAPC  C220 2216   6.508   3.099   8.641  0.1732  0.1071  1.0165
   17SAPC  H20R 2217   6.562   3.047   8.722 -1.6232 -0.8747  1.6351
   17SAPC  H20S 2218   6.444   3.165   8.704 -0.3995  0.7953 -0.2378
   17SAPC  H20T 2219   6.577   3.157   8.575 -0.2851  1.3095  1.5600
   17SAPC   C33 2220   7.128   2.094   9.693 -0.2614  0.4598 -0.1219
   17SAPC   H3X 2221   7.096   2.196   9.722  3.2285  2.7222 -3.3811
   17SAPC   H3Y 2222   7.037   2.032   9.679  1.8716 -2.9390 -0.1547
   17SAPC   C34 2223   7.201   2.091   9.556  0.0631  0.7766 -0.2857
   17SAPC   H4X 2224   7.229   1.985   9.539 -3.6042 -0.1058 -1.9239
   17SAPC   H4Y 2225   7.290   2.156   9.570  0.6278 -0.5830  3.4020
   17SAPC   C35 2226   7.111   2.138   9.440  0.9251 -0.0587 -0.7162
   17SAPC   H5X 2227   7.082   2.245   9.447  0.4315 -0.2409  0.1522
   17SAPC   H5Y 2228   7.014   2.086   9.457 -0.1537  2.7816  3.8315
   17SAPC   C36 2229   7.164   2.116   9.296  0.1200  0.3815 -0.9088
   17SAPC   H6X 2230   7.195   2.011   9.280  2.8066  0.9588 -0.0710
   17SAPC   H6Y 2231   7.257   2.176   9.292  1.1029 -0.9251  0.8256
   17SAPC   C37 2232   7.073   2.174   9.196 -0.4921 -0.7609  0.1725
   17SAPC   H7X 2233   7.048   2.282   9.203  1.1616 -0.1329 -2.2837
   17SAPC   H7Y 2234   6.974   2.128   9.216  0.2080 -1.6280  1.7374
   17SAPC   C38 2235   7.120   2.143   9.053  0.4312  0.4632 -0.1625
   17SAPC   H8X 2236   7.143   2.035   9.060 -0.1657  0.3613  0.2796
   17SAPC   H8Y 2237   7.218   2.185   9.024  0.4259  0.7381  0.2155
   17SAPC   C39 2238   7.002   2.167   8.964 -0.0635  0.2513 -0.1237
   17SAPC   H9X 2239   6.964   2.268   8.989 -0.5252  0.0227  0.1021
   17SAPC   H9Y 2240   6.919   2.096   8.985  0.5272 -0.2325  0.6563
   17SAPC  C310 2241   7.040   2.151   8.815  0.4293 -0.0237  0.3384
   17SAPC  H10X 2242   7.071   2.047   8.793 -1.0452 -0.4702  0.3159
   17SAPC  H10Y 2243   7.136   2.204   8.793 -0.2764  0.7214 -1.0883
   17SAPC  C311 2244   6.929   2.214   8.724  0.2453  0.1144 -0.0732
   17SAPC  H11X 2245   6.904   2.314   8.766 -1.6772 -0.5557  0.4359
   17SAPC  H11Y 2246   6.849   2.139   8.711 -1.3450  1.0506  3.2710
   17SAPC  C312 2247   6.984   2.229   8.579  0.5300  0.4125 -0.1621
   17SAPC  H12X 2248   7.007   2.128   8.538 -0.2026  1.1881 -2.6384
   17SAPC  H12Y 2249   7.081   2.280   8.564  1.1000 -1.1119 -2.0468
   17SAPC  C313 2250   6.877   2.278   8.479  0.1679  0.7590 -0.1294
   17SAPC  H13X 2251   6.839   2.381   8.497 -1.9289  0.0175 -0.0392
   17SAPC  H13Y 2252   6.788   2.213   8.496  0.6491 -0.3822 -1.7719
   17SAPC  C314 2253   6.921   2.265   8.336 -0.5257 -0.6440  0.6101
   17SAPC  H14X 2254   6.924   2.157   8.311  0.3268  0.0785 -3.1032
   17SAPC  H14Y 2255   7.026   2.297   8.317 -0.8075  0.0372  0.1430
   17SAPC  C315 2256   6.832   2.344   8.236 -0.3919 -0.2676  0.3890
   17SAPC  H15X 2257   6.727   2.311   8.249  0.1794 -1.8789  1.3222
   17SAPC  H15Y 2258   6.853   2.315   8.130 -1.0788 -0.9255  0.4219
   17SAPC  C316 2259   6.842   2.497   8.259  0.5043 -0.4696 -0.0824
   17SAPC  H16X 2260   6.945   2.534   8.278 -0.3432  1.6895  0.6072
   17SAPC  H16Y 2261   6.773   2.527   8.341 -1.5393 -0.6076 -1.6591
   17SAPC  C317 2262   6.789   2.576   8.139 -0.9624 -0.0514  0.6359
   17SAPC  H17X 2263   6.854   2.552   8.052 -0.2615 -1.6829  1.5780
   17SAPC  H17Y 2264   6.809   2.685   8.143 -0.8103 -0.1252  2.4664
   17SAPC  C318 2265   6.648   2.542   8.085 -0.2384 -0.4468 -0.7287
   17SAPC  H18X 2266   6.576   2.535   8.169  0.1893  1.7358 -0.1150
   17SAPC  H18Y 2267   6.613   2.617   8.012 -0.9728  0.3612  0.4335
   17SAPC  H18Z 2268   6.658   2.451   8.021  1.6605 -0.8107  0.0234
   18SAPC     N 2269   0.402   5.773  10.953  0.0252 -0.5269 -0.3341
   18SAPC   C12 2270   0.251   5.808  10.943  0.0462 -0.0079 -0.0220
   18SAPC  H12A 2271   0.210   5.839  11.037  0.6332  0.0559  0.2197
   18SAPC  H12B 2272   0.199   5.714  10.926 -0.6796  0.4677 -0.4776
   18SAPC   C13 2273   0.461   5.742  10.815  0.2053 -0.0875 -0.6001
   18SAPC  H13A 2274   0.413   5.654  10.775  1.7394 -1.0285 -0.4486
   18SAPC  H13B 2275   0.437   5.818  10.742  0.7428 -1.1166 -1.8897
   18SAPC  H13C 2276   0.562   5.703  10.823 -0.1031 -0.4552  2.9780
   18SAPC   C14 2277   0.468   5.897  11.012  0.0886  0.1658 -0.0965
   18SAPC  H14A 2278   0.575   5.884  11.015  0.1719 -0.1061 -2.2138
   18SAPC  H14B 2279   0.454   5.982  10.947 -1.1174  1.9156  2.3231
   18SAPC  H14C 2280   0.420   5.916  11.106 -0.0126 -0.3162 -0.0503
   18SAPC   C15 2281   0.429   5.657  11.040  0.2798 -0.4664 -0.1254
   18SAPC  H15A 2282   0.370   5.573  11.008 -1.5044  1.7914 -3.2465
   18SAPC  H15B 2283   0.534   5.636  11.022  0.9693  1.6375  1.0544
   18SAPC  H15C 2284   0.428   5.673  11.147 -2.1713 -1.8058  0.1228
   18SAPC   C11 2285   0.205   5.902  10.821  0.3194 -0.1964 -0.3922
   18SAPC  H11A 2286   0.095   5.896  10.832  0.4482  1.1973  2.6309
   18SAPC  H11B 2287   0.239   5.866  10.722 -1.3529 -1.2313 -0.6302
   18SAPC     P 2288   0.167   6.151  10.816  0.0511 -0.5927 -0.4015
   18SAPC   O13 2289   0.024   6.116  10.848 -0.0296 -0.5728  0.1478
   18SAPC   O14 2290   0.224   6.276  10.869  0.4301 -0.1311  0.1898
   18SAPC   O12 2291   0.263   6.031  10.847  0.4338 -0.2408 -0.2082
   18SAPC   O11 2292   0.174   6.164  10.657  0.3071 -0.1066 -0.4374
   18SAPC    C1 2293   0.302   6.154  10.598  0.6671  0.1229  1.0838
   18SAPC    HA 2294   0.360   6.242  10.634  1.3495 -0.2710  0.9634
   18SAPC    HB 2295   0.356   6.061  10.625  0.8097  0.5522  2.3518
   18SAPC    C2 2296   0.295   6.150  10.443  0.4861 -0.4021 -0.2967
   18SAPC    HS 2297   0.399   6.137  10.407  0.7340 -0.6034  0.4699
   18SAPC   O21 2298   0.243   6.278  10.392 -0.3212  0.5732 -0.1150
   18SAPC   C21 2299   0.341   6.370  10.384 -0.2509 -0.5340 -0.1109
   18SAPC   O22 2300   0.455   6.358  10.419 -0.3885  0.3702  0.0618
   18SAPC   C22 2301   0.282   6.494  10.311  0.1252  0.7802 -0.5415
   18SAPC   H2R 2302   0.174   6.474  10.293  0.7033 -3.1039 -0.7168
   18SAPC   H2S 2303   0.305   6.582  10.375  0.7837  1.2527 -1.4017
   18SAPC    C3 2304   0.221   6.032  10.387  0.3443 -0.4180 -0.2688
   18SAPC    HX 2305   0.115   6.058  10.407  0.6185  1.2804 -0.9096
   18SAPC    HY 2306   0.242   5.932  10.433 -0.5919 -0.5547 -0.1319
   18SAPC   O31 2307   0.264   6.033  10.247  0.5707 -0.0393 -0.2870
   18SAPC   C31 2308   0.186   5.955  10.172  0.9763 -0.3541  0.3232
   18SAPC   O32 2309   0.085   5.891  10.209 -0.0272 -0.4883  0.3827
   18SAPC   C32 2310   0.246   5.947  10.028 -0.1542 -0.0533 -0.1507
   18SAPC   H2X 2311   0.347   5.904  10.038 -0.0525 -0.0283 -1.0564
   18SAPC   H2Y 2312   0.253   6.052   9.991 -0.3806  0.2455  0.6165
   18SAPC   C23 2313   0.352   6.505  10.176 -0.1831 -0.4934  0.0355
   18SAPC   H3R 2314   0.459   6.529  10.195  0.4777 -1.0032 -2.6247
   18SAPC   H3S 2315   0.322   6.596  10.119  0.7330 -0.5181 -0.4970
   18SAPC   C24 2316   0.337   6.381  10.077 -0.2073  0.4248 -0.5984
   18SAPC   H4R 2317   0.246   6.403  10.017 -0.0949  0.7152 -0.6619
   18SAPC   H4S 2318   0.321   6.279  10.118  0.7335 -0.2030 -1.7438
   18SAPC   C25 2319   0.459   6.361   9.997 -0.4737 -0.3568 -0.0159
   18SAPC   H5R 2320   0.546   6.339  10.060 -0.3124 -1.6487 -0.6765
   18SAPC   C26 2321   0.479   6.374   9.862  0.4229  0.1520 -0.5771
   18SAPC   H6R 2322   0.582   6.356   9.827  0.9015  0.9954  0.3214
   18SAPC   C27 2323   0.373   6.404   9.755 -0.0796  0.4414 -0.7064
   18SAPC   H7R 2324   0.375   6.511   9.726 -3.9364  0.7648 -0.2991
   18SAPC   H7S 2325   0.267   6.398   9.789 -0.7926  4.4620 -1.7291
   18SAPC   C28 2326   0.388   6.322   9.632  0.5423 -0.2186  0.3186
   18SAPC   H8R 2327   0.328   6.230   9.632 -0.1266  0.1920 -0.9934
   18SAPC   C29 2328   0.480   6.345   9.534  0.3259 -0.1559  0.1014
   18SAPC   H9R 2329   0.472   6.275   9.450 -0.5596  1.0650 -0.8751
   18SAPC  C210 2330   0.577   6.459   9.518 -0.3450 -0.2345 -0.0255
   18SAPC  H10R 2331   0.673   6.404   9.513 -0.6743 -0.8941  0.6621
   18SAPC  H10S 2332   0.575   6.529   9.604  3.8051  0.2242 -0.0804
   18SAPC  C211 2333   0.557   6.535   9.393  0.3897  0.2643  0.9353
   18SAPC  H11R 2334   0.473   6.606   9.398 -0.9141 -1.0705 -0.6958
   18SAPC  C212 2335   0.614   6.515   9.272  0.3537 -0.2291 -0.3036
   18SAPC  H12R 2336   0.584   6.580   9.189 -3.2466 -0.8659  0.3172
   18SAPC  C213 2337   0.733   6.421   9.245 -0.7550  1.1051  0.4880
   18SAPC  H13R 2338   0.813   6.425   9.322 -1.6362  1.6501  1.3984
   18SAPC  H13S 2339   0.781   6.444   9.147  0.4535  0.3313  0.8745
   18SAPC  C214 2340   0.696   6.274   9.245 -0.4770  0.3426 -0.5035
   18SAPC  H14R 2341   0.614   6.239   9.309  0.3140 -2.6629 -0.9707
   18SAPC  C215 2342   0.767   6.183   9.172  0.4288  0.6360 -1.0985
   18SAPC  H15R 2343   0.728   6.080   9.180  2.1146  0.0491  0.0241
   18SAPC  C216 2344   0.879   6.196   9.072  0.6049 -0.2675  0.7205
   18SAPC  H16R 2345   0.955   6.123   9.107 -0.8268 -1.6028  1.1689
   18SAPC  H16S 2346   0.920   6.295   9.044  0.4993 -0.0702  1.2504
   18SAPC  C217 2347   0.841   6.135   8.936 -0.4302  0.1328  0.1691
   18SAPC  H17R 2348   0.747   6.186   8.909 -0.8723  1.0828  3.1475
   18SAPC  H17S 2349   0.816   6.027   8.935 -1.9815  0.4687 -0.3957
   18SAPC  C218 2350   0.952   6.167   8.834  0.0502  0.0153  0.0015
   18SAPC  H18R 2351   1.042   6.123   8.882 -0.5745  0.3943  1.5991
   18SAPC  H18S 2352   0.972   6.276   8.825 -0.2391  0.2994  2.2298
   18SAPC  C219 2353   0.932   6.112   8.693 -0.2191 -0.0014  0.2165
   18SAPC  H19R 2354   0.856   6.177   8.643  0.2008  1.0901  0.9703
   18SAPC  H19S 2355   0.892   6.008   8.694  3.1418 -1.4096  0.2042
   18SAPC  C220 2356   1.049   6.119   8.598 -0.3914 -0.1679  0.2171
   18SAPC  H20R 2357   1.135   6.062   8.641 -0.0386  0.6309  0.5972
   18SAPC  H20S 2358   1.083   6.223   8.578  0.1524  0.0210  1.9417
   18SAPC  H20T 2359   1.022   6.061   8.508 -2.7686  2.2059 -0.7309
   18SAPC   C33 2360   0.160   5.857   9.939  0.1554 -0.2405 -0.4226
   18SAPC   H3X 2361   0.055   5.892   9.927 -0.0296 -0.3337  0.8222
   18SAPC   H3Y 2362   0.152   5.751   9.971 -1.5523 -0.3301 -1.0781
   18SAPC   C34 2363   0.219   5.872   9.797 -0.1992 -0.6447  0.1220
   18SAPC   H4X 2364   0.317   5.821   9.790 -0.1585 -0.4591 -0.8780
   18SAPC   H4Y 2365   0.239   5.981   9.788  0.3628 -0.6575  1.0976
   18SAPC   C35 2366   0.123   5.843   9.681  0.0838  0.5682  1.0533
   18SAPC   H5X 2367   0.038   5.910   9.704  0.2467  2.1815 -2.3983
   18SAPC   H5Y 2368   0.080   5.741   9.687 -0.7558  0.5360 -2.7169
   18SAPC   C36 2369   0.184   5.863   9.540  0.1720  0.0088 -0.3325
   18SAPC   H6X 2370   0.249   5.775   9.524 -0.8718 -0.7466 -0.5758
   18SAPC   H6Y 2371   0.232   5.963   9.527 -2.3376  1.1967 -1.2677
   18SAPC   C37 2372   0.081   5.861   9.434  0.2271 -0.5753 -0.0860
   18SAPC   H7X 2373   0.016   5.946   9.465  1.8490  1.4781 -2.0124
   18SAPC   H7Y 2374   0.013   5.774   9.423 -0.0669 -0.3051 -0.4807
   18SAPC   C38 2375   0.132   5.878   9.289  0.8933  0.2790  0.5439
   18SAPC   H8X 2376   0.050   5.887   9.214  2.5259  0.8311 -1.2583
   18SAPC   H8Y 2377   0.192   5.795   9.246 -0.0380  0.6257 -1.5807
   18SAPC   C39 2378   0.223   6.002   9.258  0.3729  0.4584  0.3962
   18SAPC   H9X 2379   0.320   5.986   9.309  2.0752  0.7513 -2.5093
   18SAPC   H9Y 2380   0.174   6.092   9.302 -0.7461 -0.3188  0.7844
   18SAPC  C310 2381   0.250   6.021   9.109  0.3672  0.7122  0.7584
   18SAPC  H10X 2382   0.148   6.025   9.065  0.7427 -0.6428 -0.2758
   18SAPC  H10Y 2383   0.304   5.935   9.065 -2.4178 -1.2271  0.8591
   18SAPC  C311 2384   0.334   6.146   9.075  0.4092  0.4107  0.9514
   18SAPC  H11X 2385   0.430   6.138   9.131  0.9748  1.0553  0.0897
   18SAPC  H11Y 2386   0.267   6.230   9.103 -0.1961  0.4416 -0.5003
   18SAPC  C312 2387   0.365   6.140   8.918  1.1332  0.1061  0.0526
   18SAPC  H12X 2388   0.273   6.121   8.857  0.5238  3.9931 -0.4961
   18SAPC  H12Y 2389   0.430   6.052   8.903  0.2727 -1.1853  3.0649
   18SAPC  C313 2390   0.431   6.271   8.872  0.0123  0.5033 -0.1791
   18SAPC  H13X 2391   0.522   6.287   8.934 -0.2750 -2.1773  1.1061
   18SAPC  H13Y 2392   0.368   6.363   8.878  1.2698  1.4064 -0.4334
   18SAPC  C314 2393   0.474   6.255   8.727  0.1200  0.7758 -0.0961
   18SAPC  H14X 2394   0.383   6.255   8.663  0.5574  0.0459 -0.7268
   18SAPC  H14Y 2395   0.521   6.156   8.713  0.2836  0.5356  1.8987
   18SAPC  C315 2396   0.563   6.365   8.682  0.2107 -0.4264 -0.0218
   18SAPC  H15X 2397   0.667   6.364   8.722  0.3139  0.4501 -0.2420
   18SAPC  H15Y 2398   0.515   6.463   8.702 -2.3287 -1.2486 -1.6710
   18SAPC  C316 2399   0.573   6.345   8.530 -0.1920  0.0788  0.9715
   18SAPC  H16X 2400   0.473   6.350   8.483 -1.0229 -0.6849  2.5952
   18SAPC  H16Y 2401   0.612   6.244   8.503 -1.2003  0.3865 -1.9779
   18SAPC  C317 2402   0.656   6.453   8.459  0.6750  0.0047 -0.8489
   18SAPC  H17X 2403   0.738   6.484   8.527  0.5574  2.2199 -1.6683
   18SAPC  H17Y 2404   0.599   6.545   8.435 -1.0716 -1.4768 -2.7405
   18SAPC  C318 2405   0.707   6.398   8.326 -0.1178 -0.0123  0.6110
   18SAPC  H18X 2406   0.772   6.310   8.345  2.3658  0.9283 -2.6789
   18SAPC  H18Y 2407   0.757   6.477   8.267 -0.0144  0.9614  1.9424
   18SAPC  H18Z 2408   0.624   6.361   8.263  0.1702  1.5901 -0.7755
   19SAPC     N 2409   3.707   0.910  10.713 -0.3790  0.2179 -0.5160
   19SAPC   C12 2410   3.673   0.988  10.595 -0.4099  0.9370 -0.1763
   19SAPC  H12A 2411   3.568   0.966  10.583 -0.3498  0.5928 -0.0962
   19SAPC  H12B 2412   3.714   0.944  10.505  1.1976 -0.0043  0.9713
   19SAPC   C13 2413   3.681   0.766  10.696 -0.0755  0.7227  0.4688
   19SAPC  H13A 2414   3.734   0.727  10.610  1.3970  0.0999  1.6183
   19SAPC  H13B 2415   3.717   0.716  10.785 -3.1749  0.4740  1.7335
   19SAPC  H13C 2416   3.574   0.755  10.690  0.1046 -0.5427 -0.7879
   19SAPC   C14 2417   3.851   0.925  10.750  0.4106 -0.5601  0.2114
   19SAPC  H14A 2418   3.876   1.029  10.756 -1.5074 -0.0031 -0.4532
   19SAPC  H14B 2419   3.885   0.880  10.842  0.1136 -2.1479 -0.4102
   19SAPC  H14C 2420   3.908   0.877  10.672 -2.5834 -3.7268 -0.2917
   19SAPC   C15 2421   3.620   0.956  10.828  0.0043 -0.5015  1.0690
   19SAPC  H15A 2422   3.602   1.062  10.816  0.3820 -0.5907 -0.5744
   19SAPC  H15B 2423   3.520   0.915  10.826 -0.4557  0.5706  1.3360
   19SAPC  H15C 2424   3.670   0.939  10.922  3.5381  1.6961 -0.2011
   19SAPC   C11 2425   3.690   1.138  10.598  0.1285 -0.4569 -0.3168
   19SAPC  H11A 2426   3.702   1.170  10.493  1.0596 -1.5209 -0.5533
   19SAPC  H11B 2427   3.783   1.166  10.652  0.3654 -2.0302  0.1585
   19SAPC     P 2428   3.456   1.230  10.576 -0.4527  0.0336  0.2386
   19SAPC   O13 2429   3.399   1.098  10.536  0.6673  0.0570  0.3901
   19SAPC   O14 2430   3.375   1.329  10.649 -0.7612  0.5081  0.0319
   19SAPC   O12 2431   3.584   1.211  10.655 -0.1670  0.4023 -0.3946
   19SAPC   O11 2432   3.515   1.296  10.448 -0.2389 -0.0980  0.2327
   19SAPC    C1 2433   3.579   1.425  10.451  0.4029  0.2000 -0.1220
   19SAPC    HA 2434   3.627   1.442  10.549 -0.8787  1.5067  0.3205
   19SAPC    HB 2435   3.649   1.425  10.364  0.6406  1.7896  0.0489
   19SAPC    C2 2436   3.470   1.537  10.418 -0.9234  0.8655 -0.3588
   19SAPC    HS 2437   3.381   1.524  10.484 -0.5012  0.1164  0.0763
   19SAPC   O21 2438   3.431   1.526  10.278 -0.3203 -0.4181  0.3957
   19SAPC   C21 2439   3.339   1.444  10.251 -0.1084 -0.1097  0.5071
   19SAPC   O22 2440   3.263   1.389  10.325 -0.4850 -0.0716  0.0054
   19SAPC   C22 2441   3.330   1.429  10.093 -0.8998 -0.0698 -0.5743
   19SAPC   H2R 2442   3.238   1.376  10.062 -0.8593  0.2160 -1.2101
   19SAPC   H2S 2443   3.339   1.532  10.052  1.8352  0.1735  0.3864
   19SAPC    C3 2444   3.537   1.676  10.435 -0.0540 -0.3093  0.0728
   19SAPC    HX 2445   3.644   1.663  10.408 -0.0178  0.7697 -0.3181
   19SAPC    HY 2446   3.546   1.705  10.541  2.3517  1.6949 -0.5986
   19SAPC   O31 2447   3.483   1.778  10.351 -0.1205  0.9338 -0.2977
   19SAPC   C31 2448   3.363   1.810  10.368  0.0255 -0.5827 -0.0092
   19SAPC   O32 2449   3.292   1.770  10.458  0.1705 -0.4273  0.3358
   19SAPC   C32 2450   3.317   1.918  10.268 -0.1869 -0.0362  0.3999
   19SAPC   H2X 2451   3.408   1.969  10.229  0.4209 -1.7803 -0.5739
   19SAPC   H2Y 2452   3.237   1.986  10.301 -0.2322 -0.2292  0.6894
   19SAPC   C23 2453   3.447   1.338  10.048  0.4522 -0.1154 -0.4390
   19SAPC   H3R 2454   3.417   1.234  10.074 -2.0373  0.5877 -0.2306
   19SAPC   H3S 2455   3.531   1.361  10.116 -1.4055  0.9337  1.6502
   19SAPC   C24 2456   3.487   1.345   9.905 -0.3001  0.3444 -0.4582
   19SAPC   H4R 2457   3.402   1.307   9.844 -0.1784 -0.5917 -0.0573
   19SAPC   H4S 2458   3.568   1.272   9.885 -0.7807 -0.9100  1.8785
   19SAPC   C25 2459   3.529   1.491   9.871  0.6272 -0.0478  0.4442
   19SAPC   H5R 2460   3.585   1.545   9.949  0.7739 -1.1819  1.1650
   19SAPC   C26 2461   3.476   1.559   9.767  0.0769 -1.0519 -0.2077
   19SAPC   H6R 2462   3.509   1.663   9.760 -0.4747 -0.9455 -1.8536
   19SAPC   C27 2463   3.372   1.519   9.665 -0.0182  1.1277  0.2761
   19SAPC   H7R 2464   3.270   1.538   9.704 -0.5205  0.4978 -0.6919
   19SAPC   H7S 2465   3.364   1.408   9.662 -1.4639  1.2098 -2.1446
   19SAPC   C28 2466   3.379   1.584   9.532 -0.1774  0.2461  0.4696
   19SAPC   H8R 2467   3.344   1.688   9.537 -0.7690 -0.0008  1.6201
   19SAPC   C29 2468   3.398   1.521   9.409 -0.0534 -0.8281 -0.2392
   19SAPC   H9R 2469   3.392   1.571   9.311  0.5760  1.7867  0.9616
   19SAPC  C210 2470   3.418   1.378   9.391  0.6083  0.5220  0.0527
   19SAPC  H10R 2471   3.318   1.330   9.387  0.7170  0.2114  0.8290
   19SAPC  H10S 2472   3.464   1.337   9.484 -2.3917  1.6262  2.2033
   19SAPC  C211 2473   3.499   1.343   9.277 -0.1231 -0.2843 -0.0960
   19SAPC  H11R 2474   3.607   1.357   9.293 -0.6199  0.1077  3.7172
   19SAPC  C212 2475   3.465   1.301   9.158 -0.3223  0.2121 -0.1666
   19SAPC  H12R 2476   3.545   1.280   9.086  1.0322 -1.8360  1.7912
   19SAPC  C213 2477   3.325   1.269   9.105  0.4663  0.0776 -0.8358
   19SAPC  H13R 2478   3.324   1.259   8.994 -0.6696  1.4636 -0.9888
   19SAPC  H13S 2479   3.274   1.368   9.112 -0.1849 -0.2805 -0.4050
   19SAPC  C214 2480   3.236   1.152   9.156  0.0262 -0.4266 -0.0544
   19SAPC  H14R 2481   3.169   1.171   9.240  0.8635  1.2566  0.2856
   19SAPC  C215 2482   3.228   1.032   9.094  0.0323 -0.3366  0.4866
   19SAPC  H15R 2483   3.158   0.956   9.130 -3.4488  2.3416 -0.1083
   19SAPC  C216 2484   3.291   0.995   8.962  0.1392  0.1202  0.0873
   19SAPC  H16R 2485   3.382   0.933   8.975  0.4258  0.7086  0.9793
   19SAPC  H16S 2486   3.321   1.078   8.894  1.2933  0.3852  0.8898
   19SAPC  C217 2487   3.191   0.904   8.892 -1.1908 -0.3890 -0.0869
   19SAPC  H17R 2488   3.091   0.953   8.887 -1.2149 -0.5423 -1.5884
   19SAPC  H17S 2489   3.177   0.813   8.954  1.3497  0.2604  1.5934
   19SAPC  C218 2490   3.229   0.861   8.748  0.5565  0.6188  0.8595
   19SAPC  H18R 2491   3.166   0.781   8.703 -0.3932  1.2963  0.9508
   19SAPC  H18S 2492   3.335   0.827   8.743 -0.1533 -1.5844 -0.6711
   19SAPC  C219 2493   3.221   0.977   8.649  0.4178 -0.8146  0.5689
   19SAPC  H19R 2494   3.287   1.061   8.681 -0.9956  1.0124 -1.0713
   19SAPC  H19S 2495   3.117   1.016   8.638 -0.3445 -2.4990  1.4764
   19SAPC  C220 2496   3.265   0.928   8.506 -0.6730 -0.0283 -0.9030
   19SAPC  H20R 2497   3.365   0.881   8.514 -0.4297  0.4995 -0.8302
   19SAPC  H20S 2498   3.265   1.018   8.441  0.0982  0.9626  0.4229
   19SAPC  H20T 2499   3.192   0.852   8.470  2.9404 -3.6369 -1.3034
   19SAPC   C33 2500   3.269   1.852  10.133  0.6291 -0.2750  0.3034
   19SAPC   H3X 2501   3.349   1.779  10.106 -0.2559 -0.4516 -2.0381
   19SAPC   H3Y 2502   3.270   1.925  10.049  0.6476 -0.6856 -0.0567
   19SAPC   C34 2503   3.131   1.785  10.125  0.3208  0.0761 -0.2202
   19SAPC   H4X 2504   3.049   1.854  10.155  0.9304  0.8385 -0.2876
   19SAPC   H4Y 2505   3.136   1.710  10.207  0.0088  0.1321 -0.1451
   19SAPC   C35 2506   3.101   1.730   9.991  0.0071 -0.8963  0.6006
   19SAPC   H5X 2507   3.188   1.672   9.954  1.7865  1.0921  1.4602
   19SAPC   H5Y 2508   3.096   1.821   9.927  2.6591 -0.7181  0.5398
   19SAPC   C36 2509   2.973   1.660   9.977 -0.0999  0.6462  0.2170
   19SAPC   H6X 2510   2.890   1.731  10.000 -0.4846  0.4752 -0.6278
   19SAPC   H6Y 2511   2.988   1.573  10.045  1.2651 -0.0536 -0.9310
   19SAPC   C37 2512   2.951   1.596   9.837  0.1429  0.0065  0.5975
   19SAPC   H7X 2513   2.849   1.551   9.837 -0.1845  0.6845  2.0278
   19SAPC   H7Y 2514   3.032   1.520   9.845 -1.5562 -1.7286  3.6757
   19SAPC   C38 2515   2.987   1.701   9.724  0.1767 -0.0655 -0.0779
   19SAPC   H8X 2516   3.094   1.728   9.734 -0.6390  3.7404 -0.4100
   19SAPC   H8Y 2517   2.922   1.790   9.741 -0.7607 -1.0885  2.1467
   19SAPC   C39 2518   2.959   1.638   9.586  0.0783  0.6944 -0.1147
   19SAPC   H9X 2519   2.854   1.604   9.581 -0.6530  2.5096  1.4353
   19SAPC   H9Y 2520   3.024   1.548   9.577  0.1470  0.6615  0.6439
   19SAPC  C310 2521   2.990   1.737   9.479 -0.2522  0.4773  0.1392
   19SAPC  H10X 2522   3.087   1.790   9.492  0.5787 -0.4974 -1.6585
   19SAPC  H10Y 2523   2.915   1.819   9.482 -0.2496  0.5533 -1.2404
   19SAPC  C311 2524   2.980   1.674   9.343  0.0819  0.2513 -0.4429
   19SAPC  H11X 2525   2.879   1.626   9.340 -0.2069  0.8398 -0.3791
   19SAPC  H11Y 2526   3.056   1.593   9.343  0.9296  1.0321 -0.9207
   19SAPC  C312 2527   2.997   1.764   9.222  0.1668  0.3801  0.0216
   19SAPC  H12X 2528   3.095   1.815   9.235  0.4741 -0.5111  1.3541
   19SAPC  H12Y 2529   2.923   1.847   9.230 -2.8969 -2.1167 -0.5631
   19SAPC  C313 2530   2.991   1.692   9.085 -0.5861  0.1891 -0.6719
   19SAPC  H13X 2531   2.897   1.633   9.071 -0.4601  0.4746 -3.1508
   19SAPC  H13Y 2532   3.067   1.611   9.082 -0.9207 -0.2471  1.0717
   19SAPC  C314 2533   3.011   1.780   8.964 -0.5544 -0.0820  0.4602
   19SAPC  H14X 2534   3.050   1.708   8.889 -1.3516 -1.3115  1.1717
   19SAPC  H14Y 2535   3.095   1.848   8.990  0.1918 -1.0277  0.5843
   19SAPC  C315 2536   2.884   1.850   8.904 -0.3795  0.6350 -0.2225
   19SAPC  H15X 2537   2.827   1.908   8.980 -0.4478 -0.1278  0.3294
   19SAPC  H15Y 2538   2.808   1.770   8.890 -0.8575  0.7795  1.2831
   19SAPC  C316 2539   2.918   1.928   8.777 -0.5441  0.0375  0.1295
   19SAPC  H16X 2540   2.996   2.006   8.791  0.0805 -0.8127  1.5700
   19SAPC  H16Y 2541   2.819   1.973   8.752 -1.1291 -1.5659 -0.5833
   19SAPC  C317 2542   2.972   1.856   8.660  0.1678 -1.0298  0.9737
   19SAPC  H17X 2543   2.931   1.753   8.663 -0.3733 -0.7923  2.4719
   19SAPC  H17Y 2544   3.083   1.849   8.653  0.0786 -1.7712  0.0151
   19SAPC  C318 2545   2.930   1.921   8.529  0.4316 -0.3279 -0.6722
   19SAPC  H18X 2546   2.960   2.028   8.526 -1.1791  0.1391 -2.7155
   19SAPC  H18Y 2547   2.820   1.925   8.514  0.1090  0.3027  1.6215
   19SAPC  H18Z 2548   2.986   1.874   8.444  0.0582  2.2609 -2.4811
   20SAPC     N 2549   6.266   6.049  11.041 -0.1679  0.2855 -0.0770
   20SAPC   C12 2550   6.202   5.936  10.960  0.6337  0.5653  0.1660
   20SAPC  H12A 2551   6.099   5.966  10.957  0.6617  0.5859 -1.4607
   20SAPC  H12B 2552   6.184   5.843  11.011 -2.5471  0.4572 -0.9412
   20SAPC   C13 2553   6.397   6.001  11.097  0.1716  0.0633  0.4635
   20SAPC  H13A 2554   6.382   5.902  11.136 -0.7953  0.2552  0.6179
   20SAPC  H13B 2555   6.478   5.998  11.025  2.9714 -1.8964  3.4273
   20SAPC  H13C 2556   6.430   6.063  11.179 -0.7189 -0.0369  0.9028
   20SAPC   C14 2557   6.283   6.177  10.964 -0.0017 -1.0069 -0.4586
   20SAPC  H14A 2558   6.189   6.218  10.930  1.6496  3.3784 -0.3747
   20SAPC  H14B 2559   6.309   6.252  11.036 -3.3703 -0.6669  0.5889
   20SAPC  H14C 2560   6.335   6.158  10.871  1.5765  2.4148 -0.4093
   20SAPC   C15 2561   6.172   6.077  11.160 -0.8228  0.0573 -0.2718
   20SAPC  H15A 2562   6.222   6.113  11.249 -1.6589  0.2534  0.1307
   20SAPC  H15B 2563   6.097   6.152  11.141 -0.7375  1.0119  2.6479
   20SAPC  H15C 2564   6.125   5.983  11.183  0.5574 -0.8244 -0.9342
   20SAPC   C11 2565   6.260   5.885  10.827  0.6628  0.3119  0.0860
   20SAPC  H11A 2566   6.251   5.970  10.756  1.5256  0.7866  0.5351
   20SAPC  H11B 2567   6.198   5.796  10.804  0.9576  0.1107  0.0703
   20SAPC     P 2568   6.428   5.695  10.878  0.1148  0.2531  0.3047
   20SAPC   O13 2569   6.549   5.685  10.956  0.1701 -0.3846  0.3313
   20SAPC   O14 2570   6.305   5.648  10.951 -0.0202  0.7476  0.2841
   20SAPC   O12 2571   6.392   5.845  10.839 -0.3312 -0.0940  0.1359
   20SAPC   O11 2572   6.431   5.618  10.736 -0.5418  0.3254  0.2045
   20SAPC    C1 2573   6.480   5.697  10.621 -0.0826  0.2224 -0.0147
   20SAPC    HA 2574   6.395   5.764  10.595 -1.9389 -1.4322  1.5002
   20SAPC    HB 2575   6.572   5.754  10.645 -0.4959  0.6421  0.5965
   20SAPC    C2 2576   6.514   5.616  10.497 -0.1619  0.7221 -0.1852
   20SAPC    HS 2577   6.420   5.561  10.475 -1.1490  1.8328  1.0807
   20SAPC   O21 2578   6.617   5.525  10.519  0.2269  0.6551  0.2473
   20SAPC   C21 2579   6.636   5.433  10.429  0.2490 -0.5548  0.4398
   20SAPC   O22 2580   6.544   5.388  10.357 -0.3992  0.2837  0.0631
   20SAPC   C22 2581   6.783   5.387  10.432 -0.6531 -0.3750 -0.5129
   20SAPC   H2R 2582   6.824   5.377  10.535  1.4548  2.2262 -0.9839
   20SAPC   H2S 2583   6.793   5.289  10.382  1.7314 -1.2718  1.5084
   20SAPC    C3 2584   6.538   5.714  10.378  0.1191  0.1481  0.0007
   20SAPC    HX 2585   6.642   5.751  10.396  0.0282  0.5145 -0.2057
   20SAPC    HY 2586   6.467   5.800  10.377 -0.3914 -0.2787 -0.4574
   20SAPC   O31 2587   6.530   5.647  10.246  0.3136  0.5366  0.3220
   20SAPC   C31 2588   6.412   5.610  10.206  0.1706  0.0783  1.0380
   20SAPC   O32 2589   6.309   5.611  10.270 -0.2008  0.3351  0.2953
   20SAPC   C32 2590   6.430   5.568  10.056  0.0142  0.0952  0.6391
   20SAPC   H2X 2591   6.478   5.468  10.051 -0.0505  0.0415  1.0696
   20SAPC   H2Y 2592   6.496   5.647  10.014 -0.0393  0.3327  1.0011
   20SAPC   C23 2593   6.875   5.485  10.347 -0.4118  0.6202  0.3756
   20SAPC   H3R 2594   6.985   5.476  10.362 -0.0152  2.1072 -1.3059
   20SAPC   H3S 2595   6.845   5.587  10.377 -1.6244  0.1707  0.7570
   20SAPC   C24 2596   6.852   5.469  10.194  0.4712 -0.4832  0.1546
   20SAPC   H4R 2597   6.904   5.545  10.133  0.5924  1.2043  2.2548
   20SAPC   H4S 2598   6.742   5.479  10.185  0.4497 -0.9483 -0.1332
   20SAPC   C25 2599   6.883   5.328  10.143 -0.0276  0.9314  0.1413
   20SAPC   H5R 2600   6.903   5.250  10.217 -0.9099 -0.2372 -0.8103
   20SAPC   C26 2601   6.889   5.290  10.013 -0.3169  0.0438  0.5766
   20SAPC   H6R 2602   6.921   5.186   9.997 -0.6046 -0.4842  2.9649
   20SAPC   C27 2603   6.861   5.381   9.888  0.2419  0.0931 -0.9697
   20SAPC   H7R 2604   6.951   5.423   9.839  0.0767  1.5021 -0.1345
   20SAPC   H7S 2605   6.808   5.475   9.917  1.8708  1.1420 -1.2963
   20SAPC   C28 2606   6.776   5.305   9.787 -1.1327  0.4541  0.9346
   20SAPC   H8R 2607   6.761   5.196   9.789 -1.5580  0.3646 -1.9641
   20SAPC   C29 2608   6.706   5.365   9.691 -0.5065  0.1998 -0.3597
   20SAPC   H9R 2609   6.657   5.296   9.621 -1.2632  1.0647 -0.7078
   20SAPC  C210 2610   6.703   5.514   9.669  0.1301 -0.5837  1.1201
   20SAPC  H10R 2611   6.803   5.544   9.631  0.3704 -2.1560  0.4384
   20SAPC  H10S 2612   6.696   5.570   9.765  3.6297  0.4482  0.8887
   20SAPC  C211 2613   6.607   5.566   9.564 -0.2760 -0.3618 -0.6272
   20SAPC  H11R 2614   6.515   5.615   9.599  0.9928  1.8642 -0.1985
   20SAPC  C212 2615   6.620   5.550   9.432 -0.4008  0.6159 -0.5418
   20SAPC  H12R 2616   6.550   5.603   9.366 -2.0134  0.4026  0.9121
   20SAPC  C213 2617   6.738   5.470   9.369 -1.2400  0.3787  0.6985
   20SAPC  H13R 2618   6.704   5.364   9.360 -2.1616  0.5415  1.9628
   20SAPC  H13S 2619   6.833   5.481   9.426  0.0317  2.1023 -1.6090
   20SAPC  C214 2620   6.768   5.530   9.236 -0.2512  0.1788 -0.2134
   20SAPC  H14R 2621   6.854   5.598   9.230  1.7283 -1.6540  3.7606
   20SAPC  C215 2622   6.708   5.479   9.123  0.1303  0.0271  0.1611
   20SAPC  H15R 2623   6.711   5.539   9.031  2.7932 -0.9969 -0.5155
   20SAPC  C216 2624   6.612   5.362   9.110  0.1891  0.3982  0.1651
   20SAPC  H16R 2625   6.504   5.385   9.116  0.3457  1.5580 -1.0673
   20SAPC  H16S 2626   6.641   5.284   9.184 -2.9827 -0.8912  0.2094
   20SAPC  C217 2627   6.636   5.287   8.975 -0.4534  0.2162  0.4577
   20SAPC  H17R 2628   6.590   5.186   8.979 -1.5977  0.5428 -2.1476
   20SAPC  H17S 2629   6.745   5.271   8.960 -0.3905  1.2950 -0.3605
   20SAPC  C218 2630   6.558   5.348   8.854 -0.0360 -0.3936  0.2381
   20SAPC  H18R 2631   6.608   5.442   8.823 -0.8574  1.5812  4.2775
   20SAPC  H18S 2632   6.450   5.372   8.866 -0.5239 -1.7612 -1.0548
   20SAPC  C219 2633   6.569   5.242   8.741  0.1403 -0.2086  0.2507
   20SAPC  H19R 2634   6.524   5.146   8.773  0.7692 -0.1618  1.3211
   20SAPC  H19S 2635   6.673   5.210   8.719 -0.1423 -0.1540 -1.2776
   20SAPC  C220 2636   6.517   5.290   8.602  0.8821  0.0819  0.5809
   20SAPC  H20R 2637   6.407   5.303   8.608  1.1355  2.0062  2.0196
   20SAPC  H20S 2638   6.532   5.205   8.531 -0.7096 -0.0608  0.3926
   20SAPC  H20T 2639   6.572   5.383   8.576  0.4046  0.5767  1.3119
   20SAPC   C33 2640   6.301   5.556   9.974  0.4159 -0.3138 -0.4664
   20SAPC   H3X 2641   6.260   5.656   9.947 -0.7797 -0.3941  0.9506
   20SAPC   H3Y 2642   6.219   5.498  10.020 -0.7220 -1.2202 -3.3768
   20SAPC   C34 2643   6.326   5.485   9.844  1.2674 -0.3737 -0.0998
   20SAPC   H4X 2644   6.370   5.385   9.864  3.1355  0.4362  0.0580
   20SAPC   H4Y 2645   6.407   5.544   9.796  0.9801 -0.9845 -1.3878
   20SAPC   C35 2646   6.210   5.470   9.744  0.1231 -0.3693 -0.2330
   20SAPC   H5X 2647   6.160   5.568   9.730 -0.7053 -0.7639 -0.1117
   20SAPC   H5Y 2648   6.141   5.398   9.794  0.2308  1.6599  3.0704
   20SAPC   C36 2649   6.258   5.423   9.606  0.0596 -0.3325 -0.4527
   20SAPC   H6X 2650   6.316   5.328   9.598  0.0333 -0.3024 -1.0647
   20SAPC   H6Y 2651   6.334   5.494   9.567  1.1088 -0.2237  1.6275
   20SAPC   C37 2652   6.143   5.397   9.509  0.0025 -0.2191 -0.3832
   20SAPC   H7X 2653   6.072   5.482   9.507 -0.3486 -0.5142 -1.2851
   20SAPC   H7Y 2654   6.094   5.302   9.541 -2.3123  0.6023 -1.2643
   20SAPC   C38 2655   6.203   5.390   9.370  0.4481 -0.5821  0.5462
   20SAPC   H8X 2656   6.293   5.326   9.376  0.3450 -0.8468 -0.5542
   20SAPC   H8Y 2657   6.245   5.486   9.332  3.8723 -1.7211  1.1119
   20SAPC   C39 2658   6.116   5.320   9.264 -0.1545 -0.3577 -0.4611
   20SAPC   H9X 2659   6.015   5.365   9.256  0.5651  1.6058  0.6646
   20SAPC   H9Y 2660   6.106   5.216   9.300  0.2057 -0.0410  0.6025
   20SAPC  C310 2661   6.178   5.322   9.126  1.0494  0.1220 -0.7988
   20SAPC  H10X 2662   6.274   5.269   9.138  0.2426 -1.2013 -0.0046
   20SAPC  H10Y 2663   6.197   5.429   9.103 -0.9938  0.5949 -0.5559
   20SAPC  C311 2664   6.090   5.272   9.010  0.7235 -0.3923  0.0607
   20SAPC  H11X 2665   5.988   5.298   9.046  1.2103  1.3721  0.2406
   20SAPC  H11Y 2666   6.090   5.161   9.002 -0.6565 -0.3264 -1.8049
   20SAPC  C312 2667   6.144   5.329   8.874 -0.3153 -0.1492 -0.4217
   20SAPC  H12X 2668   6.230   5.268   8.838 -0.3757  0.2345 -1.2576
   20SAPC  H12Y 2669   6.181   5.434   8.872 -1.3861  0.2774 -3.2993
   20SAPC  C313 2670   6.037   5.333   8.767  0.4681  0.4624  0.4065
   20SAPC  H13X 2671   6.074   5.387   8.677 -0.7808 -0.3070 -0.6255
   20SAPC  H13Y 2672   5.944   5.381   8.805 -1.4533 -0.6419 -2.5491
   20SAPC  C314 2673   6.000   5.190   8.715  0.8739 -0.1710 -0.4048
   20SAPC  H14X 2674   5.965   5.141   8.808  1.4041 -0.5933 -0.4250
   20SAPC  H14Y 2675   6.097   5.146   8.682  1.1865 -0.7060  1.1489
   20SAPC  C315 2676   5.895   5.190   8.602  0.3558  0.1114 -0.1258
   20SAPC  H15X 2677   5.897   5.271   8.526 -1.5849 -0.3340 -0.7266
   20SAPC  H15Y 2678   5.804   5.218   8.660  2.0552  2.0907  1.7800
   20SAPC  C316 2679   5.873   5.051   8.543 -0.0016 -0.9775  0.1634
   20SAPC  H16X 2680   5.893   4.975   8.621 -1.5600  0.0319  1.6244
   20SAPC  H16Y 2681   5.947   5.029   8.463 -2.3068 -1.2460 -2.0076
   20SAPC  C317 2682   5.728   5.022   8.506  0.4277  0.0595 -0.0178
   20SAPC  H17X 2683   5.690   5.086   8.423  0.2050 -1.8824 -1.4834
   20SAPC  H17Y 2684   5.669   5.055   8.594  1.8078  0.4548  0.7985
   20SAPC  C318 2685   5.708   4.875   8.471 -0.1593  0.3083 -0.2662
   20SAPC  H18X 2686   5.713   4.817   8.566 -1.2072 -0.1708 -0.4953
   20SAPC  H18Y 2687   5.778   4.839   8.393 -1.2011 -0.4702 -0.8427
   20SAPC  H18Z 2688   5.604   4.855   8.440 -0.4627  0.3609  0.6955
   21SAPC     N 2689   6.606   5.228  10.958  0.2167 -0.5247 -0.6356
   21SAPC   C12 2690   6.591   5.167  10.823  0.1981  0.2723  0.2472
   21SAPC  H12A 2691   6.509   5.215  10.772 -0.0264  0.7653  1.0475
   21SAPC  H12B 2692   6.557   5.065  10.827 -1.4105  0.6744 -1.5230
   21SAPC   C13 2693   6.699   5.139  11.046  0.4528 -1.3581 -0.3220
   21SAPC  H13A 2694   6.709   5.179  11.146 -2.3754 -0.2794 -0.3661
   21SAPC  H13B 2695   6.658   5.041  11.066  0.1429 -0.7347  2.5573
   21SAPC  H13C 2696   6.802   5.130  11.017  1.1640 -2.2631  2.2386
   21SAPC   C14 2697   6.673   5.361  10.945 -0.5105  0.5817  0.5715
   21SAPC  H14A 2698   6.656   5.415  11.037  2.5239  0.8070  1.0779
   21SAPC  H14B 2699   6.776   5.344  10.920 -0.4534 -4.2602  2.8644
   21SAPC  H14C 2700   6.630   5.411  10.859 -0.7728  0.1674  0.4552
   21SAPC   C15 2701   6.475   5.257  11.028 -0.7169 -0.3063 -0.3379
   21SAPC  H15A 2702   6.405   5.308  10.964  0.1226  0.5163 -0.6262
   21SAPC  H15B 2703   6.430   5.167  11.069 -2.8985  0.5125 -0.7825
   21SAPC  H15C 2704   6.494   5.326  11.109  0.0506 -2.1261  1.1073
   21SAPC   C11 2705   6.717   5.167  10.733 -0.2492 -0.0532  0.2052
   21SAPC  H11A 2706   6.762   5.268  10.721  1.7879 -0.7689  1.4392
   21SAPC  H11B 2707   6.685   5.147  10.628 -0.1886  0.0479  0.1675
   21SAPC     P 2708   6.792   4.919  10.745  0.1401 -0.0852 -0.2915
   21SAPC   O13 2709   6.923   4.852  10.744  0.0115 -0.4021 -0.2409
   21SAPC   O14 2710   6.701   4.864  10.850  0.3667 -0.1612 -0.2160
   21SAPC   O12 2711   6.818   5.072  10.770  0.2581  0.0034 -1.1748
   21SAPC   O11 2712   6.712   4.909  10.613 -0.2885 -0.2800  0.4828
   21SAPC    C1 2713   6.759   4.837  10.493  0.4835  0.9091  0.0051
   21SAPC    HA 2714   6.850   4.777  10.514 -0.3779 -0.0371  1.1440
   21SAPC    HB 2715   6.676   4.767  10.467  1.0129 -0.1918  1.1853
   21SAPC    C2 2716   6.776   4.923  10.365  0.4693 -0.0058  0.1387
   21SAPC    HS 2717   6.828   4.862  10.287 -0.6969  1.8681 -2.2402
   21SAPC   O21 2718   6.862   5.035  10.398  0.2300  0.0217 -0.3078
   21SAPC   C21 2719   6.988   5.001  10.424  0.7927  0.5434  0.7813
   21SAPC   O22 2720   7.033   4.887  10.408 -0.5821  0.1296  0.2686
   21SAPC   C22 2721   7.049   5.125  10.485 -0.1931  0.0274  0.2721
   21SAPC   H2R 2722   7.025   5.213  10.422  0.0007  2.5690  3.4958
   21SAPC   H2S 2723   6.989   5.126  10.578 -1.0008 -0.6653 -0.2179
   21SAPC    C3 2724   6.638   4.965  10.314 -0.3926 -0.8507 -0.0556
   21SAPC    HX 2725   6.643   5.030  10.224 -0.7951 -0.7655 -0.0178
   21SAPC    HY 2726   6.595   5.030  10.393  1.3466  0.6161 -0.2452
   21SAPC   O31 2727   6.553   4.852  10.281 -0.5573 -0.8239 -0.5329
   21SAPC   C31 2728   6.584   4.772  10.185 -0.4422  0.0129  0.1119
   21SAPC   O32 2729   6.679   4.785  10.104  0.3823  0.5934  0.4080
   21SAPC   C32 2730   6.495   4.653  10.189  0.2306 -0.2839  0.3685
   21SAPC   H2X 2731   6.395   4.695  10.213  0.0657 -0.6844  0.3889
   21SAPC   H2Y 2732   6.528   4.585  10.270 -2.4935 -1.2059  0.7991
   21SAPC   C23 2733   7.205   5.101  10.505 -0.0370  0.1772  0.4867
   21SAPC   H3R 2734   7.215   5.009  10.566 -0.2943  1.0857  1.9404
   21SAPC   H3S 2735   7.244   5.188  10.562 -0.7603 -0.0228  1.3117
   21SAPC   C24 2736   7.285   5.084  10.373  0.6193 -0.2147 -0.4131
   21SAPC   H4R 2737   7.248   4.994  10.320 -0.8583 -0.0231  0.2395
   21SAPC   H4S 2738   7.394   5.076  10.397  0.3217 -0.0807  1.1006
   21SAPC   C25 2739   7.268   5.211  10.293 -0.5583 -0.3907  0.4720
   21SAPC   H5R 2740   7.304   5.296  10.352  2.5347 -1.4476  0.3023
   21SAPC   C26 2741   7.237   5.220  10.161 -0.1654  0.4200 -0.2727
   21SAPC   H6R 2742   7.222   5.322  10.121 -0.3256 -0.2298 -1.9594
   21SAPC   C27 2743   7.198   5.108  10.061 -0.1195  0.1058 -0.2905
   21SAPC   H7R 2744   7.294   5.056  10.038 -0.6556 -1.4142  0.7663
   21SAPC   H7S 2745   7.183   5.165   9.966  0.9862 -0.2847 -0.7181
   21SAPC   C28 2746   7.094   4.998  10.073  0.1252 -0.0297 -0.4045
   21SAPC   H8R 2747   7.060   4.981  10.177 -1.3628 -1.1707 -1.0415
   21SAPC   C29 2748   7.033   4.912   9.991 -0.5501 -0.1630  0.1783
   21SAPC   H9R 2749   6.963   4.837  10.032 -0.6929 -0.7685 -1.1475
   21SAPC  C210 2750   7.049   4.898   9.845  0.2430 -0.5575  0.2234
   21SAPC  H10R 2751   7.124   4.820   9.823  0.7155  0.0465 -0.3833
   21SAPC  H10S 2752   7.085   4.996   9.806  1.2205 -0.2092  1.9175
   21SAPC  C211 2753   6.916   4.866   9.781  0.4230 -0.5071 -0.4125
   21SAPC  H11R 2754   6.847   4.803   9.839  1.6178  0.7719  2.6261
   21SAPC  C212 2755   6.861   4.912   9.675 -0.0939  0.1839  0.3047
   21SAPC  H12R 2756   6.759   4.875   9.655  0.2902 -1.5180  1.3018
   21SAPC  C213 2757   6.921   5.009   9.573 -0.1812 -0.1890 -0.7211
   21SAPC  H13R 2758   6.989   5.081   9.622 -1.0941 -1.5452  2.8222
   21SAPC  H13S 2759   6.844   5.069   9.520  2.3543  2.4941 -1.5945
   21SAPC  C214 2760   7.002   4.936   9.465  0.4228 -0.2671 -0.7791
   21SAPC  H14R 2761   7.092   4.885   9.501 -0.1771 -0.8119 -0.0281
   21SAPC  C215 2762   6.987   4.944   9.337  0.3587 -0.3723  0.0703
   21SAPC  H15R 2763   7.061   4.897   9.270 -0.2676  1.4697 -2.0441
   21SAPC  C216 2764   6.882   5.025   9.263  0.6167  0.4803 -0.0955
   21SAPC  H16R 2765   6.927   5.109   9.206 -0.0363  1.5752  0.9675
   21SAPC  H16S 2766   6.807   5.075   9.327 -0.7387 -1.6445  0.0941
   21SAPC  C217 2767   6.801   4.943   9.163 -0.6717  0.4643  0.3382
   21SAPC  H17R 2768   6.706   4.995   9.140 -0.6074  0.6995  0.5854
   21SAPC  H17S 2769   6.794   4.846   9.216  0.3975  0.1103 -0.1390
   21SAPC  C218 2770   6.881   4.920   9.033  0.3334  0.7460  0.2632
   21SAPC  H18R 2771   6.883   4.810   9.026  0.3594  0.5929  2.1739
   21SAPC  H18S 2772   6.986   4.954   9.045  1.3408 -1.4754 -1.5545
   21SAPC  C219 2773   6.819   4.979   8.903 -0.2454 -0.4595  0.1972
   21SAPC  H19R 2774   6.826   5.086   8.931 -0.0607 -0.6288  0.8005
   21SAPC  H19S 2775   6.713   4.947   8.890  0.4012 -3.5465  1.6760
   21SAPC  C220 2776   6.901   4.950   8.771  0.1070 -0.0117 -0.5684
   21SAPC  H20R 2777   6.845   4.984   8.682  2.2267  0.5901 -1.7347
   21SAPC  H20S 2778   6.931   4.843   8.768  0.1611 -0.0093 -0.1732
   21SAPC  H20T 2779   7.000   5.001   8.773 -0.5287  1.2523  0.9739
   21SAPC   C33 2780   6.481   4.574  10.057  0.0091 -0.2195  0.2872
   21SAPC   H3X 2781   6.570   4.525  10.012 -1.0841  0.9382 -3.5076
   21SAPC   H3Y 2782   6.452   4.652   9.983  0.4048 -0.4071 -0.0723
   21SAPC   C34 2783   6.387   4.457  10.075 -0.5931  0.8027  0.0774
   21SAPC   H4X 2784   6.299   4.502  10.125 -0.5858 -0.1625  1.0099
   21SAPC   H4Y 2785   6.426   4.380  10.145 -2.1885 -1.2491 -1.1475
   21SAPC   C35 2786   6.346   4.383   9.945  0.1408 -0.2866 -0.5788
   21SAPC   H5X 2787   6.275   4.300   9.966  0.9229 -0.3608  2.0260
   21SAPC   H5Y 2788   6.434   4.324   9.911 -0.1387 -0.7168 -0.5728
   21SAPC   C36 2789   6.313   4.479   9.829 -0.3854 -0.0202 -0.1537
   21SAPC   H6X 2790   6.388   4.556   9.802  2.2088 -3.0179 -2.1833
   21SAPC   H6Y 2791   6.221   4.536   9.854 -1.4077 -2.0414  0.9559
   21SAPC   C37 2792   6.293   4.405   9.697 -0.0080  0.5159  0.3178
   21SAPC   H7X 2793   6.195   4.354   9.712 -0.0489  1.1147  2.3864
   21SAPC   H7Y 2794   6.368   4.324   9.692 -0.9769 -0.5469  2.0547
   21SAPC   C38 2795   6.297   4.493   9.570  0.7624  0.3900  0.5414
   21SAPC   H8X 2796   6.405   4.517   9.559  0.1180  2.7319 -1.6563
   21SAPC   H8Y 2797   6.250   4.593   9.584  0.4192  0.4002 -0.6247
   21SAPC   C39 2798   6.252   4.413   9.444 -0.5074 -0.1504  0.0447
   21SAPC   H9X 2799   6.141   4.422   9.445 -0.4060  1.6945  1.9710
   21SAPC   H9Y 2800   6.268   4.304   9.448 -1.4353 -0.3640 -1.4299
   21SAPC  C310 2801   6.321   4.480   9.318  0.2308  0.0793 -0.4142
   21SAPC  H10X 2802   6.431   4.478   9.328  0.2373 -0.7825 -0.6055
   21SAPC  H10Y 2803   6.303   4.590   9.311  0.1159  0.1246  0.3945
   21SAPC  C311 2804   6.272   4.400   9.190  0.6042  0.6670 -0.0064
   21SAPC  H11X 2805   6.161   4.402   9.188  0.5490 -0.6683  0.3117
   21SAPC  H11Y 2806   6.306   4.294   9.183 -0.0581  0.4863 -0.6746
   21SAPC  C312 2807   6.309   4.474   9.062  0.0185  0.2845 -0.1621
   21SAPC  H12X 2808   6.408   4.523   9.073 -0.7656  1.5489  1.5323
   21SAPC  H12Y 2809   6.234   4.554   9.044 -0.9596 -0.4782  0.4323
   21SAPC  C313 2810   6.305   4.384   8.938  0.1290  0.3850  0.0230
   21SAPC  H13X 2811   6.198   4.353   8.934 -1.4079  4.7118  1.4663
   21SAPC  H13Y 2812   6.363   4.290   8.954  1.2846  1.0108 -0.3667
   21SAPC  C314 2813   6.355   4.452   8.823  0.5713  0.1751  0.7824
   21SAPC  H14X 2814   6.463   4.472   8.838  0.3231  1.2127  1.3010
   21SAPC  H14Y 2815   6.298   4.542   8.792 -2.3438 -2.3943 -2.1428
   21SAPC  C315 2816   6.339   4.358   8.698 -0.4442  0.0925  0.5033
   21SAPC  H15X 2817   6.386   4.260   8.717  0.7270 -0.0878 -2.6846
   21SAPC  H15Y 2818   6.393   4.411   8.617 -0.7427  0.8852  0.8105
   21SAPC  C316 2819   6.195   4.356   8.640 -0.2139 -0.8481  0.1237
   21SAPC  H16X 2820   6.157   4.458   8.615  0.7407 -0.6207 -0.4357
   21SAPC  H16Y 2821   6.121   4.316   8.713  0.8942  2.1909  3.2073
   21SAPC  C317 2822   6.201   4.285   8.501  0.2945 -0.2111 -0.1764
   21SAPC  H17X 2823   6.266   4.196   8.511 -0.8966 -1.6074 -3.4125
   21SAPC  H17Y 2824   6.255   4.346   8.426 -1.0316  0.1338 -0.8911
   21SAPC  C318 2825   6.069   4.224   8.444 -0.5210 -0.0835 -0.0609
   21SAPC  H18X 2826   6.024   4.176   8.534 -1.3428 -1.6144 -1.2415
   21SAPC  H18Y 2827   6.085   4.144   8.368 -1.0734  1.0489 -1.4092
   21SAPC  H18Z 2828   6.003   4.299   8.396 -0.7082 -0.6800 -0.7595
   22SAPC     N 2829   4.786   2.734  10.718  0.0675 -0.0969 -0.8309
   22SAPC   C12 2830   4.740   2.860  10.787  0.2656 -0.4750  0.1580
   22SAPC  H12A 2831   4.739   2.847  10.895 -0.2494  2.5042  0.6119
   22SAPC  H12B 2832   4.634   2.869  10.769 -0.0926 -0.9548  1.8031
   22SAPC   C13 2833   4.720   2.611  10.768 -0.0660 -0.1578 -0.2447
   22SAPC  H13A 2834   4.734   2.604  10.875 -1.1651  1.1873  0.0183
   22SAPC  H13B 2835   4.615   2.609  10.744 -0.1018 -0.7801 -0.0526
   22SAPC  H13C 2836   4.768   2.525  10.724  1.2304 -0.4247  1.5468
   22SAPC   C14 2837   4.769   2.741  10.570  0.0041  0.0763  0.0715
   22SAPC  H14A 2838   4.821   2.823  10.523 -1.1803  0.3929 -0.7399
   22SAPC  H14B 2839   4.806   2.652  10.521  0.8215  0.7709 -0.5853
   22SAPC  H14C 2840   4.662   2.751  10.557 -0.4560 -1.4867  2.0433
   22SAPC   C15 2841   4.935   2.729  10.746  0.2914  0.7251 -0.2146
   22SAPC  H15A 2842   4.966   2.709  10.847  2.5238 -1.2619 -1.1933
   22SAPC  H15B 2843   4.965   2.635  10.702 -0.2531  0.7038 -0.5629
   22SAPC  H15C 2844   4.992   2.811  10.706  0.3686  0.5339 -0.5041
   22SAPC   C11 2845   4.808   2.991  10.757  0.1058  0.0765 -0.5426
   22SAPC  H11A 2846   4.914   2.972  10.785 -0.2962 -0.6244  0.5475
   22SAPC  H11B 2847   4.783   3.084  10.812  2.3005 -0.0159  0.7405
   22SAPC     P 2848   4.663   3.083  10.572  0.2233 -0.0118 -0.2816
   22SAPC   O13 2849   4.558   3.008  10.648  0.2500  0.6260 -0.3566
   22SAPC   O14 2850   4.666   3.230  10.597 -0.6685 -0.1644  0.2034
   22SAPC   O12 2851   4.795   3.022  10.618  0.0525  0.2769 -0.3464
   22SAPC   O11 2852   4.657   3.042  10.416 -0.3479 -0.0095 -0.5400
   22SAPC    C1 2853   4.780   3.081  10.343 -0.6611 -0.4044  1.0804
   22SAPC    HA 2854   4.872   3.037  10.387  0.6467  0.5855 -0.5750
   22SAPC    HB 2855   4.769   3.034  10.243  0.5191 -0.4188  0.9411
   22SAPC    C2 2856   4.804   3.230  10.314 -0.2377  0.0095 -0.1420
   22SAPC    HS 2857   4.817   3.277  10.414 -3.0166  0.5697  0.0409
   22SAPC   O21 2858   4.690   3.277  10.240  0.5795 -0.2897 -0.2887
   22SAPC   C21 2859   4.685   3.410  10.242 -0.3639 -0.3779  0.2718
   22SAPC   O22 2860   4.759   3.479  10.306 -0.3204  0.1092 -0.5948
   22SAPC   C22 2861   4.575   3.462  10.148  0.4062  0.1625  0.4013
   22SAPC   H2R 2862   4.508   3.374  10.132  1.3533 -0.0523 -3.4513
   22SAPC   H2S 2863   4.511   3.538  10.197 -0.4907 -0.6366  0.5078
   22SAPC    C3 2864   4.942   3.255  10.249 -0.3295  0.0860 -0.1422
   22SAPC    HX 2865   5.030   3.242  10.317  2.2108  1.5390 -2.9196
   22SAPC    HY 2866   4.938   3.360  10.213  1.1998  0.5486  0.8947
   22SAPC   O31 2867   4.956   3.166  10.138 -1.0376  0.2296  0.0071
   22SAPC   C31 2868   5.022   3.210  10.027  0.5231 -0.2103 -0.4073
   22SAPC   O32 2869   5.075   3.319  10.031  0.1898  0.0252  0.3501
   22SAPC   C32 2870   5.001   3.121   9.910 -0.1550 -0.1250  0.4654
   22SAPC   H2X 2871   4.894   3.111   9.880 -0.0724 -0.3521  0.2438
   22SAPC   H2Y 2872   5.051   3.022   9.905 -0.5699 -0.3149 -0.0898
   22SAPC   C23 2873   4.628   3.509  10.012 -0.1271  0.1759  0.0712
   22SAPC   H3R 2874   4.679   3.605  10.031 -0.1477 -0.1508  1.8876
   22SAPC   H3S 2875   4.546   3.524   9.939  0.6693 -2.2979 -1.4738
   22SAPC   C24 2876   4.722   3.400   9.947 -0.6121 -0.5858 -0.8986
   22SAPC   H4R 2877   4.657   3.314   9.918 -0.8189 -0.1562 -1.7248
   22SAPC   H4S 2878   4.788   3.364  10.029 -3.6451 -1.1625  1.4703
   22SAPC   C25 2879   4.807   3.453   9.834 -0.0300 -0.1191 -0.2392
   22SAPC   H5R 2880   4.883   3.527   9.862 -0.8375  0.6290  0.0039
   22SAPC   C26 2881   4.804   3.423   9.706  0.3860  0.3219  0.1357
   22SAPC   H6R 2882   4.878   3.465   9.636  0.0188  2.1874  0.7937
   22SAPC   C27 2883   4.708   3.318   9.649 -0.1881 -0.0486 -0.0169
   22SAPC   H7R 2884   4.683   3.242   9.725  0.5550  0.0788  0.3649
   22SAPC   H7S 2885   4.767   3.256   9.578 -1.1075 -0.4130 -0.4842
   22SAPC   C28 2886   4.583   3.385   9.588 -0.1212  0.8779  0.6843
   22SAPC   H8R 2887   4.530   3.461   9.647 -0.3811  0.1062  1.4744
   22SAPC   C29 2888   4.547   3.350   9.460  0.4740 -0.2199 -0.5530
   22SAPC   H9R 2889   4.460   3.404   9.419  1.0062  1.2145  0.1525
   22SAPC  C210 2890   4.601   3.254   9.359 -0.4507  0.7673  1.0881
   22SAPC  H10R 2891   4.523   3.216   9.289 -1.0834  2.8284  0.5840
   22SAPC  H10S 2892   4.633   3.168   9.421 -1.6254 -0.3090  0.2515
   22SAPC  C211 2893   4.707   3.303   9.271 -0.1608 -0.4667 -0.3362
   22SAPC  H11R 2894   4.796   3.341   9.323 -1.2787  3.0616 -0.7004
   22SAPC  C212 2895   4.712   3.301   9.135  0.4099  0.5133  0.1474
   22SAPC  H12R 2896   4.804   3.341   9.089 -0.4746  2.1352 -0.2811
   22SAPC  C213 2897   4.608   3.253   9.039 -0.7101 -0.1333  0.2247
   22SAPC  H13R 2898   4.527   3.200   9.094 -0.2072  1.1380  2.2622
   22SAPC  H13S 2899   4.672   3.184   8.979  3.1029  3.3148 -0.0609
   22SAPC  C214 2900   4.562   3.362   8.948 -0.2085 -0.2182 -0.8578
   22SAPC  H14R 2901   4.638   3.440   8.938 -0.1458  0.0997  1.4528
   22SAPC  C215 2902   4.456   3.377   8.874  0.1478 -0.8748 -0.7198
   22SAPC  H15R 2903   4.452   3.466   8.810  2.0648  0.2152  0.5788
   22SAPC  C216 2904   4.342   3.288   8.859 -0.5317 -0.4487 -0.2798
   22SAPC  H16R 2905   4.338   3.197   8.923  1.0272 -1.0720 -0.9943
   22SAPC  H16S 2906   4.335   3.256   8.752 -1.2525 -0.7244 -0.1554
   22SAPC  C217 2907   4.198   3.356   8.878 -0.2087 -0.6356  1.0975
   22SAPC  H17R 2908   4.210   3.449   8.817 -2.3259 -0.3543  1.0176
   22SAPC  H17S 2909   4.180   3.388   8.983  1.5628 -2.5053  2.0258
   22SAPC  C218 2910   4.079   3.272   8.820  1.0078 -0.3054  0.2165
   22SAPC  H18R 2911   3.989   3.322   8.862  0.9646  1.2434 -1.6287
   22SAPC  H18S 2912   4.091   3.172   8.868 -1.5475 -0.2483  1.1846
   22SAPC  C219 2913   4.062   3.277   8.668  0.2282  0.1193 -0.2093
   22SAPC  H19R 2914   4.164   3.295   8.627  1.3138 -0.1890  2.1546
   22SAPC  H19S 2915   3.988   3.358   8.659 -0.7687 -0.4926  1.9059
   22SAPC  C220 2916   3.984   3.155   8.606  0.0443  0.2173  0.0017
   22SAPC  H20R 2917   4.051   3.066   8.601  0.0871  0.2400  0.1699
   22SAPC  H20S 2918   3.964   3.179   8.500 -0.3032  0.2267  0.0703
   22SAPC  H20T 2919   3.884   3.126   8.645 -0.7975 -0.8376 -2.6809
   22SAPC   C33 2920   5.075   3.171   9.782 -0.2819 -0.7062  1.0114
   22SAPC   H3X 2921   5.185   3.178   9.799 -0.1786  0.0535  0.1140
   22SAPC   H3Y 2922   5.045   3.275   9.759 -0.3011 -0.8291  0.4734
   22SAPC   C34 2923   5.049   3.091   9.655 -0.1376 -0.4597  0.7954
   22SAPC   H4X 2924   4.943   3.108   9.629 -0.1435  0.7417  1.5263
   22SAPC   H4Y 2925   5.066   2.981   9.654 -0.2327 -0.4849  1.4223
   22SAPC   C35 2926   5.142   3.147   9.542 -0.1954 -0.4625  0.7359
   22SAPC   H5X 2927   5.251   3.126   9.552  0.7945  3.8174  0.7045
   22SAPC   H5Y 2928   5.126   3.257   9.547 -0.8812 -0.5484  0.4428
   22SAPC   C36 2929   5.094   3.090   9.409 -0.0289 -0.0674 -1.0339
   22SAPC   H6X 2930   4.986   3.068   9.421 -0.5400  2.3930 -0.6171
   22SAPC   H6Y 2931   5.137   2.989   9.397 -0.0307 -0.5306  1.9829
   22SAPC   C37 2932   5.117   3.182   9.292 -0.3648  0.2745  0.1178
   22SAPC   H7X 2933   5.226   3.206   9.292 -0.4443  0.6714  1.0279
   22SAPC   H7Y 2934   5.065   3.280   9.302  0.1409  0.3631  2.6515
   22SAPC   C38 2935   5.080   3.114   9.156  0.4599 -0.9668 -0.3580
   22SAPC   H8X 2936   4.969   3.120   9.145  0.2401  0.0564  1.8508
   22SAPC   H8Y 2937   5.122   3.012   9.147 -0.3281 -1.3590  0.2614
   22SAPC   C39 2938   5.142   3.194   9.045  0.4717 -0.0702  0.3744
   22SAPC   H9X 2939   5.250   3.167   9.052  0.1416 -1.4122  0.6909
   22SAPC   H9Y 2940   5.128   3.303   9.059  0.0626 -0.1960  1.0020
   22SAPC  C310 2941   5.070   3.153   8.906  0.5850 -0.1029  0.7736
   22SAPC  H10X 2942   5.127   3.217   8.835 -1.0321  1.8374  1.1161
   22SAPC  H10Y 2943   4.962   3.176   8.918  0.6383  0.6438 -0.0604
   22SAPC  C311 2944   5.096   3.007   8.878 -0.1868 -0.0850 -0.0749
   22SAPC  H11X 2945   5.017   2.973   8.808 -1.6219 -0.5607  1.6970
   22SAPC  H11Y 2946   5.088   2.938   8.965  2.9068  0.4374  0.7613
   22SAPC  C312 2947   5.236   2.992   8.803  0.2116  0.1915 -0.4994
   22SAPC  H12X 2948   5.287   2.908   8.856 -0.3874 -0.1805 -0.5011
   22SAPC  H12Y 2949   5.291   3.088   8.811  0.6823  0.1782 -2.8979
   22SAPC  C313 2950   5.223   2.958   8.658 -0.2846  0.8137  0.3055
   22SAPC  H13X 2951   5.128   2.902   8.648  0.3898 -0.1919 -0.7736
   22SAPC  H13Y 2952   5.311   2.892   8.640 -0.9367 -0.5693  1.9787
   22SAPC  C314 2953   5.213   3.077   8.569  0.8706 -0.0483  0.4899
   22SAPC  H14X 2954   5.295   3.149   8.588  0.1590  1.1925 -0.9526
   22SAPC  H14Y 2955   5.122   3.134   8.597 -1.5520 -3.0776 -0.5222
   22SAPC  C315 2956   5.217   3.050   8.417 -0.3202  0.4171 -0.4641
   22SAPC  H15X 2957   5.138   2.974   8.394  0.0658 -0.4405  0.8759
   22SAPC  H15Y 2958   5.312   2.997   8.397 -0.4261  1.0150 -2.7618
   22SAPC  C316 2959   5.195   3.174   8.327 -1.1157 -0.1418  0.6758
   22SAPC  H16X 2960   5.105   3.228   8.362 -0.1747  2.1227 -0.2245
   22SAPC  H16Y 2961   5.174   3.142   8.222  1.7480 -0.6134  0.1403
   22SAPC  C317 2962   5.310   3.273   8.337 -0.4907 -0.5923  0.1781
   22SAPC  H17X 2963   5.299   3.324   8.435 -0.0312 -0.0154 -0.0724
   22SAPC  H17Y 2964   5.285   3.346   8.257  1.9227 -0.5617 -0.6134
   22SAPC  C318 2965   5.452   3.225   8.317  0.5343 -0.0637  0.4212
   22SAPC  H18X 2966   5.467   3.189   8.213 -3.1416 -0.0293 -0.2570
   22SAPC  H18Y 2967   5.474   3.137   8.381  2.1533  0.1632  0.2140
   22SAPC  H18Z 2968   5.528   3.302   8.342 -0.2406  1.4492 -1.5575
   23SAPC     N 2969   6.519   2.602  10.893 -0.5576  0.4165  1.0965
   23SAPC   C12 2970   6.388   2.580  10.815  0.3399 -0.3351 -0.5331
   23SAPC  H12A 2971   6.361   2.679  10.780 -0.3067 -0.8855 -1.6566
   23SAPC  H12B 2972   6.307   2.563  10.884 -0.6977 -1.0289 -1.8844
   23SAPC   C13 2973   6.630   2.627  10.790  0.8260  0.3986 -0.2135
   23SAPC  H13A 2974   6.608   2.708  10.722  0.9864  1.2438  0.7096
   23SAPC  H13B 2975   6.717   2.669  10.838 -1.2178  1.4814  2.8483
   23SAPC  H13C 2976   6.651   2.536  10.736 -0.6502 -1.2577  1.8386
   23SAPC   C14 2977   6.515   2.720  10.977  0.4587  0.0639 -0.1839
   23SAPC  H14A 2978   6.480   2.806  10.922  1.7460  1.2705  0.8210
   23SAPC  H14B 2979   6.451   2.689  11.059 -0.0527  0.5783 -0.3788
   23SAPC  H14C 2980   6.604   2.750  11.029  0.2853 -0.9928  0.7825
   23SAPC   C15 2981   6.546   2.482  10.976 -0.5002 -0.4946 -0.3603
   23SAPC  H15A 2982   6.530   2.394  10.915 -0.2019 -2.2253  1.9202
   23SAPC  H15B 2983   6.643   2.474  11.023 -0.4104 -0.2124 -0.4949
   23SAPC  H15C 2984   6.472   2.479  11.055 -0.7776 -0.2606 -0.6103
   23SAPC   C11 2985   6.374   2.476  10.696 -0.1969  0.2011 -0.2177
   23SAPC  H11A 2986   6.455   2.494  10.621  0.0292 -1.4304 -0.4173
   23SAPC  H11B 2987   6.278   2.478  10.640 -0.2582 -1.3126 -0.2132
   23SAPC     P 2988   6.274   2.281  10.842 -0.5477  0.6199 -0.1948
   23SAPC   O13 2989   6.326   2.152  10.902 -0.3613 -0.2229 -0.5997
   23SAPC   O14 2990   6.224   2.379  10.939 -0.0879  0.1423  0.0691
   23SAPC   O12 2991   6.387   2.342  10.747  0.4577  0.3193 -0.1429
   23SAPC   O11 2992   6.162   2.249  10.735  0.2089 -0.6785  0.3325
   23SAPC    C1 2993   6.187   2.146  10.640 -0.5574  0.2150 -0.1649
   23SAPC    HA 2994   6.249   2.061  10.674  1.8209  1.4639 -1.1616
   23SAPC    HB 2995   6.091   2.103  10.604 -0.3021 -0.6695  0.1935
   23SAPC    C2 2996   6.245   2.194  10.507 -0.4058 -0.5610  0.2622
   23SAPC    HS 2997   6.346   2.237  10.524 -0.6848 -0.0968  0.7792
   23SAPC   O21 2998   6.159   2.304  10.462 -0.1996  0.3056 -0.0101
   23SAPC   C21 2999   6.198   2.392  10.363 -0.2428  0.0697 -0.6378
   23SAPC   O22 3000   6.315   2.411  10.331  0.6634  0.8858 -0.5304
   23SAPC   C22 3001   6.074   2.451  10.301  0.4397 -0.5477 -0.1163
   23SAPC   H2R 3002   5.981   2.395  10.321  0.3008  0.2822  1.7140
   23SAPC   H2S 3003   6.064   2.559  10.325  0.0087 -0.3596 -1.0873
   23SAPC    C3 3004   6.250   2.085  10.403 -0.3778  0.5695 -0.3209
   23SAPC    HX 3005   6.149   2.046  10.378 -0.2758  0.9618 -1.4286
   23SAPC    HY 3006   6.315   2.007  10.447 -0.9178 -0.3119 -1.0532
   23SAPC   O31 3007   6.311   2.122  10.278  0.3223  0.2283  0.0948
   23SAPC   C31 3008   6.297   2.029  10.183 -0.1063  0.4451  0.1311
   23SAPC   O32 3009   6.261   1.911  10.200 -0.4164  0.2977  0.2034
   23SAPC   C32 3010   6.317   2.100  10.046  0.1941  0.2108 -0.4034
   23SAPC   H2X 3011   6.411   2.052  10.011 -1.2012 -2.4436 -0.7819
   23SAPC   H2Y 3012   6.321   2.209  10.067 -2.5173  0.1402  0.8637
   23SAPC   C23 3013   6.095   2.462  10.148  0.5395  0.3952 -0.1201
   23SAPC   H3R 3014   6.088   2.366  10.092  0.0542  0.5116 -0.2649
   23SAPC   H3S 3015   6.200   2.494  10.137  0.8817 -0.1378  1.4004
   23SAPC   C24 3016   6.011   2.564  10.073 -0.4816 -0.3176 -0.3231
   23SAPC   H4R 3017   6.050   2.571   9.969 -2.0259 -0.8721 -0.9615
   23SAPC   H4S 3018   6.017   2.664  10.123 -3.1172 -0.3038  0.0840
   23SAPC   C25 3019   5.867   2.518  10.067  0.0504 -0.2667  0.2854
   23SAPC   H5R 3020   5.833   2.527  10.171  2.2728  0.3652  1.0303
   23SAPC   C26 3021   5.803   2.476   9.955 -0.0700 -0.5225 -0.2056
   23SAPC   H6R 3022   5.702   2.436   9.974  0.6149 -1.2451  2.2610
   23SAPC   C27 3023   5.854   2.456   9.810 -0.0188  0.2026  0.1990
   23SAPC   H7R 3024   5.965   2.454   9.811  0.0096  0.2450 -1.0267
   23SAPC   H7S 3025   5.820   2.539   9.745 -0.5411  0.9948  1.4450
   23SAPC   C28 3026   5.824   2.325   9.753  0.6029  0.2516 -0.3992
   23SAPC   H8R 3027   5.826   2.240   9.822 -0.6632  1.4694  1.1794
   23SAPC   C29 3028   5.762   2.303   9.627  0.0527  0.1859 -0.7776
   23SAPC   H9R 3029   5.762   2.199   9.591 -0.5186  0.1095 -0.5620
   23SAPC  C210 3030   5.713   2.408   9.533 -0.0053  0.2513 -0.9559
   23SAPC  H10R 3031   5.654   2.474   9.600 -0.4286  0.6360 -1.6993
   23SAPC  H10S 3032   5.638   2.359   9.467  0.2925  1.2360 -2.0643
   23SAPC  C211 3033   5.813   2.494   9.462 -0.0747  0.2745  0.5102
   23SAPC  H11R 3034   5.900   2.521   9.524  0.0019 -1.0554  1.0058
   23SAPC  C212 3035   5.811   2.542   9.335  0.7822 -0.1108 -0.5988
   23SAPC  H12R 3036   5.889   2.608   9.293 -0.5632  0.9918 -1.4678
   23SAPC  C213 3037   5.717   2.527   9.218 -0.1269 -0.4793 -0.1554
   23SAPC  H13R 3038   5.715   2.621   9.159 -0.6934 -1.2521 -1.4183
   23SAPC  H13S 3039   5.613   2.508   9.253  0.5383 -3.3935  0.4423
   23SAPC  C214 3040   5.742   2.402   9.141  0.8687  0.0918 -0.4119
   23SAPC  H14R 3041   5.696   2.316   9.192 -0.4232 -0.0835 -1.8021
   23SAPC  C215 3042   5.803   2.395   9.021  0.3683 -0.0607 -0.4151
   23SAPC  H15R 3043   5.795   2.300   8.966  0.1998 -1.9874  2.7057
   23SAPC  C216 3044   5.861   2.507   8.944  0.0206  0.2134  0.5195
   23SAPC  H16R 3045   5.891   2.585   9.018  3.1536 -1.3285  1.0453
   23SAPC  H16S 3046   5.786   2.556   8.878  1.3052 -0.8483 -1.8547
   23SAPC  C217 3047   5.972   2.468   8.847  0.0091  0.3297  0.3869
   23SAPC  H17R 3048   5.943   2.382   8.783  1.8994  0.2023 -0.3564
   23SAPC  H17S 3049   6.069   2.444   8.896  2.0133  0.6076 -3.1206
   23SAPC  C218 3050   5.991   2.591   8.748  0.3090 -0.2979 -0.0831
   23SAPC  H18R 3051   6.022   2.680   8.807  1.7028 -0.7392 -0.1024
   23SAPC  H18S 3052   5.892   2.610   8.701  0.0769 -3.7311 -1.2337
   23SAPC  C219 3053   6.111   2.572   8.645  0.7626 -0.1001  0.4449
   23SAPC  H19R 3054   6.100   2.476   8.589  0.7576 -1.0246  1.9633
   23SAPC  H19S 3055   6.210   2.578   8.696 -0.2092 -2.5269  2.8361
   23SAPC  C220 3056   6.090   2.680   8.537 -0.0894  0.0353 -0.2040
   23SAPC  H20R 3057   6.179   2.698   8.472 -1.9449  1.0917 -2.6383
   23SAPC  H20S 3058   6.061   2.777   8.584 -1.4893 -0.0631 -0.8095
   23SAPC  H20T 3059   6.004   2.647   8.475  0.1194  1.0996 -1.1007
   23SAPC   C33 3060   6.196   2.080   9.949 -0.4958  0.0547  0.5500
   23SAPC   H3X 3061   6.105   2.132   9.986 -0.6399  0.8575 -0.8644
   23SAPC   H3Y 3062   6.163   1.974   9.937 -2.4405  0.7522 -0.6925
   23SAPC   C34 3063   6.219   2.123   9.799  0.3619  0.4105  0.2096
   23SAPC   H4X 3064   6.318   2.084   9.767  0.9165  0.7881  1.3811
   23SAPC   H4Y 3065   6.235   2.233   9.794 -0.4869  0.5282  0.0591
   23SAPC   C35 3066   6.101   2.077   9.700  0.3159 -0.4574  0.5051
   23SAPC   H5X 3067   6.003   2.096   9.748  0.4785 -1.8227  1.4532
   23SAPC   H5Y 3068   6.089   1.966   9.696 -2.7207 -0.1828 -0.7687
   23SAPC   C36 3069   6.103   2.158   9.568  0.1918  0.6324  1.1118
   23SAPC   H6X 3070   6.208   2.192   9.552  0.0181  0.0333 -1.8601
   23SAPC   H6Y 3071   6.051   2.255   9.582  2.4655  1.9945  0.7943
   23SAPC   C37 3072   6.077   2.074   9.443  0.0929 -0.2360  0.6524
   23SAPC   H7X 3073   5.969   2.048   9.449 -0.1418  0.4510 -0.3281
   23SAPC   H7Y 3074   6.138   1.982   9.449 -0.4351 -0.6560 -0.1758
   23SAPC   C38 3075   6.097   2.144   9.303 -0.3341  0.1827 -0.6020
   23SAPC   H8X 3076   6.205   2.170   9.293 -0.0386 -1.2654 -1.5523
   23SAPC   H8Y 3077   6.048   2.243   9.292 -0.2125  0.2279 -0.7430
   23SAPC   C39 3078   6.055   2.056   9.183  0.1329 -0.5554  0.3618
   23SAPC   H9X 3079   5.946   2.069   9.168  0.4444 -0.5890 -2.4338
   23SAPC   H9Y 3080   6.095   1.954   9.202 -0.8995 -0.6469  2.3498
   23SAPC  C310 3081   6.112   2.131   9.064  0.1488 -0.5047 -0.2652
   23SAPC  H10X 3082   6.223   2.134   9.075 -0.0640 -1.4123  3.2389
   23SAPC  H10Y 3083   6.085   2.239   9.069 -2.6584 -1.1642  0.2127
   23SAPC  C311 3084   6.073   2.067   8.932  0.1399  0.2751 -0.0898
   23SAPC  H11X 3085   5.964   2.083   8.915 -0.1710 -1.4132  0.1137
   23SAPC  H11Y 3086   6.083   1.956   8.930 -1.0929  0.1465 -1.8686
   23SAPC  C312 3087   6.162   2.129   8.823 -0.8299 -0.2710  0.7767
   23SAPC  H12X 3088   6.263   2.095   8.855 -0.9284 -0.5285  0.8109
   23SAPC  H12Y 3089   6.158   2.239   8.838  1.0079 -0.1536  0.5769
   23SAPC  C313 3090   6.152   2.082   8.681  0.3864 -0.0127 -0.2117
   23SAPC  H13X 3091   6.050   2.102   8.642 -0.1384  0.9735  1.5403
   23SAPC  H13Y 3092   6.180   1.975   8.675 -0.3062 -0.1289 -1.5993
   23SAPC  C314 3093   6.247   2.162   8.596 -0.6078 -0.0029  0.1233
   23SAPC  H14X 3094   6.345   2.166   8.647 -0.1048  0.9095 -0.8817
   23SAPC  H14Y 3095   6.210   2.267   8.601  3.6706  1.6918  1.2127
   23SAPC  C315 3096   6.255   2.110   8.449  0.6007 -0.1128  0.1654
   23SAPC  H15X 3097   6.286   2.003   8.450 -1.7970 -0.8513  0.3339
   23SAPC  H15Y 3098   6.337   2.163   8.396 -0.8690  1.4268 -0.6404
   23SAPC  C316 3099   6.118   2.132   8.365 -0.0625 -0.0808 -0.1044
   23SAPC  H16X 3100   6.113   2.232   8.318  0.4101 -0.1367 -0.2733
   23SAPC  H16Y 3101   6.021   2.118   8.418 -1.6685  2.6291 -2.0579
   23SAPC  C317 3102   6.114   2.037   8.245 -0.4242  0.8639 -0.1723
   23SAPC  H17X 3103   6.136   1.936   8.287 -2.6248  1.4748  2.6843
   23SAPC  H17Y 3104   6.192   2.080   8.178 -0.9867  0.4280 -1.1392
   23SAPC  C318 3105   5.985   2.026   8.169  0.3747  0.2779  0.3424
   23SAPC  H18X 3106   5.897   2.006   8.234  1.2125  0.9278  1.7284
   23SAPC  H18Y 3107   5.981   1.935   8.107 -0.2176 -0.3059  1.2182
   23SAPC  H18Z 3108   5.966   2.112   8.101  1.9601 -1.5000 -2.5417
   24SAPC     N 3109   6.729   3.705  10.871 -0.5110  0.1899  0.3462
   24SAPC   C12 3110   6.865   3.738  10.810  0.3329  0.0066 -0.6476
   24SAPC  H12A 3111   6.929   3.761  10.894  0.9093 -2.3898 -0.3580
   24SAPC  H12B 3112   6.841   3.828  10.755  0.6416 -0.4925 -1.6167
   24SAPC   C13 3113   6.740   3.591  10.965 -0.3204 -0.1385  0.4424
   24SAPC  H13A 3114   6.641   3.553  10.987 -0.1328 -1.0280 -0.1705
   24SAPC  H13B 3115   6.803   3.524  10.907  0.7129  1.1823 -0.0199
   24SAPC  H13C 3116   6.785   3.600  11.063  0.6091 -0.3785  0.0515
   24SAPC   C14 3117   6.648   3.821  10.933 -0.7268  0.2497 -0.9502
   24SAPC  H14A 3118   6.549   3.778  10.944  0.1142 -2.2551 -2.3554
   24SAPC  H14B 3119   6.699   3.856  11.021 -0.5138 -0.1679 -0.9074
   24SAPC  H14C 3120   6.643   3.898  10.858 -1.1111 -0.7613 -1.9974
   24SAPC   C15 3121   6.633   3.647  10.768  0.3848  0.1344  0.5226
   24SAPC  H15A 3122   6.683   3.570  10.712  0.4998 -1.5580  2.8469
   24SAPC  H15B 3123   6.546   3.606  10.816  0.0461  2.2695  1.8735
   24SAPC  H15C 3124   6.590   3.720  10.700 -1.0648 -2.1422 -1.1785
   24SAPC   C11 3125   6.951   3.637  10.728 -0.6848 -0.0320  0.3424
   24SAPC  H11A 3126   7.028   3.697  10.676 -0.0331 -1.8321 -0.8871
   24SAPC  H11B 3127   6.881   3.601  10.649 -0.1362  2.9886 -1.6599
   24SAPC     P 3128   7.140   3.565  10.900 -0.0235  0.2132  0.0706
   24SAPC   O13 3129   7.105   3.681  10.982  0.2410  0.1356 -0.0385
   24SAPC   O14 3130   7.168   3.440  10.975 -0.1342 -0.6206  0.3515
   24SAPC   O12 3131   7.016   3.539  10.807 -0.1183 -0.4012 -0.2509
   24SAPC   O11 3132   7.253   3.611  10.795 -0.0548  0.0284 -0.1715
   24SAPC    C1 3133   7.309   3.519  10.707 -0.8136  0.0978  0.5237
   24SAPC    HA 3134   7.274   3.415  10.726 -1.1474 -0.7172 -3.5607
   24SAPC    HB 3135   7.280   3.543  10.603 -1.2023  2.1874  1.0776
   24SAPC    C2 3136   7.467   3.536  10.700  0.9278 -0.1009 -0.2078
   24SAPC    HS 3137   7.495   3.538  10.808  1.3199 -1.3311 -0.2787
   24SAPC   O21 3138   7.494   3.662  10.636 -0.3034  0.0137  0.0051
   24SAPC   C21 3139   7.600   3.722  10.685 -0.5148 -0.1306 -0.0423
   24SAPC   O22 3140   7.661   3.686  10.785  0.3001 -0.4527  0.0281
   24SAPC   C22 3141   7.636   3.845  10.597 -0.3931 -0.4379  0.7006
   24SAPC   H2R 3142   7.553   3.917  10.585 -0.7725 -1.0415 -0.5080
   24SAPC   H2S 3143   7.712   3.898  10.658 -0.0053 -0.7578  0.4999
   24SAPC    C3 3144   7.533   3.419  10.624  0.7771 -0.5436 -1.0444
   24SAPC    HX 3145   7.504   3.425  10.517 -1.2627  0.5848 -0.4802
   24SAPC    HY 3146   7.494   3.322  10.661 -0.9043  0.6547  0.5168
   24SAPC   O31 3147   7.674   3.428  10.636 -0.4047  0.4755 -0.0580
   24SAPC   C31 3148   7.740   3.311  10.634 -0.6180 -0.2725 -0.2703
   24SAPC   O32 3149   7.688   3.203  10.635  0.2113 -0.0830  0.0366
   24SAPC   C32 3150   7.898   3.345  10.608  0.7285  0.2788  0.3576
   24SAPC   H2X 3151   7.942   3.247  10.578 -0.6706  0.0503 -1.1004
   24SAPC   H2Y 3152   7.936   3.366  10.710  0.4963 -1.9700  0.9695
   24SAPC   C23 3153   7.690   3.806  10.457  0.4425  0.7220  0.1300
   24SAPC   H3R 3154   7.604   3.800  10.387  1.6952  0.6916 -1.4676
   24SAPC   H3S 3155   7.752   3.714  10.458 -0.3409  0.1781  1.6025
   24SAPC   C24 3156   7.786   3.912  10.402 -0.2476  0.2161 -0.0543
   24SAPC   H4R 3157   7.844   3.866  10.319  0.9717 -0.3809  1.0880
   24SAPC   H4S 3158   7.862   3.921  10.483 -1.9262  1.0932  1.5010
   24SAPC   C25 3159   7.737   4.053  10.371  0.2602  0.6661 -0.0233
   24SAPC   H5R 3160   7.669   4.090  10.449  1.9961  0.3159  1.7155
   24SAPC   C26 3161   7.781   4.143  10.282  0.1718  0.2469 -0.5425
   24SAPC   H6R 3162   7.748   4.247  10.287 -1.1756 -0.2174  1.5107
   24SAPC   C27 3163   7.893   4.113  10.181  1.0951  0.6058  0.5222
   24SAPC   H7R 3164   7.887   4.181  10.094  1.2105  0.8479  0.7024
   24SAPC   H7S 3165   7.868   4.015  10.134 -2.0295  2.2648 -1.6063
   24SAPC   C28 3166   8.024   4.128  10.246 -0.2702  0.0724  0.4948
   24SAPC   H8R 3167   8.037   4.200  10.328  1.9413  0.8500 -0.4544
   24SAPC   C29 3168   8.142   4.056  10.227  0.6015 -0.9627  0.1423
   24SAPC   H9R 3169   8.233   4.091  10.278  1.4769 -2.2122 -0.5127
   24SAPC  C210 3170   8.154   3.943  10.125  0.1388  0.3704  0.0476
   24SAPC  H10R 3171   8.243   3.963  10.061  1.5950  0.0214  1.8921
   24SAPC  H10S 3172   8.067   3.933  10.056  1.6643 -2.6633 -1.6474
   24SAPC  C211 3173   8.178   3.826  10.217 -0.4754  0.8748 -0.5873
   24SAPC  H11R 3174   8.105   3.821  10.299 -1.4089 -0.3920 -1.4709
   24SAPC  C212 3175   8.280   3.736  10.204  0.6613  0.3039 -0.3383
   24SAPC  H12R 3176   8.291   3.663  10.286 -1.7187 -0.0937 -0.3064
   24SAPC  C213 3177   8.383   3.726  10.098  0.0445  0.3579  0.0718
   24SAPC  H13R 3178   8.339   3.742   9.998  1.8439 -1.2466 -1.0467
   24SAPC  H13S 3179   8.424   3.623  10.112 -0.1325  0.3918  0.9177
   24SAPC  C214 3180   8.499   3.819  10.128  0.1854  0.4277 -0.3329
   24SAPC  H14R 3181   8.465   3.912  10.177 -1.2339 -0.5701  0.6610
   24SAPC  C215 3182   8.624   3.802  10.088 -0.6331  0.5492 -0.0712
   24SAPC  H15R 3183   8.692   3.884  10.114  2.2111 -1.0545 -1.7939
   24SAPC  C216 3184   8.684   3.684  10.006 -0.5605  0.4818 -0.0862
   24SAPC  H16R 3185   8.745   3.726   9.923 -0.4981 -0.0561 -0.3102
   24SAPC  H16S 3186   8.602   3.632   9.952 -0.6062  1.4693 -1.0225
   24SAPC  C217 3187   8.764   3.571  10.081  0.1917  0.4816 -0.3736
   24SAPC  H17R 3188   8.683   3.518  10.136  1.3205  1.1080  2.0351
   24SAPC  H17S 3189   8.836   3.620  10.151 -2.4429 -0.3184  3.2355
   24SAPC  C218 3190   8.830   3.459   9.999 -0.2650  0.1437 -0.1470
   24SAPC  H18R 3191   8.769   3.428   9.912 -3.2912 -0.7809  2.1359
   24SAPC  H18S 3192   8.858   3.366  10.054 -0.3981  0.8698  1.1834
   24SAPC  C219 3193   8.965   3.512   9.943  0.1841 -0.1388  0.7879
   24SAPC  H19R 3194   8.957   3.619   9.913  2.2836 -0.2735 -0.5102
   24SAPC  H19S 3195   8.994   3.455   9.852 -0.2197  0.5500  0.2235
   24SAPC  C220 3196   9.080   3.506  10.045  0.1447 -0.2511 -0.0426
   24SAPC  H20R 3197   9.039   3.574  10.123 -1.8705  0.8646 -1.9663
   24SAPC  H20S 3198   9.175   3.551  10.008  0.1775 -1.2256 -1.2015
   24SAPC  H20T 3199   9.104   3.403  10.078  1.2030  0.4630  1.5515
   24SAPC   C33 3200   7.927   3.460  10.506  0.2319 -0.1213 -0.4730
   24SAPC   H3X 3201   8.023   3.514  10.518 -0.2244  0.8651 -1.0796
   24SAPC   H3Y 3202   7.856   3.543  10.523 -1.3641 -1.3677 -0.7956
   24SAPC   C34 3203   7.913   3.409  10.361 -0.1979  0.3821 -0.1653
   24SAPC   H4X 3204   7.815   3.360  10.345  0.2370 -0.1495 -1.3149
   24SAPC   H4Y 3205   7.995   3.337  10.341  0.4033  1.2712 -1.0287
   24SAPC   C35 3206   7.909   3.527  10.251 -0.1850  0.1663 -0.0828
   24SAPC   H5X 3207   8.013   3.565  10.257  1.0204 -2.7933 -0.2955
   24SAPC   H5Y 3208   7.827   3.598  10.277  1.7569  2.8797 -0.9582
   24SAPC   C36 3209   7.893   3.478  10.111  0.0551 -0.3016 -0.3195
   24SAPC   H6X 3210   7.810   3.405  10.123  0.1004 -0.0014  2.6930
   24SAPC   H6Y 3211   7.981   3.417  10.080  0.7268  0.0405  0.8650
   24SAPC   C37 3212   7.861   3.600  10.013 -0.1181  0.2809  0.0009
   24SAPC   H7X 3213   7.948   3.669  10.007  0.6479 -0.6600  0.0761
   24SAPC   H7Y 3214   7.773   3.644  10.066  1.3704 -0.9359  3.8573
   24SAPC   C38 3215   7.831   3.565   9.868 -0.0590 -0.7761 -0.0325
   24SAPC   H8X 3216   7.915   3.501   9.833 -0.1534 -0.8948 -0.0415
   24SAPC   H8Y 3217   7.823   3.659   9.811 -1.0029  0.8525  2.5971
   24SAPC   C39 3218   7.697   3.488   9.853  0.6360 -0.0614 -0.1690
   24SAPC   H9X 3219   7.615   3.554   9.889 -0.7729  0.1053 -3.3474
   24SAPC   H9Y 3220   7.712   3.407   9.926 -0.9850  1.2980  1.7976
   24SAPC  C310 3221   7.669   3.428   9.712  0.2983  0.4191  0.2678
   24SAPC  H10X 3222   7.742   3.347   9.689 -3.1220 -2.6221 -0.8781
   24SAPC  H10Y 3223   7.670   3.503   9.631 -1.5155 -0.2026 -0.3908
   24SAPC  C311 3224   7.533   3.346   9.715  0.1176  0.0790 -0.0782
   24SAPC  H11X 3225   7.452   3.419   9.736  0.8221  1.0893 -0.7323
   24SAPC  H11Y 3226   7.559   3.275   9.796  2.1506  0.1608 -0.6051
   24SAPC  C312 3227   7.515   3.274   9.579  0.3019  0.4501 -0.0593
   24SAPC  H12X 3228   7.610   3.220   9.557 -1.2721 -1.5782 -2.4321
   24SAPC  H12Y 3229   7.500   3.352   9.502  0.6422  2.0884  1.4835
   24SAPC  C313 3230   7.394   3.175   9.577 -0.8374 -0.2596 -0.5980
   24SAPC  H13X 3231   7.303   3.237   9.594 -0.3304 -0.0436  1.6077
   24SAPC  H13Y 3232   7.410   3.111   9.666  1.5310  2.1621  0.8868
   24SAPC  C314 3233   7.397   3.097   9.446 -0.5314  0.0857 -0.3443
   24SAPC  H14X 3234   7.330   3.012   9.473 -1.0565 -0.3158 -2.7066
   24SAPC  H14Y 3235   7.497   3.052   9.424 -0.4387  0.7641 -1.3711
   24SAPC  C315 3236   7.347   3.170   9.327  0.2579 -0.2201 -0.2474
   24SAPC  H15X 3237   7.438   3.212   9.279 -0.6341 -0.0254 -1.8262
   24SAPC  H15Y 3238   7.280   3.246   9.372 -0.8344 -0.2350 -1.7907
   24SAPC  C316 3239   7.261   3.095   9.218  0.2043 -0.0664  0.3232
   24SAPC  H16X 3240   7.183   3.039   9.274  0.2894  1.4234  2.0148
   24SAPC  H16Y 3241   7.323   3.014   9.174 -0.5041 -1.5446  1.9337
   24SAPC  C317 3242   7.209   3.186   9.106  0.2615 -0.1266 -0.0172
   24SAPC  H17X 3243   7.286   3.260   9.073  1.5457 -1.5361 -0.2934
   24SAPC  H17Y 3244   7.124   3.245   9.146  0.3217 -0.5492  0.7594
   24SAPC  C318 3245   7.155   3.118   8.983  0.1815  0.5869  0.0121
   24SAPC  H18X 3246   7.110   3.199   8.921  1.1934  0.3898 -1.0220
   24SAPC  H18Y 3247   7.082   3.041   9.014  2.5395 -1.1068  1.6853
   24SAPC  H18Z 3248   7.237   3.064   8.931 -0.4203  0.8149 -1.2122
   25SAPC     N 3249   3.895   2.810   5.622 -0.3647  0.0483  0.6899
   25SAPC   C12 3250   3.872   2.729   5.750  0.6493 -0.0573  0.2636
   25SAPC  H12A 3251   3.896   2.793   5.833 -2.1073  1.2051  0.2247
   25SAPC  H12B 3252   3.936   2.644   5.732 -0.7209 -0.8327 -1.2638
   25SAPC   C13 3253   3.882   2.717   5.507 -0.4225 -0.3974 -0.3291
   25SAPC  H13A 3254   3.932   2.623   5.522  0.7187 -0.2634 -2.8949
   25SAPC  H13B 3255   3.781   2.680   5.492  0.0466 -0.9249 -2.3598
   25SAPC  H13C 3256   3.919   2.762   5.416  0.9303 -0.8506 -0.0105
   25SAPC   C14 3257   3.795   2.918   5.625  0.0473 -1.0998 -0.0770
   25SAPC  H14A 3258   3.788   2.975   5.534 -0.0282 -3.6217 -1.7609
   25SAPC  H14B 3259   3.703   2.861   5.637 -0.0003 -0.7146  1.6033
   25SAPC  H14C 3260   3.790   2.982   5.712 -1.9980  2.5418 -2.6085
   25SAPC   C15 3261   4.041   2.860   5.624 -0.4960  0.2422  0.0514
   25SAPC  H15A 3262   4.076   2.903   5.531 -1.4033  1.6760  0.3433
   25SAPC  H15B 3263   4.044   2.943   5.692  3.0460  0.3851 -0.1131
   25SAPC  H15C 3264   4.108   2.781   5.656 -0.8469 -0.6061 -1.1991
   25SAPC   C11 3265   3.727   2.668   5.787  0.2731 -0.1992 -0.2137
   25SAPC  H11A 3266   3.735   2.586   5.861 -1.7857 -0.1432  0.1310
   25SAPC  H11B 3267   3.676   2.633   5.695  0.8952  0.7201 -0.9238
   25SAPC     P 3268   3.666   2.822   5.984 -0.1715 -0.3567 -0.0590
   25SAPC   O13 3269   3.805   2.880   5.995  0.1448 -0.1131 -0.3860
   25SAPC   O14 3270   3.554   2.913   6.010  0.3410  0.4341  0.0422
   25SAPC   O12 3271   3.651   2.774   5.840  0.0404  0.4379 -0.0474
   25SAPC   O11 3272   3.662   2.698   6.067 -0.0469  0.7316 -0.3310
   25SAPC    C1 3273   3.557   2.680   6.170 -0.1438  0.2099  0.4529
   25SAPC    HA 3274   3.454   2.697   6.132 -0.3893  1.0118  1.4397
   25SAPC    HB 3275   3.571   2.573   6.197  0.9533 -0.0227 -0.9314
   25SAPC    C2 3276   3.590   2.760   6.302  0.1379 -0.0210  0.1196
   25SAPC    HS 3277   3.605   2.866   6.272  1.9510 -0.4093 -0.4980
   25SAPC   O21 3278   3.704   2.702   6.364  0.1613  0.7653  0.4072
   25SAPC   C21 3279   3.807   2.778   6.359 -0.6088  0.6888 -0.6396
   25SAPC   O22 3280   3.825   2.896   6.332  0.7207  0.2473 -0.3051
   25SAPC   C22 3281   3.929   2.692   6.388  0.1598  0.1688  0.8262
   25SAPC   H2R 3282   3.897   2.594   6.427  0.2851 -0.7724 -1.2758
   25SAPC   H2S 3283   3.971   2.662   6.289 -1.4272  1.3384 -0.2597
   25SAPC    C3 3284   3.472   2.761   6.405  0.1887  0.1922  0.3227
   25SAPC    HX 3285   3.421   2.663   6.394 -0.2314  0.5085 -0.5865
   25SAPC    HY 3286   3.397   2.841   6.389 -1.0473 -0.8497  0.7087
   25SAPC   O31 3287   3.521   2.767   6.539 -0.1563  0.0568  0.3644
   25SAPC   C31 3288   3.561   2.893   6.567 -0.1565  0.2423 -0.9720
   25SAPC   O32 3289   3.552   2.992   6.498 -0.1293 -0.2479  0.2235
   25SAPC   C32 3290   3.601   2.905   6.715  0.2592  0.4291  0.2456
   25SAPC   H2X 3291   3.706   2.869   6.721 -0.3399 -1.9436 -1.7600
   25SAPC   H2Y 3292   3.530   2.846   6.777 -0.9666  2.9365  1.3666
   25SAPC   C23 3293   4.036   2.758   6.467  0.1809 -0.2495  0.5564
   25SAPC   H3R 3294   4.073   2.852   6.420  1.3223 -0.6467  0.6264
   25SAPC   H3S 3295   4.124   2.692   6.452 -1.1035 -1.8427 -0.2417
   25SAPC   C24 3296   4.000   2.786   6.611 -0.2221  0.1854 -0.7893
   25SAPC   H4R 3297   3.945   2.692   6.636  0.0693 -0.0947 -1.1811
   25SAPC   H4S 3298   3.924   2.861   6.641 -0.4442  0.3195 -1.6377
   25SAPC   C25 3299   4.130   2.811   6.690 -0.7651 -0.2591  0.7262
   25SAPC   H5R 3300   4.186   2.900   6.659 -2.0674  0.2037 -0.4289
   25SAPC   C26 3301   4.190   2.731   6.783 -0.0820 -0.3947  0.8416
   25SAPC   H6R 3302   4.285   2.764   6.828  0.9124 -1.6656 -0.2607
   25SAPC   C27 3303   4.141   2.597   6.837  0.4187  0.7620 -0.5030
   25SAPC   H7R 3304   4.227   2.534   6.870  1.5844  2.2934 -0.5395
   25SAPC   H7S 3305   4.091   2.544   6.753 -0.5628  0.0208  0.5154
   25SAPC   C28 3306   4.040   2.629   6.947 -0.1082  0.0652  0.4731
   25SAPC   H8R 3307   3.989   2.726   6.936 -0.4474 -0.1904 -0.2673
   25SAPC   C29 3308   4.003   2.553   7.049 -0.3007 -0.7614 -0.9440
   25SAPC   H9R 3309   3.934   2.600   7.121 -1.0660  0.4075 -2.3698
   25SAPC  C210 3310   4.062   2.416   7.075 -0.4050  0.2411  0.9674
   25SAPC  H10R 3311   4.164   2.433   7.114 -0.5675  0.3831  1.3365
   25SAPC  H10S 3312   4.070   2.356   6.982  1.5267  0.7780  0.7536
   25SAPC  C211 3313   3.987   2.335   7.175 -0.0944 -0.6493 -0.0624
   25SAPC  H11R 3314   3.945   2.250   7.120  1.3716 -1.3372 -0.1598
   25SAPC  C212 3315   3.953   2.352   7.306 -0.4396 -0.7815 -0.1633
   25SAPC  H12R 3316   3.898   2.273   7.359  0.9967 -2.3875 -0.9796
   25SAPC  C213 3317   3.986   2.476   7.391 -0.2743  0.2093 -0.3253
   25SAPC  H13R 3318   3.963   2.574   7.342 -2.6772  0.5107  1.2475
   25SAPC  H13S 3319   4.091   2.461   7.422 -0.6337 -0.8869  0.3901
   25SAPC  C214 3320   3.918   2.475   7.524  0.2433  0.4584 -0.5546
   25SAPC  H14R 3321   3.834   2.546   7.527  2.5737  3.3986  1.3704
   25SAPC  C215 3322   3.927   2.391   7.628 -0.4850 -0.2526  0.3202
   25SAPC  H15R 3323   3.857   2.399   7.712 -0.7194 -1.0233  0.2096
   25SAPC  C216 3324   4.023   2.278   7.637 -0.3685 -0.1117 -0.0504
   25SAPC  H16R 3325   4.103   2.276   7.560 -0.1774 -0.5750  0.1633
   25SAPC  H16S 3326   3.971   2.181   7.633 -2.2747  0.7957  1.1762
   25SAPC  C217 3327   4.094   2.278   7.773 -0.2330  0.1371  0.3960
   25SAPC  H17R 3328   4.157   2.189   7.790 -0.5492 -0.1954 -0.1361
   25SAPC  H17S 3329   4.035   2.300   7.865  1.0551 -0.8169  1.4974
   25SAPC  C218 3330   4.193   2.393   7.776  0.3254 -0.0286 -0.0781
   25SAPC  H18R 3331   4.143   2.487   7.743 -1.1754 -1.3650 -1.7854
   25SAPC  H18S 3332   4.257   2.367   7.690  3.8526  4.5047  0.7521
   25SAPC  C219 3333   4.286   2.395   7.897 -0.0318 -0.5116  0.2272
   25SAPC  H19R 3334   4.360   2.313   7.898  1.7091  0.9777  1.3677
   25SAPC  H19S 3335   4.220   2.388   7.985 -0.4618 -0.8296 -0.1206
   25SAPC  C220 3336   4.378   2.525   7.910  0.0264  0.9665  0.2637
   25SAPC  H20R 3337   4.305   2.609   7.910 -2.4632 -1.0486 -0.1939
   25SAPC  H20S 3338   4.447   2.527   7.823 -1.0123  0.3052 -0.6061
   25SAPC  H20T 3339   4.439   2.513   8.002  0.4869  0.9839 -0.0353
   25SAPC   C33 3340   3.597   3.053   6.762  0.4294  0.1323  0.1989
   25SAPC   H3X 3341   3.520   3.105   6.702  0.2079  0.4141  0.7169
   25SAPC   H3Y 3342   3.698   3.091   6.736 -0.7640  2.9650 -0.7306
   25SAPC   C34 3343   3.568   3.079   6.910  0.2605 -0.0020  0.6670
   25SAPC   H4X 3344   3.463   3.052   6.935  0.0064  1.0177  0.7594
   25SAPC   H4Y 3345   3.573   3.190   6.921  0.2906 -0.0942  1.7285
   25SAPC   C35 3346   3.649   3.003   7.007 -0.5365 -0.2976  0.0020
   25SAPC   H5X 3347   3.750   2.979   6.967 -1.1928 -0.5483 -1.5862
   25SAPC   H5Y 3348   3.610   2.900   7.025 -0.3238 -0.1199  1.6897
   25SAPC   C36 3349   3.659   3.068   7.144 -0.1571  0.1872  0.7421
   25SAPC   H6X 3350   3.559   3.107   7.173  0.2578  2.0392 -0.2250
   25SAPC   H6Y 3351   3.728   3.153   7.162  0.1754  0.4243 -1.4735
   25SAPC   C37 3352   3.701   2.964   7.244  0.8020 -0.6688 -0.2607
   25SAPC   H7X 3353   3.793   2.905   7.224 -0.7028 -2.7944 -1.2681
   25SAPC   H7Y 3354   3.618   2.895   7.269  0.1462  0.4693  0.7844
   25SAPC   C38 3355   3.712   3.041   7.377 -0.3989  0.6088  0.2046
   25SAPC   H8X 3356   3.606   3.061   7.404 -0.3264  0.9802  0.2117
   25SAPC   H8Y 3357   3.757   3.142   7.367 -0.6616  0.8133  1.0336
   25SAPC   C39 3358   3.786   2.958   7.489 -0.3038  0.2252 -0.2858
   25SAPC   H9X 3359   3.893   2.942   7.461  0.1005  2.6873 -0.4162
   25SAPC   H9Y 3360   3.725   2.867   7.505 -0.4384 -0.0464 -2.1283
   25SAPC  C310 3361   3.763   3.026   7.625 -0.1012  0.7823 -0.4011
   25SAPC  H10X 3362   3.657   3.034   7.655  0.1479  0.5110  0.5992
   25SAPC  H10Y 3363   3.805   3.129   7.616 -0.4599  0.7998 -2.1753
   25SAPC  C311 3364   3.850   2.943   7.728  0.4989  0.4359 -0.4234
   25SAPC  H11X 3365   3.848   2.999   7.824  2.8415 -2.4116  1.4789
   25SAPC  H11Y 3366   3.958   2.944   7.702  0.3140 -0.1858 -1.2625
   25SAPC  C312 3367   3.792   2.800   7.756 -0.0165  0.0031 -0.2979
   25SAPC  H12X 3368   3.797   2.733   7.668 -2.4844  0.1524 -0.5968
   25SAPC  H12Y 3369   3.684   2.813   7.777 -0.4520 -1.7418 -1.3236
   25SAPC  C313 3370   3.859   2.735   7.881  0.6314 -0.6246  0.1587
   25SAPC  H13X 3371   3.828   2.628   7.886 -1.1032 -0.4685 -3.4789
   25SAPC  H13Y 3372   3.805   2.785   7.964  0.3404  1.0110 -0.9796
   25SAPC  C314 3373   4.010   2.754   7.904  0.3552 -0.1433  0.0587
   25SAPC  H14X 3374   4.016   2.865   7.901 -1.3498  0.0411  1.7005
   25SAPC  H14Y 3375   4.066   2.706   7.822  0.0755  0.1067 -0.2847
   25SAPC  C315 3376   4.061   2.691   8.032 -0.4831 -0.1552  0.1330
   25SAPC  H15X 3377   4.169   2.716   8.034  0.1140 -2.4943 -0.2936
   25SAPC  H15Y 3378   4.039   2.584   8.047 -1.7134  0.4983  4.0975
   25SAPC  C316 3379   4.003   2.768   8.154 -0.5346  0.1201 -0.1141
   25SAPC  H16X 3380   3.894   2.745   8.152 -0.2946 -1.5906  2.2402
   25SAPC  H16Y 3381   4.006   2.879   8.150  1.7270  0.1368  0.8480
   25SAPC  C317 3382   4.072   2.723   8.280 -0.4724 -0.4646  0.2198
   25SAPC  H17X 3383   4.064   2.613   8.292  1.5142 -0.5499  1.0822
   25SAPC  H17Y 3384   4.007   2.774   8.355 -0.2089 -0.2549  0.3071
   25SAPC  C318 3385   4.208   2.779   8.309  0.0259 -0.3021  0.3330
   25SAPC  H18X 3386   4.246   2.759   8.411  0.5162  3.6193  1.0833
   25SAPC  H18Y 3387   4.191   2.887   8.289 -0.4067 -0.3249  0.5715
   25SAPC  H18Z 3388   4.272   2.726   8.235 -0.0035 -0.0544  0.1277
   26SAPC     N 3389   4.878   5.150   6.108 -0.3906  0.2446  0.7781
   26SAPC   C12 3390   4.928   5.036   6.199  0.3457  0.0758  1.0115
   26SAPC  H12A 3391   4.974   5.079   6.286  2.6412  1.0306 -0.5715
   26SAPC  H12B 3392   4.997   4.971   6.148 -2.6726 -1.7046 -1.1683
   26SAPC   C13 3393   4.831   5.080   5.985  0.0899  0.9689 -0.5153
   26SAPC  H13A 3394   4.770   5.137   5.915 -2.3160  1.2535  1.6641
   26SAPC  H13B 3395   4.915   5.042   5.929  0.4518 -1.5041  1.5492
   26SAPC  H13C 3396   4.774   4.993   6.015 -1.3670  2.2499  0.5978
   26SAPC   C14 3397   4.756   5.212   6.164 -0.4137 -0.3529 -0.2325
   26SAPC  H14A 3398   4.707   5.289   6.105 -0.5906 -0.3381 -0.0663
   26SAPC  H14B 3399   4.680   5.136   6.166 -4.0083  2.8851 -0.9373
   26SAPC  H14C 3400   4.765   5.250   6.264 -0.5568 -2.1310  0.4773
   26SAPC   C15 3401   4.979   5.251   6.065 -0.5822  0.3258 -0.5617
   26SAPC  H15A 3402   5.020   5.300   6.152  0.8729 -2.5008  0.4850
   26SAPC  H15B 3403   5.058   5.221   5.998 -1.5281  0.1088 -1.6118
   26SAPC  H15C 3404   4.923   5.326   6.011 -1.9752  0.5624  1.1126
   26SAPC   C11 3405   4.826   4.951   6.261  0.2961 -0.3763 -0.3498
   26SAPC  H11A 3406   4.761   5.009   6.331 -1.5482  0.0794 -2.3430
   26SAPC  H11B 3407   4.884   4.879   6.323 -0.3266 -1.9526 -1.5377
   26SAPC     P 3408   4.596   4.847   6.181 -0.0306 -0.1751  0.1666
   26SAPC   O13 3409   4.531   4.977   6.189 -0.1063 -0.0707  0.0902
   26SAPC   O14 3410   4.566   4.744   6.084  0.4259  0.0212 -0.0465
   26SAPC   O12 3411   4.753   4.877   6.168  0.1002  0.2631 -0.3116
   26SAPC   O11 3412   4.580   4.793   6.328 -0.0058 -0.7465 -0.1559
   26SAPC    C1 3413   4.632   4.669   6.359 -0.0539  0.0461  0.0337
   26SAPC    HA 3414   4.571   4.588   6.313  1.2176 -0.5071 -0.7410
   26SAPC    HB 3415   4.739   4.655   6.332 -0.2667  0.0259 -0.8284
   26SAPC    C2 3416   4.631   4.650   6.513 -0.4425  0.6768  0.0907
   26SAPC    HS 3417   4.523   4.638   6.538 -0.2314 -1.0916  0.2616
   26SAPC   O21 3418   4.692   4.759   6.587  0.3081 -0.0100  0.1485
   26SAPC   C21 3419   4.603   4.859   6.600  0.4091 -0.4100 -0.0739
   26SAPC   O22 3420   4.485   4.855   6.571  0.0674 -0.1224 -0.1070
   26SAPC   C22 3421   4.660   4.978   6.661 -0.1383  0.8076  0.1294
   26SAPC   H2R 3422   4.767   4.967   6.688  0.0179  2.9344  0.5428
   26SAPC   H2S 3423   4.652   5.065   6.593  1.5311  0.9340  0.0527
   26SAPC    C3 3424   4.683   4.512   6.566 -0.4620  0.1339  0.3043
   26SAPC    HX 3425   4.792   4.495   6.553 -0.2037  0.3103  2.0007
   26SAPC    HY 3426   4.646   4.425   6.507 -1.2683  1.2355 -0.8830
   26SAPC   O31 3427   4.643   4.487   6.698  0.2636  0.0151  0.0347
   26SAPC   C31 3428   4.743   4.500   6.787  0.7411 -0.2063 -0.3885
   26SAPC   O32 3429   4.858   4.534   6.753  0.2050 -0.1945  0.3020
   26SAPC   C32 3430   4.688   4.481   6.925 -0.3873 -1.1394 -0.1034
   26SAPC   H2X 3431   4.669   4.373   6.939  0.0556 -1.3616 -1.1527
   26SAPC   H2Y 3432   4.588   4.530   6.933  0.1134 -0.2466  0.9108
   26SAPC   C23 3433   4.583   5.010   6.788  0.2648  0.2336 -1.3870
   26SAPC   H3R 3434   4.475   5.018   6.762 -0.1827 -0.2177  0.2654
   26SAPC   H3S 3435   4.630   5.105   6.823  2.4263 -1.7969  1.7307
   26SAPC   C24 3436   4.617   4.913   6.900 -0.3622 -0.1853 -0.2527
   26SAPC   H4R 3437   4.709   4.953   6.948 -1.2564 -0.3794  1.7090
   26SAPC   H4S 3438   4.651   4.815   6.860  1.7624  0.2289  0.4109
   26SAPC   C25 3439   4.498   4.910   6.996  0.4635  0.0752 -0.3281
   26SAPC   H5R 3440   4.396   4.886   6.960  0.2781 -1.4564  1.1040
   26SAPC   C26 3441   4.508   4.931   7.128 -1.0156 -0.3278  0.0507
   26SAPC   H6R 3442   4.412   4.925   7.182 -1.7684 -1.3611 -1.3430
   26SAPC   C27 3443   4.635   4.973   7.203 -0.3107 -0.1985 -0.3560
   26SAPC   H7R 3444   4.714   5.027   7.148  0.0453 -0.6128 -0.2546
   26SAPC   H7S 3445   4.695   4.882   7.223  0.6375 -0.0987 -2.5620
   26SAPC   C28 3446   4.602   5.051   7.336 -0.3570 -0.0259 -0.4682
   26SAPC   H8R 3447   4.626   5.158   7.339 -0.8399  0.0650  1.1407
   26SAPC   C29 3448   4.563   4.992   7.455  0.5879  0.0129 -0.3294
   26SAPC   H9R 3449   4.553   5.064   7.538 -0.7091  1.2471 -1.4941
   26SAPC  C210 3450   4.525   4.848   7.480 -0.0483  0.4585 -0.7156
   26SAPC  H10R 3451   4.522   4.793   7.383 -3.0852 -1.1925  0.1757
   26SAPC  H10S 3452   4.423   4.851   7.523  0.8385 -0.2600  1.6036
   26SAPC  C211 3453   4.599   4.759   7.576  0.7026 -0.7958  0.1319
   26SAPC  H11R 3454   4.656   4.678   7.529  0.0757 -0.9585 -0.3554
   26SAPC  C212 3455   4.593   4.764   7.709 -0.7578 -0.2977 -0.0586
   26SAPC  H12R 3456   4.661   4.709   7.775 -1.2836  0.3723  1.0823
   26SAPC  C213 3457   4.506   4.858   7.791  0.5061 -0.6551 -0.2487
   26SAPC  H13R 3458   4.408   4.883   7.746  1.0113  2.4580  0.0900
   26SAPC  H13S 3459   4.551   4.957   7.815 -0.8873 -0.1899  0.5777
   26SAPC  C214 3460   4.474   4.784   7.916  0.1468 -0.0416 -0.4931
   26SAPC  H14R 3461   4.382   4.725   7.905 -0.4614  0.6542  0.5892
   26SAPC  C215 3462   4.548   4.773   8.024 -0.4936  0.2852 -0.3799
   26SAPC  H15R 3463   4.514   4.707   8.105 -0.1134 -0.8189 -1.0951
   26SAPC  C216 3464   4.686   4.833   8.043 -0.9635 -0.0474 -0.4668
   26SAPC  H16R 3465   4.723   4.884   7.952 -0.3680 -0.6941 -0.5970
   26SAPC  H16S 3466   4.755   4.746   8.055  0.4301  1.0546 -0.2832
   26SAPC  C217 3467   4.703   4.919   8.161  0.0274 -0.1199 -0.1878
   26SAPC  H17R 3468   4.699   4.856   8.253 -0.8741 -0.8617 -0.7149
   26SAPC  H17S 3469   4.618   4.991   8.170  0.0761 -0.2374  1.6211
   26SAPC  C218 3470   4.845   4.990   8.151 -0.1727 -0.2415 -0.2729
   26SAPC  H18R 3471   4.843   5.076   8.080 -1.5535  0.4865  0.6063
   26SAPC  H18S 3472   4.911   4.915   8.102 -0.6293 -1.8588  1.4839
   26SAPC  C219 3473   4.903   5.039   8.283  0.0785 -0.0252  0.8894
   26SAPC  H19R 3474   4.819   5.097   8.328 -1.8297  0.6611 -3.1507
   26SAPC  H19S 3475   4.985   5.110   8.260 -1.8591  1.3641 -2.4827
   26SAPC  C220 3476   4.954   4.919   8.357 -0.1476  0.0164  0.2229
   26SAPC  H20R 3477   4.876   4.841   8.367 -0.4378  0.2919  0.1438
   26SAPC  H20S 3478   4.992   4.950   8.457 -0.6927 -0.8079  0.6924
   26SAPC  H20T 3479   5.033   4.865   8.302 -2.5692 -2.0498 -1.4669
   26SAPC   C33 3480   4.765   4.563   7.032 -0.4981 -0.8252  0.1159
   26SAPC   H3X 3481   4.779   4.665   6.991 -1.4059 -0.9132 -0.4424
   26SAPC   H3Y 3482   4.865   4.515   7.037  0.0690  0.3001 -0.1101
   26SAPC   C34 3483   4.702   4.561   7.169  0.1124  0.5289  0.1046
   26SAPC   H4X 3484   4.603   4.603   7.144 -0.4508 -0.1109  1.2000
   26SAPC   H4Y 3485   4.739   4.625   7.252  2.2900  0.3227 -0.6458
   26SAPC   C35 3486   4.698   4.419   7.215  0.7239  0.8887 -0.1124
   26SAPC   H5X 3487   4.804   4.388   7.215  0.7011  0.7978  0.2836
   26SAPC   H5Y 3488   4.656   4.349   7.140 -0.1278  0.8380  0.3955
   26SAPC   C36 3489   4.619   4.409   7.344  0.0355 -0.1288 -0.7798
   26SAPC   H6X 3490   4.513   4.441   7.334 -0.0689 -0.2010  0.0701
   26SAPC   H6Y 3491   4.664   4.482   7.415 -1.7325  0.5115 -0.2679
   26SAPC   C37 3492   4.622   4.265   7.410  0.0098 -0.2012 -0.2996
   26SAPC   H7X 3493   4.732   4.247   7.407  0.5630  2.5223  1.0041
   26SAPC   H7Y 3494   4.569   4.193   7.344 -1.1416  1.7497 -1.5704
   26SAPC   C38 3495   4.567   4.260   7.558 -0.0780 -0.3432  0.3154
   26SAPC   H8X 3496   4.589   4.156   7.592 -0.8846 -1.1396 -1.4588
   26SAPC   H8Y 3497   4.456   4.264   7.555 -0.0196  0.6257 -2.0745
   26SAPC   C39 3498   4.628   4.356   7.660  0.3128  0.3230  0.2565
   26SAPC   H9X 3499   4.642   4.460   7.625  0.8467  0.3798  0.6219
   26SAPC   H9Y 3500   4.728   4.319   7.691 -0.3926 -0.3899  1.7841
   26SAPC  C310 3501   4.541   4.341   7.786 -0.6645  0.3631  0.3761
   26SAPC  H10X 3502   4.517   4.234   7.802  0.4930 -0.1674 -1.1098
   26SAPC  H10Y 3503   4.441   4.388   7.774 -1.7659 -1.6825  1.0808
   26SAPC  C311 3504   4.609   4.409   7.906  0.5296  0.6307 -0.1766
   26SAPC  H11X 3505   4.527   4.409   7.981 -0.2785  0.7691 -1.0416
   26SAPC  H11Y 3506   4.621   4.515   7.873  0.9133  0.3250 -1.0349
   26SAPC  C312 3507   4.734   4.355   7.950 -0.2325  0.2333 -0.3225
   26SAPC  H12X 3508   4.801   4.372   7.863 -1.0434 -0.5324 -1.1130
   26SAPC  H12Y 3509   4.720   4.247   7.967  0.7208 -0.1284 -1.6503
   26SAPC  C313 3510   4.785   4.426   8.072  0.5756 -0.2157  0.7357
   26SAPC  H13X 3511   4.706   4.425   8.150  0.2989  2.5710  0.6187
   26SAPC  H13Y 3512   4.805   4.534   8.053  1.7510 -0.7502 -1.4708
   26SAPC  C314 3513   4.914   4.370   8.138 -0.2441 -0.5206  0.3442
   26SAPC  H14X 3514   5.001   4.391   8.072 -1.9428  0.5255 -1.6749
   26SAPC  H14Y 3515   4.903   4.261   8.157 -0.7620 -0.1666  2.2754
   26SAPC  C315 3516   4.931   4.420   8.281 -0.2485  0.2379  0.0043
   26SAPC  H15X 3517   4.991   4.341   8.331 -0.7635 -0.0842  0.1137
   26SAPC  H15Y 3518   4.837   4.423   8.341 -1.3112  1.4612 -1.6211
   26SAPC  C316 3519   5.006   4.550   8.296 -0.4693  0.5317 -0.0335
   26SAPC  H16X 3520   4.990   4.593   8.397  2.8927  2.1633 -0.0549
   26SAPC  H16Y 3521   4.958   4.631   8.237  1.3836  1.6715 -0.0439
   26SAPC  C317 3522   5.162   4.532   8.278  1.1102 -0.6756 -0.6128
   26SAPC  H17X 3523   5.172   4.532   8.167  0.3216 -2.1877 -0.7150
   26SAPC  H17Y 3524   5.201   4.434   8.313 -0.9849 -1.8540 -1.3714
   26SAPC  C318 3525   5.238   4.650   8.336 -0.2643 -0.3819  0.2064
   26SAPC  H18X 3526   5.349   4.646   8.337 -0.3011 -1.8952  0.8289
   26SAPC  H18Y 3527   5.207   4.665   8.442 -2.6284  0.6210 -0.5776
   26SAPC  H18Z 3528   5.213   4.743   8.281 -1.5989 -1.1943 -0.5978
   27SAPC     N 3529   1.256   4.325   6.385  0.1425  0.0271  0.0475
   27SAPC   C12 3530   1.211   4.464   6.346 -0.3771 -1.3307  0.5862
   27SAPC  H12A 3531   1.103   4.471   6.352 -0.4324 -0.7598 -0.7496
   27SAPC  H12B 3532   1.242   4.481   6.244  1.7944 -1.3649  1.1830
   27SAPC   C13 3533   1.410   4.316   6.393 -0.1338 -0.6862  0.2592
   27SAPC  H13A 3534   1.438   4.408   6.443  0.2628 -0.6988  0.0646
   27SAPC  H13B 3535   1.451   4.227   6.439  2.7833  0.3440 -0.1434
   27SAPC  H13C 3536   1.462   4.329   6.299  0.5010 -0.3747  0.6384
   27SAPC   C14 3537   1.193   4.276   6.519 -0.2829  0.5206 -0.1406
   27SAPC  H14A 3538   1.192   4.361   6.585 -0.5175 -0.3029  0.9369
   27SAPC  H14B 3539   1.095   4.232   6.508 -0.3131  0.6419 -0.3758
   27SAPC  H14C 3540   1.256   4.203   6.567 -2.2498 -0.4421  1.0930
   27SAPC   C15 3541   1.205   4.228   6.282  0.3236  0.3436 -0.1421
   27SAPC  H15A 3542   1.230   4.124   6.292  0.2374  0.4188  0.9626
   27SAPC  H15B 3543   1.097   4.239   6.278  0.0600  0.9073  3.9658
   27SAPC  H15C 3544   1.241   4.248   6.182  0.4526  2.3636  0.2567
   27SAPC   C11 3545   1.274   4.578   6.429 -0.6055 -0.4272  0.4357
   27SAPC  H11A 3546   1.233   4.673   6.389 -1.7130  0.8258  4.1010
   27SAPC  H11B 3547   1.384   4.571   6.415 -0.3561  0.3426  1.7866
   27SAPC     P 3548   1.226   4.677   6.670  0.4819 -0.2740  0.0479
   27SAPC   O13 3549   1.158   4.796   6.602  0.5311 -0.1144  0.2967
   27SAPC   O14 3550   1.165   4.633   6.799  0.7403 -0.4967  0.2453
   27SAPC   O12 3551   1.237   4.562   6.565  0.0100  0.1697  0.0381
   27SAPC   O11 3552   1.383   4.715   6.693  0.8399 -0.0968  0.0615
   27SAPC    C1 3553   1.488   4.615   6.695  0.1506 -0.4503  0.2345
   27SAPC    HA 3554   1.450   4.513   6.672  0.0025 -0.2670 -0.3507
   27SAPC    HB 3555   1.557   4.653   6.616  1.8123 -2.4022  0.6482
   27SAPC    C2 3556   1.565   4.615   6.827 -0.4944 -0.0542 -0.1498
   27SAPC    HS 3557   1.639   4.532   6.824  0.2593  0.6234 -1.4344
   27SAPC   O21 3558   1.470   4.614   6.938 -0.1441  0.1605  0.2653
   27SAPC   C21 3559   1.415   4.497   6.958  0.0180  0.4498 -1.3693
   27SAPC   O22 3560   1.441   4.393   6.897 -0.1242  0.3047  0.0076
   27SAPC   C22 3561   1.324   4.504   7.078 -0.1220 -0.5851 -0.4548
   27SAPC   H2R 3562   1.380   4.547   7.164  0.1049 -2.6739  0.5090
   27SAPC   H2S 3563   1.231   4.558   7.051 -0.2631 -0.5701  0.0573
   27SAPC    C3 3564   1.645   4.750   6.842 -0.4719 -0.2004  0.0679
   27SAPC    HX 3565   1.567   4.829   6.832 -1.0889 -1.0365 -2.1566
   27SAPC    HY 3566   1.714   4.764   6.757  0.1121 -1.1229  0.3738
   27SAPC   O31 3567   1.726   4.754   6.970 -0.6784  0.3056 -0.1208
   27SAPC   C31 3568   1.670   4.833   7.054 -0.0004  0.1769  0.0406
   27SAPC   O32 3569   1.572   4.902   7.040  0.2776 -0.5288 -0.0902
   27SAPC   C32 3570   1.754   4.834   7.180  0.2523  0.4562 -0.2398
   27SAPC   H2X 3571   1.843   4.896   7.157  0.5334 -0.9515 -3.5120
   27SAPC   H2Y 3572   1.779   4.730   7.211 -3.7781 -0.4279  0.6324
   27SAPC   C23 3573   1.275   4.369   7.134  0.5947 -0.6238 -0.5409
   27SAPC   H3R 3574   1.355   4.291   7.135 -0.3109 -1.5902 -1.3918
   27SAPC   H3S 3575   1.189   4.332   7.074 -1.1761 -0.0631  1.5439
   27SAPC   C24 3576   1.249   4.385   7.286  0.2247 -0.1814  0.3954
   27SAPC   H4R 3577   1.338   4.426   7.338 -0.1566  0.5766  0.4636
   27SAPC   H4S 3578   1.238   4.285   7.334 -0.7126  0.4951  1.6520
   27SAPC   C25 3579   1.125   4.460   7.307 -0.0717  0.3388 -0.3063
   27SAPC   H5R 3580   1.046   4.465   7.231  0.0000  1.0095 -0.3405
   27SAPC   C26 3581   1.103   4.538   7.418 -0.0414  0.0107 -0.4045
   27SAPC   H6R 3582   1.012   4.599   7.413  0.0676  0.0907 -1.6713
   27SAPC   C27 3583   1.198   4.554   7.533  0.2707 -0.5880 -0.1794
   27SAPC   H7R 3584   1.235   4.659   7.536  1.6133 -1.0508  0.1054
   27SAPC   H7S 3585   1.295   4.503   7.522  0.6805  0.3636 -1.2082
   27SAPC   C28 3586   1.126   4.513   7.661  0.3041 -0.5391  0.0563
   27SAPC   H8R 3587   1.052   4.433   7.645 -0.1457 -0.5487  1.9602
   27SAPC   C29 3588   1.136   4.574   7.779 -0.1002  0.5295  0.3944
   27SAPC   H9R 3589   1.063   4.555   7.859 -0.0699  0.0475  0.3064
   27SAPC  C210 3590   1.214   4.695   7.814 -0.0610 -0.7102  0.6509
   27SAPC  H10R 3591   1.147   4.784   7.809  0.2162 -0.5352 -0.0692
   27SAPC  H10S 3592   1.294   4.718   7.740 -2.2573  3.4627 -0.7987
   27SAPC  C211 3593   1.278   4.706   7.942 -0.0286  0.0493 -0.3040
   27SAPC  H11R 3594   1.383   4.739   7.933 -0.1021 -0.0346 -1.7409
   27SAPC  C212 3595   1.226   4.705   8.065  0.6275  0.0085 -0.3371
   27SAPC  H12R 3596   1.292   4.706   8.152  0.7472 -1.5090 -0.3929
   27SAPC  C213 3597   1.079   4.688   8.108  0.1185  0.1789 -0.3327
   27SAPC  H13R 3598   1.068   4.588   8.155  3.2159 -1.6379 -3.0868
   27SAPC  H13S 3599   1.009   4.672   8.023 -1.6686  1.3974  0.8420
   27SAPC  C214 3600   1.031   4.797   8.210  0.7324  0.1097  1.0169
   27SAPC  H14R 3601   0.975   4.878   8.161 -0.0689 -0.8420  0.3144
   27SAPC  C215 3602   1.049   4.809   8.343 -0.4029 -0.1977 -0.3332
   27SAPC  H15R 3603   1.011   4.895   8.399  0.0124 -0.4201  0.3032
   27SAPC  C216 3604   1.134   4.721   8.427 -0.4301 -0.1153 -0.0152
   27SAPC  H16R 3605   1.201   4.774   8.498 -0.7041  1.0865 -0.6408
   27SAPC  H16S 3606   1.195   4.665   8.353  0.7188  0.5145  0.4377
   27SAPC  C217 3607   1.044   4.624   8.503  0.3394  0.4017 -0.6561
   27SAPC  H17R 3608   1.114   4.559   8.561 -0.9538  0.8748  1.5459
   27SAPC  H17S 3609   0.988   4.554   8.437  1.1480 -1.9007  0.9728
   27SAPC  C218 3610   0.944   4.681   8.602 -0.1533 -0.2457 -0.6689
   27SAPC  H18R 3611   0.852   4.719   8.553 -0.4224 -0.0434 -0.0198
   27SAPC  H18S 3612   0.982   4.771   8.655  1.7962 -1.9082  0.9362
   27SAPC  C219 3613   0.923   4.586   8.717  0.5722 -0.0186  1.1564
   27SAPC  H19R 3614   1.019   4.561   8.768  0.8511  0.6866  0.9832
   27SAPC  H19S 3615   0.875   4.494   8.677  0.7788 -0.1369  1.1753
   27SAPC  C220 3616   0.827   4.646   8.815 -0.3978  0.0520  0.3243
   27SAPC  H20R 3617   0.875   4.731   8.869 -1.3072  0.6217  0.2630
   27SAPC  H20S 3618   0.804   4.569   8.891  0.8046  1.4392  2.1999
   27SAPC  H20T 3619   0.736   4.675   8.758  0.2121 -0.3463 -0.8816
   27SAPC   C33 3620   1.693   4.892   7.310  0.2257 -0.4213  0.0087
   27SAPC   H3X 3621   1.641   4.988   7.290  0.5190 -0.5239 -1.3833
   27SAPC   H3Y 3622   1.776   4.909   7.382  1.1115 -3.1124 -0.2745
   27SAPC   C34 3623   1.590   4.798   7.375  1.2722 -0.3843  0.4404
   27SAPC   H4X 3624   1.630   4.696   7.393  0.7664 -0.7126 -0.2600
   27SAPC   H4Y 3625   1.502   4.783   7.309  1.5529 -0.3451  0.0505
   27SAPC   C35 3626   1.524   4.856   7.505 -0.0710 -0.6213 -0.6393
   27SAPC   H5X 3627   1.460   4.776   7.548  1.1189 -1.0344  0.4225
   27SAPC   H5Y 3628   1.472   4.951   7.478  0.3707  0.2011  1.2714
   27SAPC   C36 3629   1.623   4.898   7.615  0.2631  0.2629 -0.3500
   27SAPC   H6X 3630   1.665   4.986   7.563  2.0183 -0.5607 -0.4314
   27SAPC   H6Y 3631   1.701   4.818   7.608  0.0754  0.2276 -3.7513
   27SAPC   C37 3632   1.563   4.911   7.751  0.2184 -0.3753 -0.9133
   27SAPC   H7X 3633   1.508   4.818   7.775 -1.9254  1.0547  0.0978
   27SAPC   H7Y 3634   1.478   4.982   7.742  1.4410  1.2784  0.0935
   27SAPC   C38 3635   1.657   4.959   7.866  0.5180 -0.7512 -0.0302
   27SAPC   H8X 3636   1.727   5.037   7.829 -1.0557 -0.7738 -3.4182
   27SAPC   H8Y 3637   1.720   4.881   7.913 -0.4684 -2.0038 -0.7420
   27SAPC   C39 3638   1.562   5.023   7.975  0.3756 -0.0136  0.7508
   27SAPC   H9X 3639   1.485   4.946   7.998 -0.6262  0.1280 -1.7712
   27SAPC   H9Y 3640   1.500   5.103   7.931 -1.7939 -0.9922  1.8812
   27SAPC  C310 3641   1.623   5.064   8.104 -0.0310 -0.6646 -0.3444
   27SAPC  H10X 3642   1.680   5.156   8.081  1.3552 -2.0627 -3.0045
   27SAPC  H10Y 3643   1.694   4.988   8.144  0.3333  0.2673  0.8168
   27SAPC  C311 3644   1.509   5.089   8.209 -0.7689  0.1685 -0.4351
   27SAPC  H11X 3645   1.474   4.988   8.239 -1.1989  0.4458  0.0019
   27SAPC  H11Y 3646   1.436   5.161   8.166 -1.2233  0.4963  0.8240
   27SAPC  C312 3647   1.567   5.157   8.341 -0.1332 -0.2290  0.0422
   27SAPC  H12X 3648   1.622   5.247   8.307 -0.3765  0.5081  1.5181
   27SAPC  H12Y 3649   1.631   5.094   8.406  1.4112  1.2634  0.0186
   27SAPC  C313 3650   1.458   5.209   8.434  0.6556 -0.1452  0.2272
   27SAPC  H13X 3651   1.373   5.243   8.372 -0.1410 -0.2481  1.2412
   27SAPC  H13Y 3652   1.484   5.296   8.499 -0.6347  0.3902  0.0449
   27SAPC  C314 3653   1.415   5.095   8.527  0.4528  0.1073 -0.3175
   27SAPC  H14X 3654   1.505   5.063   8.584 -0.9051 -0.7145  1.4898
   27SAPC  H14Y 3655   1.373   5.011   8.468 -3.3927  0.5871  1.4239
   27SAPC  C315 3656   1.328   5.148   8.640  0.7066  0.0112 -0.2760
   27SAPC  H15X 3657   1.247   5.204   8.587 -1.3475  0.7441  3.2928
   27SAPC  H15Y 3658   1.389   5.212   8.708  3.7302 -1.2413 -1.6432
   27SAPC  C316 3659   1.273   5.033   8.723 -0.3908  0.4846  0.5135
   27SAPC  H16X 3660   1.355   4.976   8.772 -2.8247 -2.1510  1.8077
   27SAPC  H16Y 3661   1.221   4.957   8.660  1.1288 -1.4143  1.4132
   27SAPC  C317 3662   1.191   5.089   8.835 -0.2404  0.8205 -0.6757
   27SAPC  H17X 3663   1.089   5.119   8.804  0.1071  1.2726 -1.4320
   27SAPC  H17Y 3664   1.246   5.179   8.871  0.3517 -0.2159  1.1105
   27SAPC  C318 3665   1.183   4.990   8.950 -0.3484  1.0794 -0.9505
   27SAPC  H18X 3666   1.103   5.007   9.025 -0.1514  0.8893 -0.6995
   27SAPC  H18Y 3667   1.274   4.987   9.013 -2.5487 -2.4974  2.5300
   27SAPC  H18Z 3668   1.155   4.894   8.903 -1.4952  0.2713  1.2602
   28SAPC     N 3669   6.054   6.152   5.782  0.3483  0.3193  0.6073
   28SAPC   C12 3670   5.997   6.218   5.906  0.0429 -0.0883  0.0082
   28SAPC  H12A 3671   5.913   6.280   5.877  0.9047  0.8935 -0.4647
   28SAPC  H12B 3672   6.064   6.293   5.946 -0.6852  0.9399 -0.6659
   28SAPC   C13 3673   6.071   6.254   5.668  0.0243 -0.1008  0.4103
   28SAPC  H13A 3674   6.154   6.320   5.691  1.7150 -2.2746  0.9191
   28SAPC  H13B 3675   6.103   6.203   5.579  1.5386 -2.5912  2.2210
   28SAPC  H13C 3676   5.979   6.310   5.661 -0.2021 -0.4417  0.6114
   28SAPC   C14 3677   6.192   6.103   5.812  0.3565 -0.1437  0.0982
   28SAPC  H14A 3678   6.182   6.023   5.884  1.9396  1.6754  2.4616
   28SAPC  H14B 3679   6.237   6.062   5.722  0.6795 -0.1835  0.2778
   28SAPC  H14C 3680   6.251   6.186   5.846  0.5761 -0.3728  0.2835
   28SAPC   C15 3681   5.964   6.039   5.736 -1.3800  0.5074 -0.6323
   28SAPC  H15A 3682   5.968   5.972   5.821  1.1806  0.2116 -0.9127
   28SAPC  H15B 3683   5.859   6.066   5.729 -2.0597 -1.5908  0.4752
   28SAPC  H15C 3684   5.998   5.994   5.645  1.8071  0.1454  0.6109
   28SAPC   C11 3685   5.953   6.130   6.019  0.0633 -0.3954 -0.4182
   28SAPC  H11A 3686   5.945   6.188   6.113  1.9769 -1.5876  0.5472
   28SAPC  H11B 3687   6.037   6.061   6.044  1.0865  0.5320 -1.1880
   28SAPC     P 3688   5.698   6.137   6.015 -0.2566 -0.1669  0.3222
   28SAPC   O13 3689   5.725   6.275   5.969  0.3256  0.7854  0.6178
   28SAPC   O14 3690   5.591   6.057   5.947  0.6183  0.6382  0.4779
   28SAPC   O12 3691   5.832   6.064   5.987 -0.2889 -0.3257  0.2962
   28SAPC   O11 3692   5.688   6.121   6.168  0.0558 -0.5429  0.2359
   28SAPC    C1 3693   5.718   5.993   6.239  0.8317 -0.0167  0.6278
   28SAPC    HA 3694   5.639   5.918   6.223  2.3282 -1.5019 -0.0568
   28SAPC    HB 3695   5.814   5.952   6.201 -0.4634  1.2874 -4.9295
   28SAPC    C2 3696   5.735   6.024   6.388 -0.3681 -0.3671  0.2766
   28SAPC    HS 3697   5.787   5.937   6.433  1.3584  1.0898  1.1776
   28SAPC   O21 3698   5.611   6.056   6.456 -0.3508  0.1252 -0.2373
   28SAPC   C21 3699   5.531   5.950   6.478 -0.2713 -0.4252 -0.7034
   28SAPC   O22 3700   5.561   5.831   6.464  0.0534 -0.3120  0.4690
   28SAPC   C22 3701   5.387   5.997   6.495  0.0451  0.3445  0.3148
   28SAPC   H2R 3702   5.383   6.108   6.505 -0.1914  0.3736 -0.0684
   28SAPC   H2S 3703   5.331   5.956   6.408 -1.6865  0.7148  1.2048
   28SAPC    C3 3704   5.820   6.152   6.415 -0.6901  0.2842 -0.1653
   28SAPC    HX 3705   5.771   6.240   6.368 -0.8996  0.8566  1.0884
   28SAPC    HY 3706   5.917   6.138   6.363  0.0881  0.1138  1.2944
   28SAPC   O31 3707   5.847   6.174   6.557 -0.6555 -0.6409 -0.0916
   28SAPC   C31 3708   5.784   6.275   6.615 -0.1508  0.2749  0.4170
   28SAPC   O32 3709   5.743   6.376   6.560  0.3289  0.3614  0.7586
   28SAPC   C32 3710   5.756   6.235   6.761 -0.2177  0.4498 -0.3281
   28SAPC   H2X 3711   5.849   6.192   6.803 -0.5316  1.0594  1.0461
   28SAPC   H2Y 3712   5.674   6.160   6.762 -0.6725  0.8940 -1.6539
   28SAPC   C23 3713   5.315   5.937   6.626  0.0385  0.0425  0.1760
   28SAPC   H3R 3714   5.314   5.827   6.609  0.0264 -0.8153  4.5410
   28SAPC   H3S 3715   5.212   5.978   6.628 -0.3354 -0.7588 -1.2266
   28SAPC   C24 3716   5.393   5.976   6.755  0.2088 -0.3329  0.0132
   28SAPC   H4R 3717   5.358   5.903   6.831 -1.8300 -0.0396 -0.5908
   28SAPC   H4S 3718   5.500   5.945   6.745 -0.3420 -1.7477 -2.2296
   28SAPC   C25 3719   5.372   6.116   6.807 -0.4673 -0.7391  0.2347
   28SAPC   H5R 3720   5.447   6.185   6.768 -1.0763 -0.7516 -1.0008
   28SAPC   C26 3721   5.279   6.166   6.893  0.1892 -0.0519 -0.4203
   28SAPC   H6R 3722   5.287   6.274   6.913 -1.0262 -0.5016  3.2315
   28SAPC   C27 3723   5.165   6.097   6.956 -0.7398  0.6777 -0.3654
   28SAPC   H7R 3724   5.194   6.010   7.019 -0.6221  1.3997  0.5984
   28SAPC   H7S 3725   5.108   6.051   6.873 -1.4629 -1.2790  1.1395
   28SAPC   C28 3726   5.069   6.186   7.028 -0.8385 -0.1070 -0.5061
   28SAPC   H8R 3727   5.118   6.269   7.081  3.8125 -3.4119  1.0411
   28SAPC   C29 3728   4.945   6.146   7.062  0.8876  0.2152  0.6176
   28SAPC   H9R 3729   4.882   6.209   7.126 -0.4899 -0.1365 -0.3678
   28SAPC  C210 3730   4.881   6.014   7.028 -0.0699  0.0189  0.2778
   28SAPC  H10R 3731   4.820   5.980   7.115  0.2617  0.2082  0.5892
   28SAPC  H10S 3732   4.955   5.935   7.002 -0.0495  0.3933 -0.8424
   28SAPC  C211 3733   4.782   6.039   6.912 -0.5827 -0.0106 -0.5528
   28SAPC  H11R 3734   4.746   6.142   6.900 -0.5132  0.0473 -0.2485
   28SAPC  C212 3735   4.746   5.942   6.825 -0.4778  0.2155  0.2947
   28SAPC  H12R 3736   4.659   5.967   6.762 -0.6651  0.6464  0.7234
   28SAPC  C213 3737   4.786   5.797   6.816  0.1237  0.3774  0.2643
   28SAPC  H13R 3738   4.707   5.729   6.780 -0.2371  0.8620  0.1233
   28SAPC  H13S 3739   4.801   5.761   6.920 -1.7726 -2.1495 -0.2529
   28SAPC  C214 3740   4.915   5.788   6.730  0.4726  0.0590  0.2318
   28SAPC  H14R 3741   4.970   5.881   6.714  1.4069 -1.0315 -3.9709
   28SAPC  C215 3742   4.957   5.673   6.687 -0.1599 -0.3551  0.7024
   28SAPC  H15R 3743   5.052   5.663   6.632  0.1135  1.0650  0.8769
   28SAPC  C216 3744   4.889   5.538   6.706  0.1459 -0.6240  0.1786
   28SAPC  H16R 3745   4.878   5.488   6.607  0.3483 -1.4012  0.5450
   28SAPC  H16S 3746   4.792   5.533   6.758 -0.5730  0.1762 -1.0432
   28SAPC  C217 3747   4.996   5.453   6.778  0.4240 -0.0431  0.2332
   28SAPC  H17R 3748   5.046   5.496   6.867 -0.2162  0.0038  0.5727
   28SAPC  H17S 3749   5.075   5.429   6.704  0.6125  0.9342  0.1086
   28SAPC  C218 3750   4.939   5.321   6.830 -0.1716 -0.2032 -0.5562
   28SAPC  H18R 3751   5.015   5.263   6.886 -0.6916  0.3917  0.8038
   28SAPC  H18S 3752   4.907   5.250   6.750  1.4786 -2.0799  0.3669
   28SAPC  C219 3753   4.815   5.324   6.923 -0.0716  0.0293  0.0616
   28SAPC  H19R 3754   4.810   5.221   6.965 -1.3385 -0.4826 -1.2518
   28SAPC  H19S 3755   4.724   5.347   6.862 -0.0922  0.7050  0.3391
   28SAPC  C220 3756   4.815   5.416   7.036  0.2781  0.2168 -0.2270
   28SAPC  H20R 3757   4.915   5.445   7.073 -0.7011 -0.8316  3.6340
   28SAPC  H20S 3758   4.756   5.372   7.118  0.0243  2.1578  0.6933
   28SAPC  H20T 3759   4.761   5.507   7.002 -0.0124 -0.5746 -2.0090
   28SAPC   C33 3760   5.715   6.347   6.859 -0.1435 -0.0271 -0.2820
   28SAPC   H3X 3761   5.606   6.360   6.840 -0.2897 -1.9864 -0.9896
   28SAPC   H3Y 3762   5.764   6.443   6.833  0.1711 -0.0701  0.1329
   28SAPC   C34 3763   5.759   6.318   7.003 -0.1148  0.1834 -0.1252
   28SAPC   H4X 3764   5.743   6.412   7.060 -1.5337 -0.5877  0.7972
   28SAPC   H4Y 3765   5.868   6.295   7.003 -0.1604 -0.1547  1.5169
   28SAPC   C35 3766   5.688   6.202   7.073 -0.1383 -0.5839 -0.2106
   28SAPC   H5X 3767   5.747   6.169   7.161  0.3101 -1.1768 -0.7231
   28SAPC   H5Y 3768   5.693   6.113   7.006 -2.2081 -1.9828  1.3789
   28SAPC   C36 3769   5.548   6.234   7.119  0.2059  0.5790 -0.6262
   28SAPC   H6X 3770   5.485   6.145   7.095  2.4287 -1.6069  1.0769
   28SAPC   H6Y 3771   5.498   6.315   7.062 -0.2134 -0.5417 -1.9153
   28SAPC   C37 3772   5.526   6.242   7.269  0.0526 -0.0989 -0.1591
   28SAPC   H7X 3773   5.585   6.318   7.325  0.5514  0.3680 -1.2820
   28SAPC   H7Y 3774   5.549   6.151   7.328 -2.3734  0.1899  1.4180
   28SAPC   C38 3775   5.374   6.274   7.300 -0.3638 -0.0987  0.2843
   28SAPC   H8X 3776   5.309   6.201   7.246  1.1933 -0.2290 -1.5590
   28SAPC   H8Y 3777   5.349   6.377   7.267 -2.4460 -0.5045  0.4501
   28SAPC   C39 3778   5.351   6.266   7.453 -0.2858 -0.6002  0.4317
   28SAPC   H9X 3779   5.273   6.329   7.500  0.6166  2.4197 -1.7206
   28SAPC   H9Y 3780   5.441   6.309   7.502 -2.7291  3.1402  2.1220
   28SAPC  C310 3781   5.333   6.126   7.499 -0.1738  0.5936  0.4720
   28SAPC  H10X 3782   5.392   6.054   7.438 -0.3456  1.3353 -0.5981
   28SAPC  H10Y 3783   5.227   6.095   7.491  0.4882 -1.3572 -2.2849
   28SAPC  C311 3784   5.384   6.118   7.645  0.1375 -0.1307 -0.1248
   28SAPC  H11X 3785   5.491   6.140   7.665 -0.4578  0.8756  2.3087
   28SAPC  H11Y 3786   5.367   6.015   7.680  0.5137 -1.2334 -2.8851
   28SAPC  C312 3787   5.306   6.215   7.744 -0.6051 -0.2950 -0.0760
   28SAPC  H12X 3788   5.200   6.213   7.710 -0.7192 -0.4801  0.2853
   28SAPC  H12Y 3789   5.349   6.317   7.736 -0.2436 -0.3560  1.0145
   28SAPC  C313 3790   5.309   6.182   7.887 -0.0354  0.0267 -0.5023
   28SAPC  H13X 3791   5.327   6.074   7.908  0.2484  0.2712  0.5973
   28SAPC  H13Y 3792   5.215   6.206   7.941  0.5179  1.6056 -0.1894
   28SAPC  C314 3793   5.422   6.249   7.963 -0.4309  0.0513 -0.3498
   28SAPC  H14X 3794   5.454   6.347   7.923  2.4591 -1.2961 -1.6373
   28SAPC  H14Y 3795   5.507   6.183   7.936  0.4210  0.9275  0.1037
   28SAPC  C315 3796   5.394   6.248   8.114  0.3302 -0.2832  0.4510
   28SAPC  H15X 3797   5.357   6.145   8.134 -0.1013 -0.7398 -2.2766
   28SAPC  H15Y 3798   5.308   6.314   8.135  1.1501  1.2937 -0.8901
   28SAPC  C316 3799   5.511   6.285   8.210  0.1827  0.5527  0.1791
   28SAPC  H16X 3800   5.546   6.385   8.175 -0.2385  0.2196 -1.2482
   28SAPC  H16Y 3801   5.594   6.218   8.180 -0.6425 -1.3691  1.8969
   28SAPC  C317 3802   5.477   6.296   8.361 -0.1689  0.3312 -0.1627
   28SAPC  H17X 3803   5.457   6.193   8.398 -3.5587 -0.2636 -3.0938
   28SAPC  H17Y 3804   5.382   6.352   8.376 -0.6993 -0.5765 -0.0399
   28SAPC  C318 3805   5.600   6.346   8.431  0.0548 -0.1413  0.0249
   28SAPC  H18X 3806   5.694   6.288   8.415  2.6514  3.2449  1.6968
   28SAPC  H18Y 3807   5.582   6.365   8.538 -1.3724 -1.6218  0.0849
   28SAPC  H18Z 3808   5.622   6.448   8.391  1.3722  0.8623  3.0416
   29SAPC     N 3809   3.995   5.241   5.949  0.1808 -0.6207 -0.0374
   29SAPC   C12 3810   3.880   5.173   6.031 -0.4112  0.3807 -0.2361
   29SAPC  H12A 3811   3.829   5.119   5.953  0.1257  0.4805 -0.6668
   29SAPC  H12B 3812   3.819   5.259   6.052 -0.1591  0.3643  0.5751
   29SAPC   C13 3813   4.063   5.344   6.030  0.8926  0.6692 -0.8961
   29SAPC  H13A 3814   4.109   5.296   6.116 -0.7589 -0.7779 -0.7721
   29SAPC  H13B 3815   4.128   5.412   5.978  0.4436  1.0413 -0.9747
   29SAPC  H13C 3816   3.987   5.400   6.082  0.7767 -2.1543  2.4140
   29SAPC   C14 3817   4.091   5.137   5.893 -0.3131  0.2123  0.8066
   29SAPC  H14A 3818   4.135   5.178   5.803  1.1511 -1.1811  0.8456
   29SAPC  H14B 3819   4.179   5.132   5.956 -0.7719  2.3512  1.7292
   29SAPC  H14C 3820   4.039   5.044   5.879  1.1349 -0.3515 -1.2657
   29SAPC   C15 3821   3.933   5.303   5.824  0.1541  0.0326  0.7405
   29SAPC  H15A 3822   3.868   5.384   5.854  0.0975  0.5294 -0.6775
   29SAPC  H15B 3823   4.005   5.351   5.759 -1.0981  0.0259 -0.6811
   29SAPC  H15C 3824   3.878   5.235   5.761 -1.4245  2.4837 -0.6753
   29SAPC   C11 3825   3.911   5.094   6.161  0.1512  0.3543 -0.4050
   29SAPC  H11A 3826   3.977   5.009   6.132  1.0286  0.1857  1.8911
   29SAPC  H11B 3827   3.819   5.047   6.204  1.3655 -0.5197  1.3708
   29SAPC     P 3828   3.915   5.265   6.362  0.3253  0.0055  0.0315
   29SAPC   O13 3829   4.026   5.348   6.408 -0.0634 -0.7350  0.1212
   29SAPC   O14 3830   3.792   5.322   6.308 -0.4768 -0.1236 -0.0615
   29SAPC   O12 3831   3.981   5.171   6.258  0.0018  0.7250  0.1945
   29SAPC   O11 3832   3.877   5.162   6.480 -0.4715 -0.0965  0.7936
   29SAPC    C1 3833   3.952   5.049   6.518  0.0696  0.1452 -0.0056
   29SAPC    HA 3834   3.888   4.959   6.528 -0.6842  0.6087 -0.6133
   29SAPC    HB 3835   4.028   5.013   6.445 -1.1358 -0.9212 -0.7663
   29SAPC    C2 3836   4.016   5.062   6.664 -0.2752 -0.1774  0.3671
   29SAPC    HS 3837   4.074   4.973   6.693  0.4619  0.2282  0.1661
   29SAPC   O21 3838   3.920   5.087   6.768  0.2217  0.0847  0.1351
   29SAPC   C21 3839   3.829   5.001   6.781  0.2545 -0.2682 -0.2443
   29SAPC   O22 3840   3.822   4.889   6.734 -0.5644  0.3121  0.4599
   29SAPC   C22 3841   3.719   5.049   6.877 -0.0541 -0.1651 -0.0728
   29SAPC   H2R 3842   3.749   5.146   6.924  0.0403 -0.6627  0.9263
   29SAPC   H2S 3843   3.631   5.063   6.811 -0.4217 -1.2385  0.1797
   29SAPC    C3 3844   4.118   5.182   6.659 -1.7584 -0.0569 -0.2431
   29SAPC    HX 3845   4.062   5.277   6.653 -0.1028  0.9014 -1.1017
   29SAPC    HY 3846   4.189   5.169   6.575  0.1821 -1.6025  1.5132
   29SAPC   O31 3847   4.208   5.176   6.775 -0.2370 -0.6362 -0.2685
   29SAPC   C31 3848   4.206   5.276   6.861  0.2527  0.2666  0.4645
   29SAPC   O32 3849   4.159   5.390   6.834 -0.6612  0.2323 -0.1041
   29SAPC   C32 3850   4.278   5.235   6.987  0.4467  0.3881 -0.1204
   29SAPC   H2X 3851   4.361   5.308   6.999  1.1729 -0.8422  4.1694
   29SAPC   H2Y 3852   4.330   5.138   6.975 -1.4468 -0.7262  0.2817
   29SAPC   C23 3853   3.699   4.954   6.995  0.1837 -0.3462 -0.7730
   29SAPC   H3R 3854   3.704   4.845   6.974  0.5314 -0.8360  1.5953
   29SAPC   H3S 3855   3.596   4.973   7.031 -0.9490 -2.2185 -2.7284
   29SAPC   C24 3856   3.802   4.977   7.106 -0.0368  0.0390  0.5493
   29SAPC   H4R 3857   3.900   5.002   7.060  0.2436 -0.1093  1.0587
   29SAPC   H4S 3858   3.809   4.885   7.168  2.6137 -1.0277 -1.1347
   29SAPC   C25 3859   3.767   5.100   7.177  0.1573  0.5360  0.2992
   29SAPC   H5R 3860   3.786   5.191   7.118  0.9973  0.0353 -0.2133
   29SAPC   C26 3861   3.725   5.113   7.302 -0.4720  0.0160 -0.9232
   29SAPC   H6R 3862   3.708   5.212   7.346  1.9292 -0.2534  0.7770
   29SAPC   C27 3863   3.709   4.993   7.399 -0.0194 -0.2573  0.4657
   29SAPC   H7R 3864   3.651   4.915   7.345  2.0776 -1.9106  0.4656
   29SAPC   H7S 3865   3.648   5.032   7.483  1.0740  0.5691  0.9046
   29SAPC   C28 3866   3.840   4.933   7.447  0.2582  0.6506  0.4187
   29SAPC   H8R 3867   3.921   4.936   7.373  2.9723  1.0591  3.1872
   29SAPC   C29 3868   3.874   4.889   7.578 -0.0977 -0.3979 -0.2911
   29SAPC   H9R 3869   3.974   4.846   7.592  0.2634  0.0322 -1.4389
   29SAPC  C210 3870   3.781   4.879   7.695  0.5842  0.5793 -0.5328
   29SAPC  H10R 3871   3.681   4.866   7.648  0.2181  1.0978  0.0908
   29SAPC  H10S 3872   3.759   4.976   7.745  1.5043  1.7233 -2.2592
   29SAPC  C211 3873   3.796   4.763   7.794  0.6935  0.4473 -0.1338
   29SAPC  H11R 3874   3.858   4.674   7.776 -1.1363 -1.1353  1.0425
   29SAPC  C212 3875   3.738   4.767   7.916  0.4605 -0.4598 -0.5231
   29SAPC  H12R 3876   3.765   4.688   7.987 -0.3568  0.7812  1.2436
   29SAPC  C213 3877   3.649   4.885   7.966 -0.7703  0.9904 -0.2584
   29SAPC  H13R 3878   3.563   4.890   7.897 -2.3862 -0.6126  1.4977
   29SAPC  H13S 3879   3.711   4.976   7.952  1.4513 -0.5682 -1.0798
   29SAPC  C214 3880   3.591   4.855   8.102 -0.4408  0.3705  0.3568
   29SAPC  H14R 3881   3.508   4.784   8.088  0.1982 -0.5351  1.0359
   29SAPC  C215 3882   3.620   4.921   8.220 -0.0380  0.5132 -0.4585
   29SAPC  H15R 3883   3.572   4.888   8.314 -3.2310  6.3429  0.3924
   29SAPC  C216 3884   3.727   5.023   8.236 -0.6266 -0.6093  0.0334
   29SAPC  H16R 3885   3.700   5.121   8.192 -0.2075 -1.2365 -1.7135
   29SAPC  H16S 3886   3.811   4.988   8.173 -0.2752  0.4399 -0.0859
   29SAPC  C217 3887   3.769   5.043   8.381 -1.5444  0.6227  0.0988
   29SAPC  H17R 3888   3.795   4.949   8.433  2.7420  1.3894 -0.2512
   29SAPC  H17S 3889   3.692   5.092   8.444 -1.3007  0.7037  0.3352
   29SAPC  C218 3890   3.887   5.143   8.385 -0.1051 -1.1260 -0.5868
   29SAPC  H18R 3891   3.841   5.243   8.369 -0.8727 -1.3300  0.2568
   29SAPC  H18S 3892   3.965   5.132   8.306  0.9122 -1.4195  0.4324
   29SAPC  C219 3893   3.957   5.126   8.517  0.1464  0.3049  0.5069
   29SAPC  H19R 3894   4.012   5.030   8.524 -1.5386 -0.6497  1.0693
   29SAPC  H19S 3895   3.881   5.149   8.594 -0.4764  0.2872 -0.0868
   29SAPC  C220 3896   4.067   5.233   8.527  0.2098  0.1377  0.0805
   29SAPC  H20R 3897   4.118   5.257   8.432 -0.5349 -0.1628 -0.4011
   29SAPC  H20S 3898   4.140   5.182   8.594  1.8214 -0.1745 -1.8445
   29SAPC  H20T 3899   4.036   5.325   8.581 -1.3751 -0.2427 -0.1314
   29SAPC   C33 3900   4.195   5.266   7.112  0.2846 -0.3141  0.0986
   29SAPC   H3X 3901   4.099   5.211   7.110  0.1571 -0.0722 -1.8984
   29SAPC   H3Y 3902   4.187   5.374   7.137  2.6005  0.2467 -1.2354
   29SAPC   C34 3903   4.260   5.215   7.241  1.2429 -0.2853  0.8483
   29SAPC   H4X 3904   4.369   5.236   7.250  0.9408  1.4857  0.6543
   29SAPC   H4Y 3905   4.250   5.104   7.241  0.8209 -0.2593 -0.4295
   29SAPC   C35 3906   4.195   5.271   7.363  0.0339 -0.0104  0.1234
   29SAPC   H5X 3907   4.092   5.297   7.332 -0.9974  1.1910  3.9734
   29SAPC   H5Y 3908   4.235   5.372   7.385 -0.5378  0.2284  0.0725
   29SAPC   C36 3909   4.201   5.176   7.480 -0.1130  0.1836  0.3970
   29SAPC   H6X 3910   4.310   5.166   7.497  0.1199  1.4914 -0.2083
   29SAPC   H6Y 3911   4.151   5.079   7.458 -0.2025 -0.3011  2.5510
   29SAPC   C37 3912   4.115   5.235   7.604 -0.0233 -0.1532  0.6051
   29SAPC   H7X 3913   4.010   5.203   7.590 -0.3105  0.5023  1.2264
   29SAPC   H7Y 3914   4.124   5.343   7.582 -1.4297 -0.6306 -2.8917
   29SAPC   C38 3915   4.172   5.228   7.749  0.4368  0.4521  0.6783
   29SAPC   H8X 3916   4.143   5.326   7.791 -0.5953  0.1061  0.7973
   29SAPC   H8Y 3917   4.283   5.224   7.738  0.7060  2.8913  1.8799
   29SAPC   C39 3918   4.106   5.116   7.827  0.4490  0.1035  0.1087
   29SAPC   H9X 3919   4.130   5.020   7.774  2.7480  0.7802 -0.2102
   29SAPC   H9Y 3920   3.996   5.127   7.835  0.7288  2.1152  1.8797
   29SAPC  C310 3921   4.165   5.097   7.967 -0.7842  0.2021 -0.5284
   29SAPC  H10X 3922   4.145   5.192   8.021 -2.2157 -0.5437  0.3284
   29SAPC  H10Y 3923   4.273   5.070   7.964 -0.7020  0.1842  1.4300
   29SAPC  C311 3924   4.084   4.996   8.050 -0.2668 -0.1120  0.0762
   29SAPC  H11X 3925   4.075   4.900   7.994  1.3031 -1.8406  2.5892
   29SAPC  H11Y 3926   3.982   5.024   8.084 -0.1101  1.0098 -0.3303
   29SAPC  C312 3927   4.165   4.951   8.175 -0.1784  0.7594  0.0725
   29SAPC  H12X 3928   4.178   5.043   8.236 -0.8821 -0.4888  2.2145
   29SAPC  H12Y 3929   4.260   4.898   8.152 -1.6933 -1.7424 -0.8113
   29SAPC  C313 3930   4.105   4.850   8.268  0.2536 -0.1925 -0.5181
   29SAPC  H13X 3931   4.088   4.750   8.223 -1.5052 -0.4112  0.5311
   29SAPC  H13Y 3932   4.007   4.889   8.305  0.8042  0.6614  0.0731
   29SAPC  C314 3933   4.192   4.845   8.390  0.1379  1.1385 -0.3423
   29SAPC  H14X 3934   4.202   4.935   8.455 -0.0728  1.7701 -1.1676
   29SAPC  H14Y 3935   4.291   4.818   8.350 -0.9646 -3.7421 -0.3935
   29SAPC  C315 3936   4.145   4.725   8.476  0.1195  0.2951 -0.0293
   29SAPC  H15X 3937   4.171   4.623   8.439 -0.5615 -0.1268  0.6316
   29SAPC  H15Y 3938   4.034   4.727   8.474 -0.0268 -2.9175 -0.2299
   29SAPC  C316 3939   4.204   4.747   8.614  0.4937  0.2858 -0.1796
   29SAPC  H16X 3940   4.157   4.826   8.676  2.2963  0.0883  1.5381
   29SAPC  H16Y 3941   4.312   4.774   8.608  1.4408 -2.8528  0.9695
   29SAPC  C317 3942   4.213   4.625   8.700 -0.6618 -0.1260 -0.4012
   29SAPC  H17X 3943   4.278   4.642   8.788 -2.6711  2.6699  0.7186
   29SAPC  H17Y 3944   4.254   4.542   8.640 -0.6621 -2.5571  2.6938
   29SAPC  C318 3945   4.074   4.581   8.752  0.4197 -0.3141 -0.0911
   29SAPC  H18X 3946   4.085   4.482   8.801  0.8976 -0.0427  0.3723
   29SAPC  H18Y 3947   3.992   4.573   8.677  0.3941 -0.7117 -0.0250
   29SAPC  H18Z 3948   4.038   4.658   8.824  0.0534 -1.5921  1.1473
   30SAPC     N 3949   0.046   3.709   6.367  0.2902 -0.2476 -0.4884
   30SAPC   C12 3950  -0.052   3.828   6.365 -0.0452  0.1011 -0.0092
   30SAPC  H12A 3951  -0.003   3.915   6.407  0.8704  0.1815 -1.1747
   30SAPC  H12B 3952  -0.130   3.799   6.434  0.2708 -0.0316  0.2991
   30SAPC   C13 3953   0.177   3.749   6.296  0.6960  0.7446  0.1419
   30SAPC  H13A 3954   0.221   3.834   6.345 -1.2192  1.6885  0.2937
   30SAPC  H13B 3955   0.252   3.671   6.297  1.3270  1.3497  0.8410
   30SAPC  H13C 3956   0.153   3.762   6.191 -3.1054  0.5425  0.8556
   30SAPC   C14 3957   0.076   3.681   6.514  0.5010  0.6095 -0.0635
   30SAPC  H14A 3958   0.128   3.587   6.530 -0.0202  0.5113  1.1752
   30SAPC  H14B 3959   0.125   3.763   6.563 -2.7781  1.4510  2.1208
   30SAPC  H14C 3960  -0.008   3.664   6.580 -0.3464  0.5066 -1.1353
   30SAPC   C15 3961  -0.002   3.590   6.290  0.7294 -0.3051 -0.0248
   30SAPC  H15A 3962  -0.097   3.553   6.325 -0.4178 -0.2303 -2.7985
   30SAPC  H15B 3963  -0.027   3.624   6.191 -2.4105  1.1598  1.1378
   30SAPC  H15C 3964   0.060   3.502   6.278  0.0020 -0.9315  0.7394
   30SAPC   C11 3965  -0.107   3.879   6.232 -0.6592 -0.1268 -0.3404
   30SAPC  H11A 3966  -0.191   3.951   6.243  0.2082  0.8441  0.1001
   30SAPC  H11B 3967  -0.144   3.787   6.182 -0.9054 -1.2480  1.7858
   30SAPC     P 3968   0.047   4.077   6.195 -0.2610 -0.1490 -0.1581
   30SAPC   O13 3969   0.190   4.073   6.208  0.0223 -0.1331  0.0567
   30SAPC   O14 3970  -0.001   4.181   6.104 -0.1709 -0.1512  0.2369
   30SAPC   O12 3971  -0.000   3.931   6.147  0.0504 -0.4638 -0.4892
   30SAPC   O11 3972  -0.016   4.099   6.335 -0.2055  0.0693 -0.3997
   30SAPC    C1 3973  -0.024   4.236   6.389  0.2162 -0.5742 -0.2379
   30SAPC    HA 3974   0.077   4.283   6.395 -0.0736 -0.0906  1.1629
   30SAPC    HB 3975  -0.081   4.299   6.318 -0.0381  0.5855  0.9669
   30SAPC    C2 3976  -0.089   4.239   6.536  0.4209  0.2399  0.2404
   30SAPC    HS 3977  -0.070   4.339   6.580  1.5086  0.4167 -0.5715
   30SAPC   O21 3978  -0.037   4.144   6.619  0.2093  0.1030  0.0815
   30SAPC   C21 3979   0.080   4.161   6.666  0.6956 -0.1569  0.3125
   30SAPC   O22 3980   0.149   4.261   6.645 -0.0230  0.8377  0.4265
   30SAPC   C22 3981   0.116   4.058   6.777  0.1036 -0.5359  0.5154
   30SAPC   H2R 3982   0.136   3.962   6.725 -0.1150 -0.1546 -0.2946
   30SAPC   H2S 3983   0.217   4.093   6.807  0.0436 -1.1875  1.5376
   30SAPC    C3 3984  -0.239   4.204   6.515 -0.6380 -0.3887 -0.0869
   30SAPC    HX 3985  -0.251   4.101   6.473 -1.4711 -0.1430 -0.4653
   30SAPC    HY 3986  -0.291   4.263   6.437 -0.8997 -1.6212 -0.8757
   30SAPC   O31 3987  -0.301   4.228   6.641 -0.7249 -0.7226  0.5679
   30SAPC   C31 3988  -0.338   4.125   6.715 -0.7598  0.1327  0.1093
   30SAPC   O32 3989  -0.328   4.009   6.688 -0.0229  0.0242  0.0736
   30SAPC   C32 3990  -0.407   4.174   6.836  0.9066  0.0593 -1.0296
   30SAPC   H2X 3991  -0.514   4.144   6.844  1.1658 -0.7580 -0.5522
   30SAPC   H2Y 3992  -0.409   4.284   6.856 -0.0180 -0.2814  0.9651
   30SAPC   C23 3993   0.019   4.037   6.891  0.7165  0.2369  0.7527
   30SAPC   H3R 3994  -0.073   3.993   6.849  0.1810  0.8117  1.2990
   30SAPC   H3S 3995   0.003   4.140   6.929 -1.0189  0.9366 -1.6655
   30SAPC   C24 3996   0.079   3.938   6.992 -0.1884  0.4507  0.3252
   30SAPC   H4R 3997   0.100   3.848   6.931 -0.4304  0.9408 -0.4962
   30SAPC   H4S 3998  -0.004   3.928   7.065  0.5441 -0.5487  1.0557
   30SAPC   C25 3999   0.201   3.979   7.071  0.9395 -0.3085  0.2948
   30SAPC   H5R 4000   0.297   3.940   7.032 -0.8970 -3.6380 -1.4255
   30SAPC   C26 4001   0.208   4.052   7.183 -0.6147  0.0751 -0.3855
   30SAPC   H6R 4002   0.304   4.065   7.233 -1.4608  0.1132  1.2827
   30SAPC   C27 4003   0.102   4.119   7.270 -0.1014  0.7856  0.8195
   30SAPC   H7R 4004   0.003   4.111   7.220 -1.3309  1.5769  3.0039
   30SAPC   H7S 4005   0.112   4.229   7.276  0.2175  0.8931 -1.1703
   30SAPC   C28 4006   0.093   4.054   7.408  1.1578 -1.1204  0.4991
   30SAPC   H8R 4007   0.086   3.944   7.407  1.7709 -1.1726 -1.5488
   30SAPC   C29 4008   0.093   4.119   7.521 -0.7223 -0.3768 -0.3815
   30SAPC   H9R 4009   0.087   4.064   7.616 -0.5167 -2.0433 -1.2940
   30SAPC  C210 4010   0.101   4.266   7.552 -0.0597  0.1095  0.1732
   30SAPC  H10R 4011   0.008   4.287   7.609  0.3550 -0.9484  1.2603
   30SAPC  H10S 4012   0.109   4.330   7.461  0.6547  1.4295  1.1377
   30SAPC  C211 4013   0.224   4.297   7.634  0.4374  0.3787 -0.4878
   30SAPC  H11R 4014   0.322   4.279   7.587  0.7578 -0.9305  0.6224
   30SAPC  C212 4015   0.237   4.357   7.753  0.2960  0.4362 -0.3092
   30SAPC  H12R 4016   0.334   4.356   7.804 -0.4988  0.1598  1.2694
   30SAPC  C213 4017   0.123   4.408   7.842 -0.4652 -0.1468 -0.4793
   30SAPC  H13R 4018   0.097   4.325   7.911 -1.2611 -0.1472 -0.7771
   30SAPC  H13S 4019   0.029   4.440   7.793 -1.7597  0.0053  1.9909
   30SAPC  C214 4020   0.186   4.532   7.912  0.2394  0.1113  0.2778
   30SAPC  H14R 4021   0.262   4.585   7.853 -1.0432 -0.8862 -2.4317
   30SAPC  C215 4022   0.156   4.572   8.038  0.2170  0.3127 -0.3888
   30SAPC  H15R 4023   0.215   4.657   8.075  0.0040 -0.5250  2.0961
   30SAPC  C216 4024   0.054   4.510   8.138  0.0208 -0.1986 -0.3551
   30SAPC  H16R 4025  -0.000   4.427   8.087 -0.5348 -0.8830  1.2734
   30SAPC  H16S 4026  -0.021   4.590   8.157  1.8181  1.8810 -1.5252
   30SAPC  C217 4027   0.104   4.463   8.274 -0.8229  0.8472  0.0252
   30SAPC  H17R 4028   0.017   4.459   8.343  0.4196 -0.8942  1.5798
   30SAPC  H17S 4029   0.187   4.528   8.309 -0.7463 -0.5694  2.6923
   30SAPC  C218 4030   0.163   4.322   8.278  0.6088 -0.1324  0.0059
   30SAPC  H18R 4031   0.205   4.299   8.378  0.9690  5.0530  1.3277
   30SAPC  H18S 4032   0.262   4.328   8.229  0.5326  2.2087  0.0484
   30SAPC  C219 4033   0.076   4.214   8.207  0.3747 -0.2798  1.0764
   30SAPC  H19R 4034   0.129   4.119   8.229  0.4035 -0.2122  1.3033
   30SAPC  H19S 4035   0.075   4.229   8.097  0.3846  0.9239  1.2310
   30SAPC  C220 4036  -0.070   4.201   8.257  0.5713 -0.2383  0.5001
   30SAPC  H20R 4037  -0.079   4.207   8.367 -0.1419  0.9738  0.3937
   30SAPC  H20S 4038  -0.104   4.098   8.233  1.5797 -0.2795 -0.9037
   30SAPC  H20T 4039  -0.134   4.273   8.201  0.2086 -0.5264  0.5382
   30SAPC   C33 4040  -0.352   4.118   6.968 -0.0240 -0.2253 -0.0507
   30SAPC   H3X 4041  -0.243   4.136   6.953 -0.0234 -1.6565 -2.2385
   30SAPC   H3Y 4042  -0.364   4.009   6.988  0.1149 -0.2203  0.0673
   30SAPC   C34 4043  -0.409   4.177   7.093 -0.2514 -0.7277 -0.4975
   30SAPC   H4X 4044  -0.517   4.161   7.109  0.2092 -1.4536  2.4898
   30SAPC   H4Y 4045  -0.383   4.285   7.091  0.2793 -0.8455 -2.7232
   30SAPC   C35 4046  -0.341   4.120   7.221  0.0890  0.1647 -0.1445
   30SAPC   H5X 4047  -0.238   4.160   7.228  1.5031 -2.9130 -1.3331
   30SAPC   H5Y 4048  -0.335   4.009   7.218 -2.3683 -0.0173 -0.4175
   30SAPC   C36 4049  -0.407   4.161   7.352  0.2945  0.0310  0.5443
   30SAPC   H6X 4050  -0.510   4.119   7.363  0.0921  0.1188 -0.8342
   30SAPC   H6Y 4051  -0.412   4.270   7.335 -0.0165 -0.3077 -2.0305
   30SAPC   C37 4052  -0.331   4.116   7.479 -0.1250  0.4574 -0.1449
   30SAPC   H7X 4053  -0.228   4.155   7.467 -0.3675  0.9552 -0.6779
   30SAPC   H7Y 4054  -0.319   4.006   7.469 -1.8115  0.1898  0.3689
   30SAPC   C38 4055  -0.409   4.151   7.611 -0.1107  0.1802 -0.0995
   30SAPC   H8X 4056  -0.515   4.119   7.604 -0.0710 -0.0391  0.2872
   30SAPC   H8Y 4057  -0.410   4.261   7.627 -1.4507 -0.0735  1.8872
   30SAPC   C39 4058  -0.345   4.086   7.739  0.4686  0.4360  0.3098
   30SAPC   H9X 4059  -0.371   3.979   7.741  1.1753  0.1874 -1.7330
   30SAPC   H9Y 4060  -0.384   4.146   7.824  0.4393  0.9909 -0.0908
   30SAPC  C310 4061  -0.193   4.093   7.740 -0.3901  0.0290  0.1376
   30SAPC  H10X 4062  -0.155   4.196   7.723  1.6384 -0.5297  0.9589
   30SAPC  H10Y 4063  -0.156   4.029   7.657  0.1844 -0.7269  0.9541
   30SAPC  C311 4064  -0.139   4.033   7.872 -0.5580  0.5013  0.0466
   30SAPC  H11X 4065  -0.176   3.932   7.900  1.3544  0.3991  2.6437
   30SAPC  H11Y 4066  -0.185   4.083   7.960  1.4395  1.7150  0.4717
   30SAPC  C312 4067   0.016   4.022   7.875  0.1807  0.4317  0.1676
   30SAPC  H12X 4068   0.045   4.026   7.982  1.6482  1.9600 -0.2380
   30SAPC  H12Y 4069   0.057   4.112   7.825  1.5104 -0.6776 -0.8191
   30SAPC  C313 4070   0.075   3.895   7.815  0.0320 -0.2972  0.2190
   30SAPC  H13X 4071   0.068   3.904   7.705 -0.0731 -0.1895  0.2332
   30SAPC  H13Y 4072   0.014   3.806   7.843 -1.1206  0.5049  0.3451
   30SAPC  C314 4073   0.222   3.880   7.861 -0.0320 -0.1519 -0.6482
   30SAPC  H14X 4074   0.264   3.980   7.839 -2.2128  0.7978 -0.6966
   30SAPC  H14Y 4075   0.282   3.804   7.805  0.4913 -0.4507  0.3012
   30SAPC  C315 4076   0.238   3.864   8.013 -0.4215  0.4368  0.0476
   30SAPC  H15X 4077   0.173   3.780   8.046  1.7857 -1.4091 -0.0242
   30SAPC  H15Y 4078   0.201   3.949   8.074  1.9124  1.5502  0.0438
   30SAPC  C316 4079   0.379   3.832   8.066 -0.1763  0.7363 -0.2425
   30SAPC  H16X 4080   0.418   3.764   7.987 -0.7939  2.7631 -2.4147
   30SAPC  H16Y 4081   0.370   3.784   8.166  2.5575  1.6008  0.5177
   30SAPC  C317 4082   0.475   3.957   8.083  0.3995 -0.8003 -0.4059
   30SAPC  H17X 4083   0.432   4.034   8.150 -1.7022 -1.3055 -1.0884
   30SAPC  H17Y 4084   0.471   3.993   7.978  0.5963  1.2071  0.2348
   30SAPC  C318 4085   0.624   3.919   8.112  0.3626  0.6752  0.7288
   30SAPC  H18X 4086   0.701   3.989   8.071  0.1841 -0.4367 -1.6920
   30SAPC  H18Y 4087   0.653   3.823   8.064  0.8977  1.3441 -0.3314
   30SAPC  H18Z 4088   0.624   3.912   8.223 -0.9967  1.3973  0.7990
   31SAPC     N 4089   1.039   3.632   6.483 -0.0034  0.3311  0.2271
   31SAPC   C12 4090   1.047   3.491   6.421  0.2430 -0.6342  0.3086
   31SAPC  H12A 4091   1.022   3.419   6.498 -1.3788  1.2281  1.5965
   31SAPC  H12B 4092   1.151   3.474   6.396  0.1855  0.9969 -1.1793
   31SAPC   C13 4093   1.131   3.623   6.608  0.2708 -0.2584  0.6942
   31SAPC  H13A 4094   1.125   3.717   6.662 -0.8167 -0.1860  0.4709
   31SAPC  H13B 4095   1.106   3.550   6.683 -3.1943 -0.1583 -0.1502
   31SAPC  H13C 4096   1.234   3.613   6.580  0.2880 -0.3728  0.8012
   31SAPC   C14 4097   1.101   3.738   6.398  0.3568 -0.7562  1.3722
   31SAPC  H14A 4098   1.032   3.776   6.325  2.4765 -0.7613 -0.7534
   31SAPC  H14B 4099   1.140   3.823   6.452  2.7018 -0.2111 -0.9631
   31SAPC  H14C 4100   1.185   3.702   6.341  0.1550  1.1068 -0.1743
   31SAPC   C15 4101   0.903   3.665   6.514 -0.0554  0.3031  0.0356
   31SAPC  H15A 4102   0.872   3.636   6.613 -0.9065 -1.4757 -0.7169
   31SAPC  H15B 4103   0.870   3.767   6.501 -0.2095  0.1314 -0.9936
   31SAPC  H15C 4104   0.834   3.612   6.450  0.2392  1.5518 -1.3792
   31SAPC   C11 4105   0.967   3.463   6.290 -1.2410  0.5097 -0.7342
   31SAPC  H11A 4106   0.984   3.355   6.273 -3.5596 -0.1524  0.7332
   31SAPC  H11B 4107   1.019   3.505   6.200  0.4048  3.6343  1.4619
   31SAPC     P 4108   0.711   3.402   6.327 -0.2421  0.2479 -0.3067
   31SAPC   O13 4109   0.590   3.479   6.369  0.2443  0.5962  0.5481
   31SAPC   O14 4110   0.702   3.294   6.231 -0.6624 -0.2736  0.4748
   31SAPC   O12 4111   0.825   3.492   6.291 -0.6368 -0.4643 -0.0396
   31SAPC   O11 4112   0.776   3.340   6.459  0.3695 -0.8452  0.1584
   31SAPC    C1 4113   0.705   3.366   6.581  0.6044 -0.5103  0.2081
   31SAPC    HA 4114   0.658   3.467   6.583  0.2330 -0.5893 -2.1559
   31SAPC    HB 4115   0.622   3.293   6.587  0.8733 -0.7896  0.5605
   31SAPC    C2 4116   0.790   3.348   6.706  0.3884  0.5497  0.4554
   31SAPC    HS 4117   0.878   3.412   6.688 -0.5795  2.1383  1.2037
   31SAPC   O21 4118   0.818   3.211   6.722 -0.3368 -0.1893  0.1142
   31SAPC   C21 4119   0.929   3.189   6.788 -0.0602 -0.2167 -0.2822
   31SAPC   O22 4120   1.012   3.273   6.829  0.8165 -0.1997 -0.0376
   31SAPC   C22 4121   0.951   3.034   6.811 -0.3803 -0.4663 -0.0353
   31SAPC   H2R 4122   0.889   3.002   6.898 -2.8160  2.1411 -0.6459
   31SAPC   H2S 4123   0.925   2.979   6.719 -1.0042 -2.1729  1.1012
   31SAPC    C3 4124   0.710   3.404   6.829  0.3009  0.2937  0.2589
   31SAPC    HX 4125   0.608   3.361   6.823  0.1704  0.8195 -2.7853
   31SAPC    HY 4126   0.689   3.511   6.808  1.3748  0.4842  0.1345
   31SAPC   O31 4127   0.766   3.381   6.961  0.0862  0.3619 -0.4146
   31SAPC   C31 4128   0.842   3.468   7.011  0.3207  0.6301  0.5909
   31SAPC   O32 4129   0.881   3.574   6.955  0.1552  0.4430  0.5082
   31SAPC   C32 4130   0.908   3.415   7.148 -0.6007  0.3051  0.0945
   31SAPC   H2X 4131   0.904   3.305   7.157 -2.2707  0.3692  0.3192
   31SAPC   H2Y 4132   0.846   3.457   7.230  0.3432  0.9288  0.5032
   31SAPC   C23 4133   1.105   3.005   6.845  0.0080  0.5355  0.1892
   31SAPC   H3R 4134   1.175   3.074   6.793 -0.4702  0.9569  0.1033
   31SAPC   H3S 4135   1.129   2.906   6.801 -2.0791  0.0645  0.0168
   31SAPC   C24 4136   1.145   3.010   6.996  0.2732  0.6142  0.0872
   31SAPC   H4R 4137   1.143   3.110   7.044  2.4282  0.7410  0.0107
   31SAPC   H4S 4138   1.255   2.995   6.995  0.2524  0.3797  0.8001
   31SAPC   C25 4139   1.093   2.890   7.060 -0.6796  0.1318  0.6473
   31SAPC   H5R 4140   1.082   2.799   6.999  1.1303 -0.0060  0.4705
   31SAPC   C26 4141   1.080   2.881   7.193  0.0512  0.1207 -0.2761
   31SAPC   H6R 4142   1.029   2.793   7.236 -0.3120  0.6858  0.4626
   31SAPC   C27 4143   1.103   2.981   7.302 -0.5845  0.1476  0.8302
   31SAPC   H7R 4144   1.006   3.029   7.324 -0.4199  0.3845  1.0363
   31SAPC   H7S 4145   1.166   3.060   7.256 -0.8395  0.3171  0.7703
   31SAPC   C28 4146   1.178   2.911   7.410  0.3802  0.5972  0.2564
   31SAPC   H8R 4147   1.259   2.843   7.379 -0.6993 -0.7484  0.2995
   31SAPC   C29 4148   1.165   2.915   7.545 -0.2298 -0.6595 -0.1888
   31SAPC   H9R 4149   1.229   2.846   7.602 -0.0966 -2.0293 -1.9352
   31SAPC  C210 4150   1.057   2.992   7.623  0.3560  0.5331  0.1979
   31SAPC  H10R 4151   0.986   2.923   7.673 -0.7380 -0.0579 -2.0608
   31SAPC  H10S 4152   1.007   3.061   7.551  1.4711  1.5152  0.3288
   31SAPC  C211 4153   1.136   3.077   7.721  0.0640  0.1585  0.3161
   31SAPC  H11R 4154   1.198   3.155   7.674 -1.2857  0.5041 -0.9592
   31SAPC  C212 4155   1.130   3.058   7.856  0.4461 -0.8858 -0.0533
   31SAPC  H12R 4156   1.191   3.123   7.920 -2.1595 -0.1586  1.8778
   31SAPC  C213 4157   1.046   2.955   7.932  0.0538 -0.6253  0.0648
   31SAPC  H13R 4158   0.938   2.963   7.907  0.3870  1.3456 -0.9191
   31SAPC  H13S 4159   1.067   2.984   8.038 -1.0809 -2.5101  0.8531
   31SAPC  C214 4160   1.096   2.819   7.907  0.2370 -0.1975 -0.0899
   31SAPC  H14R 4161   1.183   2.800   7.843  0.9885  0.8025  0.6167
   31SAPC  C215 4162   1.046   2.713   7.977 -0.0199  0.1074 -0.2984
   31SAPC  H15R 4163   1.090   2.614   7.962  1.6806  1.0824 -2.0968
   31SAPC  C216 4164   0.944   2.715   8.087  0.3726  0.1644  0.1207
   31SAPC  H16R 4165   0.889   2.618   8.093 -0.3765  0.5441 -0.3707
   31SAPC  H16S 4166   0.861   2.788   8.081 -1.1121 -1.5532 -2.2371
   31SAPC  C217 4167   1.015   2.736   8.222 -0.3761  0.4707 -0.3522
   31SAPC  H17R 4168   1.062   2.837   8.228 -1.1669  0.8967 -1.0983
   31SAPC  H17S 4169   1.085   2.650   8.232  0.1748  1.1461  3.3140
   31SAPC  C218 4170   0.914   2.725   8.338  0.3402  0.9443  0.8482
   31SAPC  H18R 4171   0.850   2.634   8.344 -0.5718  1.6520  2.3849
   31SAPC  H18S 4172   0.829   2.796   8.332 -0.6740 -0.3329 -1.1075
   31SAPC  C219 4173   0.982   2.728   8.478 -0.2467  0.0897 -0.5484
   31SAPC  H19R 4174   1.026   2.828   8.499  1.0555 -0.0975 -2.1910
   31SAPC  H19S 4175   1.075   2.669   8.469 -0.0083  0.6535 -2.1729
   31SAPC  C220 4176   0.885   2.686   8.596  0.7087 -0.5878 -0.0875
   31SAPC  H20R 4177   0.813   2.770   8.609  1.2459 -0.0675 -0.4247
   31SAPC  H20S 4178   0.934   2.664   8.693 -0.6276 -0.1815  0.7123
   31SAPC  H20T 4179   0.840   2.591   8.561 -0.4318 -0.1845  0.2599
   31SAPC   C33 4180   1.059   3.441   7.164 -0.5360 -0.0548 -0.4589
   31SAPC   H3X 4181   1.091   3.546   7.150  1.0860 -0.3584  0.7051
   31SAPC   H3Y 4182   1.112   3.390   7.081  1.4222 -1.8689  1.7677
   31SAPC   C34 4183   1.114   3.378   7.298 -0.3721 -0.3706 -0.5909
   31SAPC   H4X 4184   1.124   3.267   7.294  0.7320 -0.3243  0.6223
   31SAPC   H4Y 4185   1.048   3.400   7.384  1.3718  0.0431  0.6781
   31SAPC   C35 4186   1.249   3.434   7.330  0.2553  0.0227 -0.0812
   31SAPC   H5X 4187   1.235   3.544   7.327 -2.1031 -0.0942  2.7105
   31SAPC   H5Y 4188   1.321   3.420   7.246  0.7385  2.3388 -0.1112
   31SAPC   C36 4189   1.296   3.387   7.468  0.2871  0.0039  0.3296
   31SAPC   H6X 4190   1.403   3.418   7.472  0.0340  1.0189 -0.3749
   31SAPC   H6Y 4191   1.307   3.277   7.462  3.2017  0.2378 -0.1292
   31SAPC   C37 4192   1.224   3.425   7.601 -0.0731 -0.5269  0.7528
   31SAPC   H7X 4193   1.117   3.396   7.599 -1.1085  2.8320  0.6310
   31SAPC   H7Y 4194   1.212   3.535   7.594  0.1110 -0.5119  0.6745
   31SAPC   C38 4195   1.296   3.395   7.737  0.1780  0.3049 -0.2194
   31SAPC   H8X 4196   1.396   3.436   7.711  0.2971  1.1627  1.4227
   31SAPC   H8Y 4197   1.310   3.287   7.758 -3.0819 -0.1636 -0.0034
   31SAPC   C39 4198   1.223   3.460   7.856  0.5559  0.9082 -0.3946
   31SAPC   H9X 4199   1.116   3.431   7.855  0.6694  0.4889 -0.3472
   31SAPC   H9Y 4200   1.227   3.570   7.841 -1.4319  0.8989 -1.3615
   31SAPC  C310 4201   1.296   3.446   7.988  0.4524 -0.0436 -0.4190
   31SAPC  H10X 4202   1.395   3.496   7.988  1.0393 -1.0585  2.0605
   31SAPC  H10Y 4203   1.325   3.340   8.001 -1.1404 -0.5559 -0.7800
   31SAPC  C311 4204   1.225   3.505   8.118  0.2076 -0.0409  0.7493
   31SAPC  H11X 4205   1.295   3.537   8.198  0.4868 -1.3624  1.0463
   31SAPC  H11Y 4206   1.159   3.429   8.165  3.5037 -1.0095  4.3448
   31SAPC  C312 4207   1.135   3.624   8.086  0.7871 -0.2540 -0.4750
   31SAPC  H12X 4208   1.038   3.608   8.033 -0.2966 -0.4434  1.4664
   31SAPC  H12Y 4209   1.200   3.689   8.024  1.6762 -1.4125 -0.7830
   31SAPC  C313 4210   1.087   3.697   8.205  0.0936  0.2246 -0.0001
   31SAPC  H13X 4211   1.056   3.794   8.160 -0.0163 -0.3352 -1.1795
   31SAPC  H13Y 4212   1.169   3.728   8.273  0.7231  0.0136 -0.6517
   31SAPC  C314 4213   0.975   3.620   8.282  0.5600  0.1272 -0.1300
   31SAPC  H14X 4214   1.006   3.516   8.308 -0.1075  0.1903  1.0126
   31SAPC  H14Y 4215   0.889   3.612   8.212 -1.2904 -0.9306  2.1227
   31SAPC  C315 4216   0.943   3.711   8.400  1.0358  0.0208  0.1080
   31SAPC  H15X 4217   0.916   3.805   8.348 -3.0772 -1.8679 -1.6394
   31SAPC  H15Y 4218   1.029   3.733   8.467  1.9997  0.7007 -1.3122
   31SAPC  C316 4219   0.817   3.669   8.469 -0.5503 -0.6397  0.0250
   31SAPC  H16X 4220   0.815   3.563   8.504 -1.5991 -0.3341  0.9598
   31SAPC  H16Y 4221   0.728   3.675   8.402  0.3050  0.6039 -1.0298
   31SAPC  C317 4222   0.797   3.748   8.603 -0.2454  0.1230  0.2616
   31SAPC  H17X 4223   0.783   3.855   8.577  1.3300  0.7939  1.9235
   31SAPC  H17Y 4224   0.887   3.743   8.668 -0.3304  0.3297  0.3966
   31SAPC  C318 4225   0.672   3.697   8.679 -0.3005 -0.5321  0.2362
   31SAPC  H18X 4226   0.693   3.595   8.718  0.5921 -0.8656 -1.0639
   31SAPC  H18Y 4227   0.593   3.696   8.601 -1.4425 -1.4454  1.3555
   31SAPC  H18Z 4228   0.645   3.768   8.760  0.2394 -0.4205  0.3189
   32SAPC     N 4229   5.676   5.454   6.079  0.0020 -0.2534  0.4251
   32SAPC   C12 4230   5.702   5.516   6.211 -0.0568  0.3282  0.0102
   32SAPC  H12A 4231   5.777   5.462   6.266  1.2321  1.7086 -0.3300
   32SAPC  H12B 4232   5.612   5.519   6.271 -0.1965 -1.5544 -0.0487
   32SAPC   C13 4233   5.808   5.412   6.025 -0.3964 -0.7399 -0.1574
   32SAPC  H13A 4234   5.844   5.335   6.092 -2.3070 -1.1599  0.4602
   32SAPC  H13B 4235   5.800   5.375   5.924 -0.1219  0.5214 -0.6598
   32SAPC  H13C 4236   5.880   5.492   6.021  2.1571 -2.8752 -0.0735
   32SAPC   C14 4237   5.599   5.330   6.092  0.5357  0.2341 -0.1629
   32SAPC  H14A 4238   5.643   5.270   6.171  2.9241  2.9017  0.6752
   32SAPC  H14B 4239   5.494   5.350   6.107  0.9701  1.9669  0.8078
   32SAPC  H14C 4240   5.609   5.272   6.002 -1.3142  1.3802 -1.1584
   32SAPC   C15 4241   5.620   5.539   5.974 -0.4040 -0.4369 -0.0066
   32SAPC  H15A 4242   5.678   5.628   5.957 -2.3008  0.9322  0.4067
   32SAPC  H15B 4243   5.612   5.497   5.874  4.5424  2.0795 -1.8289
   32SAPC  H15C 4244   5.527   5.585   6.004 -0.2144 -1.3980  2.1930
   32SAPC   C11 4245   5.754   5.665   6.217  0.6904 -0.4432  0.0284
   32SAPC  H11A 4246   5.754   5.698   6.323  0.2211 -0.9979  0.2084
   32SAPC  H11B 4247   5.682   5.733   6.167 -1.7993 -1.7270  1.6573
   32SAPC     P 4248   5.999   5.669   6.245  0.0242  0.0221 -0.0497
   32SAPC   O13 4249   6.116   5.673   6.153  0.5738  0.0118 -0.1196
   32SAPC   O14 4250   5.999   5.781   6.346 -0.2139  0.2807 -0.2253
   32SAPC   O12 4251   5.879   5.678   6.147 -0.2185  0.2315 -0.3442
   32SAPC   O11 4252   5.976   5.530   6.314  0.0437  0.5216 -0.2078
   32SAPC    C1 4253   6.083   5.439   6.324 -0.6122 -0.2728  0.2049
   32SAPC    HA 4254   6.046   5.336   6.310  3.0345 -2.1788  2.8145
   32SAPC    HB 4255   6.155   5.443   6.239 -0.8322  1.5418  0.0654
   32SAPC    C2 4256   6.154   5.434   6.460  0.9242 -0.0210 -0.2845
   32SAPC    HS 4257   6.214   5.341   6.470 -0.2430 -0.7336  0.2429
   32SAPC   O21 4258   6.056   5.457   6.567  0.0667 -0.0659 -0.3114
   32SAPC   C21 4259   5.984   5.352   6.597 -0.7081 -0.0526  0.6408
   32SAPC   O22 4260   5.987   5.238   6.549  0.1751 -0.6134  0.0322
   32SAPC   C22 4261   5.904   5.390   6.723  0.1850 -0.4802  1.0843
   32SAPC   H2R 4262   5.970   5.445   6.794  0.9579 -1.3732  1.0844
   32SAPC   H2S 4263   5.820   5.454   6.690  0.2512 -1.1976 -0.5508
   32SAPC    C3 4264   6.261   5.545   6.477  0.2678 -0.3877  0.0914
   32SAPC    HX 4265   6.215   5.647   6.472 -0.5288 -0.7703 -0.5555
   32SAPC    HY 4266   6.336   5.552   6.395  1.2175 -1.1162  0.8701
   32SAPC   O31 4267   6.346   5.527   6.590  0.0317 -0.0014  0.0804
   32SAPC   C31 4268   6.300   5.582   6.710  0.0679 -0.6516  0.2831
   32SAPC   O32 4269   6.198   5.652   6.719  0.3686  0.2054 -0.5989
   32SAPC   C32 4270   6.399   5.560   6.822  0.5515  0.5803 -0.1066
   32SAPC   H2X 4271   6.443   5.656   6.857 -0.7120  1.0462  0.2559
   32SAPC   H2Y 4272   6.484   5.491   6.802 -0.3861 -1.2334  1.7459
   32SAPC   C23 4273   5.853   5.260   6.792 -1.0183  0.0726 -0.3193
   32SAPC   H3R 4274   5.930   5.181   6.794 -1.9420 -0.8693 -0.9976
   32SAPC   H3S 4275   5.771   5.213   6.733 -1.2824 -0.8283  0.7447
   32SAPC   C24 4276   5.820   5.274   6.939  0.8369  0.0466  0.2930
   32SAPC   H4R 4277   5.739   5.349   6.952  0.8634 -0.1026  1.3854
   32SAPC   H4S 4278   5.903   5.333   6.985  0.3883 -0.1405  1.3647
   32SAPC   C25 4279   5.797   5.147   7.013  0.6509 -0.6808  0.3818
   32SAPC   H5R 4280   5.744   5.078   6.946 -2.4989  1.4770  0.4181
   32SAPC   C26 4281   5.817   5.121   7.143 -0.2738  0.6716  0.8448
   32SAPC   H6R 4282   5.789   5.018   7.166 -0.3380  0.1629 -1.3235
   32SAPC   C27 4283   5.885   5.206   7.247  0.1370 -0.3950 -0.0416
   32SAPC   H7R 4284   5.957   5.269   7.189 -0.6178 -0.5767 -1.1971
   32SAPC   H7S 4285   5.950   5.143   7.312 -1.3636 -0.9723  0.9621
   32SAPC   C28 4286   5.793   5.284   7.336  0.4342 -0.8663 -0.0471
   32SAPC   H8R 4287   5.711   5.336   7.284  0.2810 -0.4014  0.6363
   32SAPC   C29 4288   5.790   5.310   7.469  0.2696  0.1894 -0.3149
   32SAPC   H9R 4289   5.715   5.373   7.519  0.9402 -1.3813  2.9578
   32SAPC  C210 4290   5.872   5.257   7.582 -0.1244 -0.3100  0.3354
   32SAPC  H10R 4291   5.958   5.323   7.606 -1.8516  2.4536 -0.6145
   32SAPC  H10S 4292   5.923   5.166   7.544 -0.1918 -1.0545  1.9060
   32SAPC  C211 4293   5.788   5.221   7.702  0.2230 -0.3779 -0.0786
   32SAPC  H11R 4294   5.727   5.130   7.702 -0.6789  0.2045 -1.5289
   32SAPC  C212 4295   5.783   5.288   7.818 -0.0956 -0.4431  0.4659
   32SAPC  H12R 4296   5.702   5.264   7.888 -0.7060  2.7116  1.0311
   32SAPC  C213 4297   5.857   5.412   7.865  0.0721  0.2545 -0.0195
   32SAPC  H13R 4298   5.911   5.461   7.782 -0.1454 -1.1336 -1.0146
   32SAPC  H13S 4299   5.936   5.379   7.936  1.0610  0.8454 -0.8095
   32SAPC  C214 4300   5.759   5.510   7.925  1.3803  0.2347 -0.0115
   32SAPC  H14R 4301   5.720   5.596   7.868 -1.2878  1.1029  2.8030
   32SAPC  C215 4302   5.730   5.510   8.058 -0.4824 -0.1027 -0.8771
   32SAPC  H15R 4303   5.669   5.597   8.085  0.6484  0.2923  0.5655
   32SAPC  C216 4304   5.773   5.413   8.166  0.4370 -0.6384 -0.0248
   32SAPC  H16R 4305   5.867   5.454   8.208  0.4827 -0.0258 -0.6925
   32SAPC  H16S 4306   5.806   5.312   8.133  0.2568 -0.2916 -1.3605
   32SAPC  C217 4307   5.660   5.398   8.269 -0.0157  0.0713 -0.2235
   32SAPC  H17R 4308   5.613   5.494   8.301 -1.3542 -0.5239 -0.3647
   32SAPC  H17S 4309   5.711   5.357   8.359  0.3796 -0.9895 -0.9193
   32SAPC  C218 4310   5.559   5.302   8.220  0.0387  0.4782 -0.0627
   32SAPC  H18R 4311   5.612   5.204   8.221  2.0592  1.5119  1.1720
   32SAPC  H18S 4312   5.515   5.328   8.122  1.2592 -1.6049 -1.2436
   32SAPC  C219 4313   5.431   5.298   8.309 -0.7395  0.3820  0.3065
   32SAPC  H19R 4314   5.375   5.393   8.317  2.1878  2.3759 -0.9044
   32SAPC  H19S 4315   5.462   5.261   8.410  1.0040  0.4857 -0.1521
   32SAPC  C220 4316   5.330   5.204   8.244  0.4936  0.3819 -0.3486
   32SAPC  H20R 4317   5.232   5.224   8.292  1.0571  2.0495  0.1704
   32SAPC  H20S 4318   5.364   5.102   8.273 -0.1767  1.1983  4.1459
   32SAPC  H20T 4319   5.307   5.214   8.136  0.1350  2.3007 -0.1236
   32SAPC   C33 4320   6.320   5.496   6.947 -0.4558  0.3462  0.1789
   32SAPC   H3X 4321   6.398   5.467   7.020  0.5438  2.2238 -0.0824
   32SAPC   H3Y 4322   6.273   5.398   6.922  0.1915 -0.0221  0.3919
   32SAPC   C34 4323   6.222   5.592   7.026  0.5290  0.0605  0.8193
   32SAPC   H4X 4324   6.142   5.608   6.950  2.0523 -1.2031 -1.1783
   32SAPC   H4Y 4325   6.266   5.691   7.051  0.5993 -0.2397  1.9315
   32SAPC   C35 4326   6.158   5.533   7.149 -0.2100 -0.1146  0.2004
   32SAPC   H5X 4327   6.109   5.436   7.131  0.3942 -0.1383 -1.5544
   32SAPC   H5Y 4328   6.074   5.605   7.161  0.6363  1.0622 -0.5779
   32SAPC   C36 4329   6.247   5.555   7.267 -0.1333 -0.4597 -0.9903
   32SAPC   H6X 4330   6.286   5.659   7.271  1.3174 -1.0094  0.0921
   32SAPC   H6Y 4331   6.337   5.489   7.260  1.6955  1.8187 -0.3082
   32SAPC   C37 4332   6.170   5.525   7.395  0.3240 -0.3116 -0.3551
   32SAPC   H7X 4333   6.133   5.421   7.383 -1.7942  0.4582 -0.9732
   32SAPC   H7Y 4334   6.081   5.591   7.398  1.8330  1.8408  1.1132
   32SAPC   C38 4335   6.234   5.526   7.531 -0.2508  0.0218  0.5879
   32SAPC   H8X 4336   6.335   5.482   7.517  0.3125  1.8188 -1.4576
   32SAPC   H8Y 4337   6.177   5.463   7.603  0.6876 -0.8738  0.5745
   32SAPC   C39 4338   6.244   5.661   7.596  0.5902 -0.0490  0.6701
   32SAPC   H9X 4339   6.144   5.709   7.596  0.7576  0.4856 -1.9596
   32SAPC   H9Y 4340   6.307   5.730   7.536  0.3732 -0.5253 -0.1147
   32SAPC  C310 4341   6.297   5.653   7.736  0.5543 -0.1687  0.4186
   32SAPC  H10X 4342   6.362   5.740   7.761 -0.3067 -0.4805  4.2762
   32SAPC  H10Y 4343   6.369   5.568   7.733  0.3989 -0.2904 -2.1922
   32SAPC  C311 4344   6.194   5.632   7.846 -0.1652 -0.6146  0.6264
   32SAPC  H11X 4345   6.122   5.549   7.833 -0.4182 -0.7862  2.8583
   32SAPC  H11Y 4346   6.127   5.721   7.853  0.2853 -0.3408  1.5691
   32SAPC  C312 4347   6.270   5.604   7.979 -0.1119  0.1646  0.3021
   32SAPC  H12X 4348   6.331   5.691   8.012 -0.2489 -0.7257  3.0865
   32SAPC  H12Y 4349   6.340   5.519   7.965 -0.5700 -0.2219  0.3609
   32SAPC  C313 4350   6.168   5.569   8.089  0.3222 -0.6278 -0.1845
   32SAPC  H13X 4351   6.116   5.473   8.072 -1.2822  0.3653 -1.1835
   32SAPC  H13Y 4352   6.088   5.647   8.087  0.0969 -0.8648 -1.3618
   32SAPC  C314 4353   6.247   5.560   8.220  0.7883  0.7018 -0.9500
   32SAPC  H14X 4354   6.280   5.663   8.243  1.3785  0.9010 -2.5538
   32SAPC  H14Y 4355   6.341   5.508   8.192  0.4365  0.7095 -2.2141
   32SAPC  C315 4356   6.169   5.492   8.336 -0.2513  0.0555  0.4272
   32SAPC  H15X 4357   6.079   5.557   8.336 -0.7513 -0.6197  1.1341
   32SAPC  H15Y 4358   6.227   5.514   8.429 -0.0976  0.3181  0.2692
   32SAPC  C316 4359   6.133   5.345   8.314 -0.0224 -0.0860 -0.0838
   32SAPC  H16X 4360   6.050   5.337   8.241 -0.7844 -1.0351  0.8557
   32SAPC  H16Y 4361   6.075   5.318   8.405 -1.9716  0.9899 -0.9533
   32SAPC  C317 4362   6.252   5.249   8.301  0.8175 -0.7184 -0.4638
   32SAPC  H17X 4363   6.311   5.258   8.394  0.2998 -1.6717 -0.0276
   32SAPC  H17Y 4364   6.320   5.296   8.227  1.6792  0.8994  1.2634
   32SAPC  C318 4365   6.211   5.111   8.265 -0.5319  0.2667  0.2989
   32SAPC  H18X 4366   6.107   5.096   8.302 -1.3121  1.7559 -1.1380
   32SAPC  H18Y 4367   6.295   5.044   8.291 -0.4929  0.0793 -0.2950
   32SAPC  H18Z 4368   6.184   5.105   8.157 -2.4689  2.1130  0.6047
   33POPC     N 4369   5.947   0.876  10.975  0.5462 -0.0377 -0.2839
   33POPC   C12 4370   5.851   0.800  10.890 -0.3634 -0.1118 -0.4786
   33POPC  H12A 4371   5.751   0.834  10.911 -0.6040 -1.0700 -0.0058
   33POPC  H12B 4372   5.835   0.697  10.920 -0.8961 -0.3454 -1.5278
   33POPC   C13 4373   6.091   0.834  10.951  0.2346  0.1795 -0.5512
   33POPC  H13A 4374   6.114   0.731  10.974  0.8538  0.4384  0.0304
   33POPC  H13B 4375   6.121   0.857  10.851  0.6810  1.1314 -0.2045
   33POPC  H13C 4376   6.156   0.902  11.003  0.8830 -0.5767 -0.3510
   33POPC   C14 4377   5.944   1.022  10.963 -0.5246 -0.0048  0.2336
   33POPC  H14A 4378   5.846   1.058  10.991 -1.4390 -1.8735 -0.4069
   33POPC  H14B 4379   6.032   1.069  11.004 -0.7089  0.0507  0.5674
   33POPC  H14C 4380   5.957   1.039  10.857  0.8430  1.1235  0.5484
   33POPC   C15 4381   5.910   0.847  11.117 -0.4274 -0.4196  0.3976
   33POPC  H15A 4382   5.817   0.895  11.144 -1.2915 -0.8562 -1.6486
   33POPC  H15B 4383   5.983   0.885  11.187  0.8364 -3.4089  0.8359
   33POPC  H15C 4384   5.906   0.740  11.129  0.9033 -0.3565  1.6488
   33POPC   C11 4385   5.872   0.819  10.739  0.4214  0.3913 -0.0952
   33POPC  H11A 4386   5.855   0.927  10.722  0.9187  0.5504  0.4026
   33POPC  H11B 4387   5.784   0.767  10.695  0.4735 -1.5095  1.8699
   33POPC     P 4388   6.044   0.637  10.618  0.0066  0.0968  0.0474
   33POPC   O13 4389   6.030   0.527  10.718  0.0322 -0.4378 -0.2321
   33POPC   O14 4390   6.179   0.658  10.569  0.2882  0.4718  0.5826
   33POPC   O12 4391   5.993   0.773  10.676 -0.1638 -0.7477 -0.0864
   33POPC   O11 4392   5.958   0.611  10.492 -0.1321  0.7478 -0.1923
   33POPC    C1 4393   5.939   0.709  10.389 -0.4526 -0.0524 -0.0196
   33POPC    HA 4394   5.857   0.694  10.316 -0.8880  1.9340 -0.0122
   33POPC    HB 4395   5.927   0.809  10.436  0.6114  0.7945 -1.4660
   33POPC    C2 4396   6.064   0.740  10.301 -0.2709  0.6381 -0.1764
   33POPC    HS 4397   6.141   0.800  10.354 -1.0952  0.0641  1.8018
   33POPC   O21 4398   6.019   0.823  10.190 -0.5657  0.6900  0.2680
   33POPC   C21 4399   6.124   0.874  10.125  0.4562  0.1552  0.6610
   33POPC   O22 4400   6.234   0.887  10.180 -0.2220  0.0481  0.2381
   33POPC   C22 4401   6.095   0.912   9.978  0.8046  0.1291  0.4769
   33POPC   H2R 4402   6.039   1.007   9.982 -0.4934 -0.6483  1.6882
   33POPC   H2S 4403   6.020   0.837   9.944  0.9212 -0.9377  2.4216
   33POPC    C3 4404   6.122   0.612  10.248 -0.4899  0.2563 -0.0142
   33POPC    HX 4405   6.122   0.539  10.331  2.4338  0.4059  0.2410
   33POPC    HY 4406   6.230   0.631  10.229  0.0739 -2.1648  0.3649
   33POPC   O31 4407   6.045   0.551  10.141  0.5634 -0.2524  0.2320
   33POPC   C31 4408   6.121   0.499  10.041 -0.2417 -0.1696  0.2343
   33POPC   O32 4409   6.234   0.537  10.015 -0.5478 -0.7590  0.4002
   33POPC   C32 4410   6.045   0.387   9.968 -0.0953 -0.8524 -0.0807
   33POPC   H2X 4411   5.937   0.412   9.972 -0.2286 -0.9664 -2.0220
   33POPC   H2Y 4412   6.062   0.294  10.025  0.8270 -0.7474 -0.1666
   33POPC   C23 4413   6.222   0.901   9.890 -0.2765  0.1868 -0.1951
   33POPC   H3R 4414   6.261   0.798   9.878  1.2638  0.8508 -1.1922
   33POPC   H3S 4415   6.301   0.958   9.944  1.9915 -2.0972 -0.9399
   33POPC   C24 4416   6.194   0.959   9.749 -0.6694  0.5830 -0.7133
   33POPC   H4R 4417   6.147   1.057   9.770  0.6912  1.3667 -1.1792
   33POPC   H4S 4418   6.134   0.886   9.689 -0.6143  0.3190 -0.4454
   33POPC   C25 4419   6.327   0.967   9.684 -0.2706 -0.0247  0.2011
   33POPC   H5R 4420   6.378   0.869   9.671 -1.9701 -1.0393  0.8363
   33POPC   H5S 4421   6.394   1.041   9.733  1.7013  0.3129 -2.7350
   33POPC   C26 4422   6.307   1.044   9.545  0.3078 -0.4972  0.0066
   33POPC   H6R 4423   6.409   1.054   9.503 -0.0033  1.1580 -0.4314
   33POPC   H6S 4424   6.262   1.143   9.569 -0.2214 -0.5000 -0.9021
   33POPC   C27 4425   6.208   0.989   9.442  0.3444 -0.5371  0.9286
   33POPC   H7R 4426   6.104   0.972   9.478 -0.3121  1.9919  0.4102
   33POPC   H7S 4427   6.256   0.890   9.422  0.0976 -0.1731 -1.7900
   33POPC   C28 4428   6.207   1.077   9.309  0.0305 -0.4478  0.0628
   33POPC   H8R 4429   6.313   1.110   9.305 -0.3869  1.7569  3.2096
   33POPC   H8S 4430   6.157   1.173   9.332  0.7584  0.0219 -0.2687
   33POPC   C29 4431   6.147   1.004   9.195  0.3711 -0.2167  0.3169
   33POPC   H91 4432   6.041   0.973   9.200  0.0388  0.4865 -1.6604
   33POPC  C210 4433   6.209   0.955   9.090 -0.1003 -0.5929  0.2164
   33POPC  H101 4434   6.146   0.926   9.004 -0.3385  0.0248  0.1768
   33POPC  C211 4435   6.354   0.986   9.051  0.2822 -0.2427  0.1760
   33POPC  H11R 4436   6.393   0.917   8.974 -1.8424 -1.2043 -0.1180
   33POPC  H11S 4437   6.422   0.963   9.135 -0.0695  0.7994  0.7591
   33POPC  C212 4438   6.390   1.128   9.001  0.1109 -0.4207  0.0357
   33POPC  H12R 4439   6.500   1.136   8.990  0.2238 -1.0133  0.7450
   33POPC  H12S 4440   6.353   1.200   9.077 -0.4391 -0.5783 -0.0794
   33POPC  C213 4441   6.324   1.163   8.868  0.2420 -0.2758 -0.4535
   33POPC  H13R 4442   6.332   1.086   8.788 -0.2101  1.0717 -1.8425
   33POPC  H13S 4443   6.379   1.253   8.833 -1.4808  0.7815 -0.5842
   33POPC  C214 4444   6.184   1.225   8.881  0.2996  0.1720 -0.3397
   33POPC  H14R 4445   6.191   1.295   8.967 -0.0383  0.4429 -0.5274
   33POPC  H14S 4446   6.112   1.146   8.910 -1.0909  0.8726 -1.7053
   33POPC  C215 4447   6.140   1.303   8.760 -0.1511 -0.8867  0.0393
   33POPC  H15R 4448   6.213   1.386   8.748 -0.2418 -0.7018  0.7241
   33POPC  H15S 4449   6.045   1.359   8.776  0.9656  1.7702 -1.7952
   33POPC  C216 4450   6.122   1.221   8.627  0.1576  0.3158 -0.4216
   33POPC  H16R 4451   6.078   1.121   8.647 -1.2202  0.9986  0.0858
   33POPC  H16S 4452   6.220   1.206   8.576  1.3769  3.2090  0.8528
   33POPC  C217 4453   6.026   1.283   8.525  0.2882 -0.0894  0.2466
   33POPC  H17R 4454   6.055   1.390   8.519 -1.3865  0.5063  1.8082
   33POPC  H17S 4455   5.925   1.280   8.571  1.1094 -0.2673  2.1427
   33POPC  C218 4456   6.029   1.228   8.382  0.6628 -0.7942  0.3552
   33POPC  H18R 4457   6.135   1.239   8.354  0.3491  1.4886 -0.1200
   33POPC  H18S 4458   5.964   1.287   8.313 -2.1265 -0.9460  2.6227
   33POPC  H18T 4459   5.994   1.123   8.379  1.6234 -1.1603  1.3321
   33POPC   C33 4460   6.091   0.353   9.820  1.0593 -0.1233  0.5679
   33POPC   H3X 4461   6.045   0.255   9.793 -2.2824 -0.2329  5.4455
   33POPC   H3Y 4462   6.201   0.343   9.822  1.1812 -0.0033 -2.1359
   33POPC   C34 4463   6.046   0.473   9.724 -0.4898  0.0699 -0.4851
   33POPC   H4X 4464   6.127   0.548   9.729 -1.4805  1.0847  2.4726
   33POPC   H4Y 4465   5.948   0.506   9.766 -0.4937 -3.0291  2.3791
   33POPC   C35 4466   6.011   0.418   9.582  0.0462 -0.2920 -0.2038
   33POPC   H5X 4467   5.922   0.351   9.577 -0.3133  0.2382 -1.5289
   33POPC   H5Y 4468   6.100   0.359   9.551  0.2407 -0.1205  0.0259
   33POPC   C36 4469   6.007   0.530   9.470 -0.1818  0.1534  0.5750
   33POPC   H6X 4470   6.088   0.604   9.488 -1.2699  1.4522  0.2578
   33POPC   H6Y 4471   5.908   0.581   9.479 -0.7052 -0.4582 -1.3313
   33POPC   C37 4472   6.015   0.475   9.325 -0.0199 -0.0708  0.0765
   33POPC   H7X 4473   5.939   0.396   9.304  0.5855 -0.6330 -0.0115
   33POPC   H7Y 4474   6.110   0.418   9.323  0.6826  1.0527  0.1712
   33POPC   C38 4475   6.015   0.596   9.229  0.3680  0.1573  0.1495
   33POPC   H8X 4476   6.108   0.653   9.249  0.0520  0.9336 -0.5475
   33POPC   H8Y 4477   5.929   0.666   9.233  0.2653 -0.0033  0.8754
   33POPC   C39 4478   6.024   0.545   9.085 -0.7203 -0.2269 -1.2309
   33POPC   H9X 4479   5.933   0.498   9.041 -0.8532  0.5908 -1.8754
   33POPC   H9Y 4480   6.100   0.467   9.104 -0.0827  1.1908  3.1697
   33POPC  C310 4481   6.082   0.659   9.000 -0.3020 -0.1079  0.0146
   33POPC  H10X 4482   6.186   0.678   9.037 -0.4122 -1.9985  1.4965
   33POPC  H10Y 4483   6.023   0.753   8.996  1.2819  0.8978 -3.6169
   33POPC  C311 4484   6.097   0.617   8.851 -0.1173 -0.1003  0.1307
   33POPC  H11X 4485   6.002   0.580   8.808 -2.0429  1.2757  2.9293
   33POPC  H11Y 4486   6.171   0.534   8.856  1.2127  1.0347  0.0933
   33POPC  C312 4487   6.162   0.728   8.767  0.3396 -0.0146 -0.7456
   33POPC  H12X 4488   6.249   0.775   8.818 -1.4531  1.5553  1.0167
   33POPC  H12Y 4489   6.082   0.802   8.747  1.4538  1.1406 -1.0183
   33POPC  C313 4490   6.206   0.675   8.631  0.2714  0.3105  0.8310
   33POPC  H13X 4491   6.112   0.642   8.581  0.5697  1.2176 -0.3912
   33POPC  H13Y 4492   6.270   0.585   8.638  2.9445  1.6540 -2.8313
   33POPC  C314 4493   6.272   0.779   8.545  0.2450 -0.1075 -0.4205
   33POPC  H14X 4494   6.360   0.817   8.600  0.5614 -0.6270 -0.5628
   33POPC  H14Y 4495   6.205   0.868   8.541 -0.4422 -0.6470 -2.2496
   33POPC  C315 4496   6.301   0.735   8.400  0.0437 -0.0661 -0.8998
   33POPC  H15X 4497   6.282   0.830   8.347 -4.1084 -1.3677 -2.1719
   33POPC  H15Y 4498   6.226   0.663   8.359  0.2096 -1.9865  1.8740
   33POPC  C316 4499   6.447   0.700   8.379  0.6056  0.3757  0.4735
   33POPC  H16X 4500   6.476   0.605   8.427  2.6391  1.1732  0.9417
   33POPC  H16Y 4501   6.515   0.781   8.415 -0.2354  0.9889  0.7138
   33POPC  H16Z 4502   6.469   0.703   8.270  1.6116 -0.3121  0.6451
   34POPC     N 4503   6.078   1.711  10.934 -0.3662 -0.3279 -0.7295
   34POPC   C12 4504   6.013   1.597  10.866 -0.1290  0.1034  0.1276
   34POPC  H12A 4505   6.032   1.503  10.917  0.6220  1.7925  3.1589
   34POPC  H12B 4506   6.054   1.577  10.768 -0.6057  0.4120 -0.1385
   34POPC   C13 4507   6.066   1.836  10.852 -0.2776 -0.8053 -0.2745
   34POPC  H13A 4508   5.962   1.849  10.823 -1.4573 -0.6659  3.5099
   34POPC  H13B 4509   6.090   1.927  10.905  0.3667 -0.2096 -1.5324
   34POPC  H13C 4510   6.128   1.835  10.764 -0.1100 -1.7452 -0.1453
   34POPC   C14 4511   6.004   1.745  11.057 -0.1336 -0.2748  0.4040
   34POPC  H14A 4512   6.073   1.796  11.123  1.2624 -2.2524  0.5355
   34POPC  H14B 4513   5.911   1.799  11.040  1.5469  1.9557 -2.6355
   34POPC  H14C 4514   5.982   1.650  11.104  1.3834 -0.6150  0.4591
   34POPC   C15 4515   6.222   1.694  10.976 -0.6262  0.2129  0.3815
   34POPC  H15A 4516   6.279   1.697  10.884  0.7818  3.9389  1.1756
   34POPC  H15B 4517   6.239   1.604  11.033 -0.1527  0.0932  0.0517
   34POPC  H15C 4518   6.255   1.777  11.038 -1.9233  1.8453 -1.0002
   34POPC   C11 4519   5.858   1.607  10.854  0.6426 -0.1686  0.1685
   34POPC  H11A 4520   5.804   1.640  10.946  1.8904 -1.4162  1.4114
   34POPC  H11B 4521   5.823   1.504  10.832  0.0808  0.4213 -1.8796
   34POPC     P 4522   5.698   1.761  10.721  0.2003  0.4026 -0.5306
   34POPC   O13 4523   5.710   1.902  10.769  0.5701 -0.0776 -0.1248
   34POPC   O14 4524   5.582   1.688  10.783 -0.4279  0.4996  0.0592
   34POPC   O12 4525   5.833   1.686  10.736 -0.3087  0.0076 -0.5702
   34POPC   O11 4526   5.691   1.747  10.559 -0.4540 -0.7455  0.1728
   34POPC    C1 4527   5.705   1.622  10.499  0.1088  0.9155 -0.3732
   34POPC    HA 4528   5.650   1.541  10.550 -0.1972  1.8961  0.8927
   34POPC    HB 4529   5.809   1.584  10.492 -0.1581 -0.1060  0.9332
   34POPC    C2 4530   5.640   1.622  10.363 -0.2263 -0.2208 -0.0786
   34POPC    HS 4531   5.661   1.531  10.303  0.0833  0.6334 -1.3080
   34POPC   O21 4532   5.680   1.736  10.294  0.6524  0.2516  0.0730
   34POPC   C21 4533   5.801   1.749  10.251  0.1891  0.0858  0.2399
   34POPC   O22 4534   5.891   1.664  10.246 -0.4432  0.2810 -0.1218
   34POPC   C22 4535   5.810   1.895  10.206  0.2598  0.2030  0.1361
   34POPC   H2R 4536   5.884   1.943  10.275  2.2639 -3.3875  0.7309
   34POPC   H2S 4537   5.713   1.947  10.218  2.1932  4.3164 -0.1725
   34POPC    C3 4538   5.487   1.622  10.361 -0.0407 -0.5726  0.3959
   34POPC    HX 4539   5.456   1.713  10.416  2.0038 -0.2622  1.1382
   34POPC    HY 4540   5.454   1.534  10.419  1.8223 -1.5015  0.1170
   34POPC   O31 4541   5.441   1.606  10.223 -0.2354  0.0164 -0.6898
   34POPC   C31 4542   5.324   1.548  10.208  0.2349 -0.7492 -0.0812
   34POPC   O32 4543   5.238   1.535  10.295  0.4261  0.0186  0.1811
   34POPC   C32 4544   5.305   1.486  10.068  0.0796 -0.0375 -0.1420
   34POPC   H2X 4545   5.296   1.571   9.997  1.6163  0.9751  0.8167
   34POPC   H2Y 4546   5.205   1.438  10.072 -1.4174  2.8954  1.2673
   34POPC   C23 4547   5.871   1.907  10.065  0.0266 -0.1954  0.0130
   34POPC   H3R 4548   5.982   1.901  10.073  0.0681  1.0611  0.5571
   34POPC   H3S 4549   5.850   2.009  10.027  0.2142 -0.3096 -0.4070
   34POPC   C24 4550   5.797   1.824   9.958 -0.4338  1.1194  0.2534
   34POPC   H4R 4551   5.688   1.841   9.952 -0.2914  2.1965  0.4855
   34POPC   H4S 4552   5.817   1.717   9.981 -1.8342  0.6676 -0.5457
   34POPC   C25 4553   5.849   1.848   9.819 -0.1214 -0.0856 -0.1612
   34POPC   H5R 4554   5.955   1.819   9.804 -0.5801 -0.5219 -3.0708
   34POPC   H5S 4555   5.830   1.950   9.781 -3.3164 -0.2620  0.6134
   34POPC   C26 4556   5.766   1.757   9.725  0.5940 -1.1959 -0.1803
   34POPC   H6R 4557   5.656   1.769   9.735  0.2637 -0.3457 -3.6765
   34POPC   H6S 4558   5.797   1.653   9.747 -0.4657 -2.0937 -2.5537
   34POPC   C27 4559   5.804   1.792   9.578 -0.5389  0.6615  0.1396
   34POPC   H7R 4560   5.913   1.771   9.571 -0.4692  1.3197 -0.8996
   34POPC   H7S 4561   5.787   1.900   9.559  1.5914  0.9767 -0.2116
   34POPC   C28 4562   5.731   1.715   9.468  0.4155 -0.0783  0.0648
   34POPC   H8R 4563   5.718   1.616   9.517 -1.9958  0.2622  0.2261
   34POPC   H8S 4564   5.800   1.699   9.383  1.3564 -1.4885  1.0498
   34POPC   C29 4565   5.599   1.776   9.438  0.3623  0.5761 -0.9238
   34POPC   H91 4566   5.538   1.776   9.530 -0.7465 -0.5948 -1.6286
   34POPC  C210 4567   5.557   1.827   9.323  0.1781 -0.1964  0.0493
   34POPC  H101 4568   5.457   1.870   9.311 -0.8496 -0.4841  5.3572
   34POPC  C211 4569   5.644   1.832   9.203  0.6175 -0.7758 -0.3941
   34POPC  H11R 4570   5.602   1.767   9.123 -0.1488  0.1004 -0.7203
   34POPC  H11S 4571   5.751   1.817   9.228  0.4969 -0.3792  0.3981
   34POPC  C212 4572   5.642   1.969   9.137  0.6269  0.5587  0.3968
   34POPC  H12R 4573   5.719   1.962   9.057  0.7324 -0.1795  0.5562
   34POPC  H12S 4574   5.676   2.048   9.208  2.3137 -0.8057  1.1717
   34POPC  C213 4575   5.506   2.018   9.085 -0.8571 -0.6524 -0.1411
   34POPC  H13R 4576   5.461   2.078   9.167  0.8196  1.0330 -0.3675
   34POPC  H13S 4577   5.440   1.933   9.058 -0.7959 -0.3939 -1.1466
   34POPC  C214 4578   5.522   2.118   8.969  0.5867 -0.5671  0.2060
   34POPC  H14R 4579   5.601   2.192   8.997  1.5556 -0.7950 -1.7519
   34POPC  H14S 4580   5.425   2.167   8.945  0.1859 -1.8673 -0.9940
   34POPC  C215 4581   5.579   2.049   8.842 -0.2244 -0.9381  0.4212
   34POPC  H15R 4582   5.502   1.971   8.827 -0.4922 -0.8937  1.5059
   34POPC  H15S 4583   5.676   1.997   8.861 -0.4808 -0.9191  1.8988
   34POPC  C216 4584   5.585   2.137   8.718  0.5972  0.1680  0.3677
   34POPC  H16R 4585   5.656   2.221   8.737 -0.8682  1.8214 -1.0393
   34POPC  H16S 4586   5.489   2.190   8.697  0.3713 -0.5513 -0.4337
   34POPC  C217 4587   5.627   2.064   8.584 -0.8510 -0.6484  0.6666
   34POPC  H17R 4588   5.606   2.127   8.496 -0.3542  0.9452  1.6412
   34POPC  H17S 4589   5.569   1.970   8.576 -0.5459 -0.8985  1.2648
   34POPC  C218 4590   5.775   2.016   8.592  0.0543 -0.3869  0.6654
   34POPC  H18R 4591   5.785   1.979   8.696  0.2446 -0.0691  0.7618
   34POPC  H18S 4592   5.845   2.100   8.575 -0.8130  0.1326 -0.4272
   34POPC  H18T 4593   5.788   1.943   8.509  1.5783 -0.6164  1.0600
   34POPC   C33 4594   5.423   1.398  10.016 -0.3149 -0.3963  0.1433
   34POPC   H3X 4595   5.460   1.343  10.105 -2.4244  1.1357  2.1135
   34POPC   H3Y 4596   5.507   1.457   9.974  0.9402 -2.7356 -0.8309
   34POPC   C34 4597   5.376   1.306   9.900  0.7127 -0.0274 -0.4996
   34POPC   H4X 4598   5.304   1.233   9.941  0.1282 -0.1337 -1.6810
   34POPC   H4Y 4599   5.460   1.240   9.870 -0.8251 -2.7445  0.8182
   34POPC   C35 4600   5.323   1.380   9.774 -0.1650 -0.4615 -0.4856
   34POPC   H5X 4601   5.384   1.466   9.739 -0.0321 -1.4314 -2.8171
   34POPC   H5Y 4602   5.235   1.432   9.818  1.1407  2.0135 -0.5992
   34POPC   C36 4603   5.275   1.279   9.669 -0.7826 -0.1683  0.5380
   34POPC   H6X 4604   5.200   1.333   9.608 -0.4681  0.4402  0.6782
   34POPC   H6Y 4605   5.223   1.196   9.722 -0.3414  0.2760  1.7002
   34POPC   C37 4606   5.392   1.230   9.584  0.2604  0.6684  0.2081
   34POPC   H7X 4607   5.359   1.147   9.518 -0.7813  1.1847  0.0611
   34POPC   H7Y 4608   5.472   1.188   9.648  0.0541  0.2729  0.2057
   34POPC   C38 4609   5.445   1.340   9.497 -0.2772  0.0068 -0.2711
   34POPC   H8X 4610   5.504   1.290   9.418 -0.7993 -0.8171 -0.1596
   34POPC   H8Y 4611   5.514   1.406   9.553 -0.0278 -2.7527  3.0022
   34POPC   C39 4612   5.342   1.422   9.419 -0.1953  0.5326  0.4294
   34POPC   H9X 4613   5.321   1.513   9.480  2.3414  0.7412  1.1001
   34POPC   H9Y 4614   5.259   1.350   9.400 -0.4786  1.3395 -1.6560
   34POPC  C310 4615   5.392   1.462   9.276  0.5578  0.3470  0.3167
   34POPC  H10X 4616   5.436   1.381   9.214 -0.4359 -0.4904  0.6922
   34POPC  H10Y 4617   5.481   1.528   9.279  0.3575  0.6041  0.7118
   34POPC  C311 4618   5.280   1.535   9.205  0.4015 -0.3400  0.3299
   34POPC  H11X 4619   5.247   1.620   9.268  0.4202  1.3770 -1.8674
   34POPC  H11Y 4620   5.199   1.459   9.194  0.5810 -0.3868 -0.7251
   34POPC  C312 4621   5.330   1.603   9.073 -0.4351 -0.1464  0.4649
   34POPC  H12X 4622   5.370   1.698   9.115 -1.1583 -0.2182  1.3647
   34POPC  H12Y 4623   5.237   1.617   9.014 -0.2423 -2.8654 -0.6231
   34POPC  C313 4624   5.415   1.516   8.986 -0.8421 -0.2407  0.3469
   34POPC  H13X 4625   5.368   1.421   8.956 -0.5961 -0.5757  0.9974
   34POPC  H13Y 4626   5.513   1.499   9.037  0.3683  1.5015 -1.2582
   34POPC  C314 4627   5.454   1.589   8.857  0.1669  0.1176 -0.1217
   34POPC  H14X 4628   5.528   1.528   8.801 -0.1261  0.0638 -0.4520
   34POPC  H14Y 4629   5.505   1.684   8.884 -1.5410  0.2719  3.0179
   34POPC  C315 4630   5.338   1.613   8.760  0.0483  0.2243 -0.8962
   34POPC  H15X 4631   5.258   1.673   8.809  1.6352  0.9405  0.9669
   34POPC  H15Y 4632   5.302   1.511   8.736  1.4486 -0.6584  0.5632
   34POPC  C316 4633   5.380   1.697   8.634  0.1723  0.1754 -0.1377
   34POPC  H16X 4634   5.416   1.797   8.664  1.0841 -0.3797  0.6790
   34POPC  H16Y 4635   5.288   1.702   8.573  0.8182 -0.8749 -1.2398
   34POPC  H16Z 4636   5.458   1.641   8.579 -3.4095 -0.5814 -5.1674
   35POPC     N 4637   5.443   0.842  11.209 -0.1749 -0.4056  0.3002
   35POPC   C12 4638   5.358   0.920  11.106  0.2101 -0.6169 -0.6483
   35POPC  H12A 4639   5.272   0.961  11.157  0.3876  3.5455 -3.2182
   35POPC  H12B 4640   5.321   0.842  11.041  1.3321 -0.6886 -1.2211
   35POPC   C13 4641   5.569   0.801  11.159  0.1239 -0.5251  0.6309
   35POPC  H13A 4642   5.626   0.893  11.163 -1.6642  0.6173  0.7541
   35POPC  H13B 4643   5.612   0.734  11.233 -0.7366 -1.9538 -0.1083
   35POPC  H13C 4644   5.562   0.756  11.061 -1.5388 -0.2774  0.6086
   35POPC   C14 4645   5.458   0.919  11.343 -0.7041 -0.0633 -0.2078
   35POPC  H14A 4646   5.502   1.017  11.333 -0.9019  0.0522  0.0337
   35POPC  H14B 4647   5.363   0.936  11.392  0.0503  0.6707  1.0453
   35POPC  H14C 4648   5.511   0.858  11.414 -1.4855 -0.1518  0.3161
   35POPC   C15 4649   5.359   0.723  11.246  0.0245  0.4618  0.2474
   35POPC  H15A 4650   5.311   0.677  11.161 -0.2594  0.3301  0.4765
   35POPC  H15B 4651   5.281   0.757  11.313  0.3914 -0.6615  1.2805
   35POPC  H15C 4652   5.411   0.645  11.299 -0.4609  0.0719  0.1606
   35POPC   C11 4653   5.426   1.045  11.034  0.3431  0.0672 -0.0152
   35POPC  H11A 4654   5.350   1.103  10.976 -1.0957  0.3001  1.9905
   35POPC  H11B 4655   5.507   1.005  10.969  1.5781  0.4163  1.2596
   35POPC     P 4656   5.619   1.188  11.144  0.2319 -0.1183 -0.1252
   35POPC   O13 4657   5.700   1.074  11.186 -0.0772  0.6650  0.2156
   35POPC   O14 4658   5.631   1.305  11.234 -0.4392 -0.3956  0.5403
   35POPC   O12 4659   5.467   1.137  11.135 -0.2172  0.1469  0.5907
   35POPC   O11 4660   5.649   1.227  10.992  0.3274 -0.9319  0.3999
   35POPC    C1 4661   5.564   1.314  10.915  0.1805  0.5353 -0.2590
   35POPC    HA 4662   5.610   1.414  10.904 -1.4782  1.2142 -1.3010
   35POPC    HB 4663   5.467   1.319  10.969 -0.0190 -0.1990 -0.5267
   35POPC    C2 4664   5.541   1.266  10.776 -0.6969  0.1231  0.3047
   35POPC    HS 4665   5.513   1.159  10.776  0.6868 -0.3517 -2.8209
   35POPC   O21 4666   5.661   1.280  10.688 -0.2717  0.3048  0.4023
   35POPC   C21 4667   5.693   1.179  10.615  0.6287  0.5616 -0.0716
   35POPC   O22 4668   5.623   1.084  10.579 -0.0096 -0.3334 -0.0611
   35POPC   C22 4669   5.838   1.198  10.571  0.5369  0.7603  0.1512
   35POPC   H2R 4670   5.910   1.167  10.649  1.3127  1.6303 -0.1918
   35POPC   H2S 4671   5.861   1.303  10.542  0.5031  0.5202 -0.8031
   35POPC    C3 4672   5.420   1.332  10.705 -0.5653  0.0281  0.3004
   35POPC    HX 4673   5.429   1.442  10.722 -1.1247 -0.0085  0.8791
   35POPC    HY 4674   5.339   1.299  10.773 -0.2429 -0.0090  0.6747
   35POPC   O31 4675   5.412   1.294  10.566 -0.1139 -0.1135  0.2376
   35POPC   C31 4676   5.327   1.184  10.548 -0.4802 -0.1727  0.1378
   35POPC   O32 4677   5.292   1.117  10.639  1.0897  0.1781  0.1441
   35POPC   C32 4678   5.323   1.158  10.397  0.0226 -0.1976 -0.4270
   35POPC   H2X 4679   5.427   1.141  10.362 -0.3997  1.9373 -3.0602
   35POPC   H2Y 4680   5.300   1.256  10.349 -1.1720 -0.8205 -1.1596
   35POPC   C23 4681   5.882   1.104  10.462  0.3806  0.1078  0.5755
   35POPC   H3R 4682   5.842   1.003  10.485 -3.0608  1.2303  0.1072
   35POPC   H3S 4683   5.993   1.094  10.470  0.3179  0.4376  2.2668
   35POPC   C24 4684   5.847   1.150  10.319 -0.3891  0.0557  0.7496
   35POPC   H4R 4685   5.742   1.185  10.307 -1.1113 -1.9260  0.8326
   35POPC   H4S 4686   5.851   1.059  10.254  1.4964 -0.1208  1.0612
   35POPC   C25 4687   5.950   1.239  10.248 -0.1663  0.3589 -0.0838
   35POPC   H5R 4688   6.033   1.171  10.219  1.7362  1.5786  2.2108
   35POPC   H5S 4689   5.990   1.312  10.321 -1.2531  0.4050  0.4982
   35POPC   C26 4690   5.891   1.324  10.134  0.0706  0.3611 -0.8129
   35POPC   H6R 4691   5.977   1.387  10.102  0.3688  1.8590  2.4991
   35POPC   H6S 4692   5.820   1.397  10.180  0.3641  0.4993 -0.5709
   35POPC   C27 4693   5.818   1.241  10.030  0.9938 -0.4667 -0.7293
   35POPC   H7R 4694   5.726   1.212  10.084  1.3027  0.4278  0.3074
   35POPC   H7S 4695   5.875   1.149  10.004  0.8491 -0.2133 -1.9957
   35POPC   C28 4696   5.763   1.327   9.917  0.3726 -0.3065  0.6118
   35POPC   H8R 4697   5.705   1.414   9.953  0.8848 -0.4226  1.7523
   35POPC   H8S 4698   5.696   1.269   9.849  1.0633  1.5642 -1.8098
   35POPC   C29 4699   5.878   1.385   9.836  0.7413 -0.0951 -0.2379
   35POPC   H91 4700   5.927   1.456   9.904  2.6139 -1.8517  0.3040
   35POPC  C210 4701   5.914   1.349   9.712 -0.3312  0.2325 -0.7432
   35POPC  H101 4702   6.003   1.399   9.671  0.0690  0.5166  0.4519
   35POPC  C211 4703   5.854   1.244   9.622  0.1580  0.6765 -0.3758
   35POPC  H11R 4704   5.746   1.265   9.605 -0.4995 -2.4321 -0.5104
   35POPC  H11S 4705   5.872   1.143   9.663 -2.3714  0.4399  0.2805
   35POPC  C212 4706   5.911   1.252   9.475  0.3802 -0.2065  0.5631
   35POPC  H12R 4707   5.907   1.152   9.426 -1.5436  1.1352 -2.3264
   35POPC  H12S 4708   6.019   1.278   9.476  0.3736 -0.1804  0.5717
   35POPC  C213 4709   5.834   1.357   9.395 -0.4335  0.2223  1.0995
   35POPC  H13R 4710   5.867   1.460   9.422 -1.5539  0.7497  0.5536
   35POPC  H13S 4711   5.727   1.364   9.423 -0.8629 -0.4324 -0.2676
   35POPC  C214 4712   5.862   1.339   9.241  0.1223 -0.0108  0.5101
   35POPC  H14R 4713   5.785   1.273   9.195  0.2048  0.3638 -0.1756
   35POPC  H14S 4714   5.964   1.296   9.225  0.0698 -0.0265  0.1999
   35POPC  C215 4715   5.868   1.463   9.147 -0.5854  0.7198  0.3709
   35POPC  H15R 4716   5.935   1.536   9.197  2.3322 -0.7969 -1.0207
   35POPC  H15S 4717   5.764   1.500   9.153 -2.1616 -3.3449  1.8670
   35POPC  C216 4718   5.911   1.449   9.001  0.2434 -0.8081 -0.4910
   35POPC  H16R 4719   5.864   1.354   8.968 -0.1994  0.4050 -3.6660
   35POPC  H16S 4720   6.021   1.443   8.990  0.7680  2.5796  1.5695
   35POPC  C217 4721   5.842   1.552   8.905 -0.2450 -0.7328  0.2812
   35POPC  H17R 4722   5.732   1.559   8.922 -0.3865  0.1294 -0.8603
   35POPC  H17S 4723   5.871   1.526   8.801  1.0107  2.4002 -0.2627
   35POPC  C218 4724   5.886   1.699   8.934  0.8066  0.0813  0.1306
   35POPC  H18R 4725   5.891   1.718   9.043 -1.5964  1.1558  0.1241
   35POPC  H18S 4726   5.817   1.768   8.881  0.5278 -0.3582 -0.0824
   35POPC  H18T 4727   5.990   1.715   8.900  1.4347 -1.0585  1.4044
   35POPC   C33 4728   5.232   1.051  10.350  0.4434  0.5929 -0.5500
   35POPC   H3X 4729   5.132   1.062  10.398 -0.9538  1.2306 -3.3722
   35POPC   H3Y 4730   5.279   0.957  10.386  0.8970  1.1945  0.4855
   35POPC   C34 4731   5.222   1.063  10.198  0.0200 -0.0831 -0.6134
   35POPC   H4X 4732   5.317   1.033  10.148 -0.0867 -0.0968 -0.8096
   35POPC   H4Y 4733   5.216   1.172  10.175  1.0640  1.3480  4.5919
   35POPC   C35 4734   5.095   0.991  10.145 -0.0662  0.2265 -0.3476
   35POPC   H5X 4735   5.010   1.024  10.208  1.1385  0.5839  1.1378
   35POPC   H5Y 4736   5.106   0.881  10.140  0.1146  0.2155  0.2886
   35POPC   C36 4737   5.066   1.022   9.999 -0.3850 -0.9397  0.2931
   35POPC   H6X 4738   5.151   0.990   9.935 -0.9135  0.0158 -0.9366
   35POPC   H6Y 4739   5.052   1.132   9.991 -0.2956 -0.7369  2.4230
   35POPC   C37 4740   4.930   0.957   9.947  0.2115  0.0553  0.2995
   35POPC   H7X 4741   4.838   0.990   9.999 -1.6034  0.8864 -3.1262
   35POPC   H7Y 4742   4.940   0.847   9.959 -1.4848 -0.1755 -0.0866
   35POPC   C38 4743   4.914   0.981   9.797 -0.3405  0.0902 -0.0243
   35POPC   H8X 4744   5.002   0.942   9.742 -2.3180 -0.7664 -2.7717
   35POPC   H8Y 4745   4.904   1.091   9.782  0.5146 -0.0750 -2.1578
   35POPC   C39 4746   4.800   0.911   9.723  0.2466  0.0239  0.4232
   35POPC   H9X 4747   4.707   0.971   9.734  0.6849  1.1605 -1.6226
   35POPC   H9Y 4748   4.780   0.810   9.768  0.4720 -0.5841 -0.8116
   35POPC  C310 4749   4.812   0.887   9.570 -0.1156  0.0972 -0.5358
   35POPC  H10X 4750   4.806   0.983   9.515  0.5606 -0.2611 -1.2656
   35POPC  H10Y 4751   4.726   0.826   9.535  0.7855  0.0078 -2.7965
   35POPC  C311 4752   4.931   0.801   9.527  0.1436  0.3836  0.1545
   35POPC  H11X 4753   4.934   0.699   9.571 -2.2076  0.1683 -0.0563
   35POPC  H11Y 4754   5.024   0.853   9.554 -0.3224  1.3901 -0.1317
   35POPC  C312 4755   4.924   0.782   9.373 -0.3201  0.1455  0.1251
   35POPC  H12X 4756   5.021   0.731   9.353 -0.7203 -0.9827  0.9041
   35POPC  H12Y 4757   4.914   0.880   9.323  0.1202 -0.3411 -0.9390
   35POPC  C313 4758   4.836   0.675   9.316  0.1162  0.0603  0.4521
   35POPC  H13X 4759   4.737   0.681   9.365  0.0706 -1.7347  0.6288
   35POPC  H13Y 4760   4.874   0.576   9.349 -2.0438 -1.3398 -0.9620
   35POPC  C314 4761   4.814   0.673   9.163  0.6443  0.0497 -0.4969
   35POPC  H14X 4762   4.766   0.577   9.137  0.9686  0.1168 -1.3831
   35POPC  H14Y 4763   4.915   0.680   9.116  0.3979  1.9095 -0.8155
   35POPC  C315 4764   4.725   0.788   9.111  0.3218  0.2842 -0.6488
   35POPC  H15X 4765   4.780   0.885   9.109  1.3004 -0.2596 -2.5943
   35POPC  H15Y 4766   4.639   0.799   9.180  0.3033 -1.2065 -0.4002
   35POPC  C316 4767   4.684   0.770   8.967 -0.2743 -1.0023 -0.4509
   35POPC  H16X 4768   4.591   0.709   8.974  0.4851 -2.0564  0.7489
   35POPC  H16Y 4769   4.752   0.718   8.897 -0.9109  0.5860 -2.3548
   35POPC  H16Z 4770   4.665   0.872   8.926  1.6759 -1.1721 -1.8917
   36POPC     N 4771   5.204   3.578  10.985 -0.1724  0.2934  0.6282
   36POPC   C12 4772   5.205   3.553  10.833 -0.1594  0.4701 -0.1063
   36POPC  H12A 4773   5.110   3.554  10.780  0.6812 -0.4532 -1.7032
   36POPC  H12B 4774   5.231   3.448  10.825  2.0551  0.7601  2.1021
   36POPC   C13 4775   5.332   3.535  11.042 -0.3588  0.7088 -0.1794
   36POPC  H13A 4776   5.369   3.434  11.029 -0.9235  0.8429 -4.0647
   36POPC  H13B 4777   5.414   3.590  10.999  2.9433 -2.7819  1.1506
   36POPC  H13C 4778   5.335   3.562  11.146 -2.1075  0.2962  0.0104
   36POPC   C14 4779   5.165   3.714  11.015 -0.8903 -0.0504  0.0303
   36POPC  H14A 4780   5.178   3.737  11.120 -1.4040 -2.1612  0.6221
   36POPC  H14B 4781   5.227   3.791  10.972 -1.2999 -0.1075 -0.6785
   36POPC  H14C 4782   5.062   3.725  10.985 -1.2154 -1.4421  0.5178
   36POPC   C15 4783   5.100   3.493  11.045  0.1018  0.6379  0.4618
   36POPC  H15A 4784   5.100   3.497  11.153  0.2001 -3.0129  0.7123
   36POPC  H15B 4785   5.114   3.394  11.004 -0.2461  0.7270  0.1321
   36POPC  H15C 4786   5.006   3.534  11.014  0.7998  0.8484 -1.5089
   36POPC   C11 4787   5.309   3.629  10.752 -0.2348 -0.0287  0.3935
   36POPC  H11A 4788   5.302   3.737  10.776 -0.0648 -0.5864  3.3945
   36POPC  H11B 4789   5.285   3.612  10.645 -1.1396 -0.6681  0.6816
   36POPC     P 4790   5.521   3.478  10.701 -0.0157  0.1250 -0.1909
   36POPC   O13 4791   5.446   3.345  10.711 -0.2808 -0.0500  0.0771
   36POPC   O14 4792   5.658   3.485  10.752  0.3984 -0.2146 -0.3784
   36POPC   O12 4793   5.439   3.589  10.776 -0.6342  0.0778 -0.5869
   36POPC   O11 4794   5.521   3.527  10.556  0.1395 -0.1122 -0.7359
   36POPC    C1 4795   5.539   3.663  10.514  0.3448  0.1544  0.4485
   36POPC    HA 4796   5.628   3.708  10.563 -1.2273  3.3865  0.5729
   36POPC    HB 4797   5.453   3.727  10.544 -0.1473 -0.5905  0.6704
   36POPC    C2 4798   5.553   3.682  10.362  0.0363 -0.1421 -0.0857
   36POPC    HS 4799   5.565   3.790  10.341 -0.3020  0.0299  0.5767
   36POPC   O21 4800   5.434   3.634  10.293 -0.6270 -0.6309 -0.0550
   36POPC   C21 4801   5.313   3.689  10.314 -0.7879 -0.2875  0.6655
   36POPC   O22 4802   5.287   3.786  10.384 -0.3497 -0.2212  0.4141
   36POPC   C22 4803   5.215   3.613  10.235  0.8633  0.6134 -0.1189
   36POPC   H2R 4804   5.132   3.597  10.307  1.1168  0.0545  0.0557
   36POPC   H2S 4805   5.256   3.511  10.221  1.5136  1.0650 -1.8228
   36POPC    C3 4806   5.678   3.615  10.302 -0.3881  0.3952 -1.3277
   36POPC    HX 4807   5.666   3.507  10.326  0.6655  0.2912 -1.2174
   36POPC    HY 4808   5.766   3.662  10.351 -1.4745  1.8234 -0.6978
   36POPC   O31 4809   5.698   3.627  10.161 -0.1190  0.2924  0.1344
   36POPC   C31 4810   5.722   3.746  10.107  0.4916 -0.0832  0.0139
   36POPC   O32 4811   5.735   3.850  10.167  0.3599 -0.1090 -0.3532
   36POPC   C32 4812   5.735   3.733   9.956 -0.7292 -0.8115 -0.2378
   36POPC   H2X 4813   5.700   3.633   9.924  0.2802 -0.6022 -2.1562
   36POPC   H2Y 4814   5.842   3.753   9.931 -1.1022  0.4932 -0.9193
   36POPC   C23 4815   5.178   3.673  10.095 -0.5905  0.0895  0.0567
   36POPC   H3R 4816   5.160   3.783  10.094 -0.7437  0.0705  0.3697
   36POPC   H3S 4817   5.077   3.630  10.073 -0.8097 -0.9157  2.6386
   36POPC   C24 4818   5.278   3.626   9.997 -0.4027  0.1266  0.0581
   36POPC   H4R 4819   5.264   3.516   9.987  3.8714 -0.4342 -1.7125
   36POPC   H4S 4820   5.380   3.639  10.039 -0.6694  1.6611  0.3084
   36POPC   C25 4821   5.276   3.702   9.866 -0.1303 -0.3291  0.5560
   36POPC   H5R 4822   5.368   3.665   9.815 -0.3515 -1.9746  1.2958
   36POPC   H5S 4823   5.301   3.808   9.886  0.8573  0.0391 -2.1825
   36POPC   C26 4824   5.153   3.705   9.776  0.5258  0.3359  0.2127
   36POPC   H6R 4825   5.060   3.739   9.826 -0.0811  0.4776 -0.9806
   36POPC   H6S 4826   5.131   3.597   9.757  0.9341  0.2022  0.5064
   36POPC   C27 4827   5.181   3.763   9.640  0.2346 -0.6712  0.2654
   36POPC   H7R 4828   5.286   3.740   9.612 -0.1006 -0.2357 -1.4485
   36POPC   H7S 4829   5.174   3.873   9.627  1.1232 -0.7528 -1.2348
   36POPC   C28 4830   5.094   3.701   9.530  0.1577  0.1863 -0.4389
   36POPC   H8R 4831   5.101   3.591   9.543  0.5761  0.2324 -0.2702
   36POPC   H8S 4832   5.143   3.724   9.433  0.8244  2.0348  0.2965
   36POPC   C29 4833   4.955   3.747   9.509  0.3895 -0.0739 -0.6865
   36POPC   H91 4834   4.911   3.810   9.588  0.0432 -1.6358  0.4179
   36POPC  C210 4835   4.885   3.714   9.401  0.5713 -0.4745  0.1260
   36POPC  H101 4836   4.782   3.751   9.403 -0.2096 -2.5115  2.9668
   36POPC  C211 4837   4.932   3.633   9.279 -0.4045  0.1365  0.0359
   36POPC  H11R 4838   4.860   3.554   9.250  0.9766 -2.7186  3.5864
   36POPC  H11S 4839   5.034   3.592   9.294 -0.0015  1.0356 -0.1759
   36POPC  C212 4840   4.947   3.749   9.175 -0.0713  0.5368  0.2252
   36POPC  H12R 4841   5.017   3.829   9.206 -0.2870 -0.0828  2.4457
   36POPC  H12S 4842   4.851   3.803   9.169  0.3429  1.6066  2.4226
   36POPC  C213 4843   4.996   3.696   9.042  0.1357  0.4215  0.0116
   36POPC  H13R 4844   5.099   3.659   9.060 -0.0257 -0.2647 -0.4389
   36POPC  H13S 4845   5.005   3.778   8.968  0.7606  0.8465  0.5413
   36POPC  C214 4846   4.928   3.581   8.977 -0.2793 -0.5430 -0.1637
   36POPC  H14R 4847   4.818   3.589   8.990 -0.1508 -0.8889  1.3132
   36POPC  H14S 4848   4.957   3.483   9.021  3.0538 -0.0913 -1.1325
   36POPC  C215 4849   4.971   3.559   8.826  0.7024  0.1064 -0.2442
   36POPC  H15R 4850   5.075   3.521   8.838  0.0570 -0.9998  2.8177
   36POPC  H15S 4851   4.964   3.652   8.766 -0.1439 -0.4554 -1.0565
   36POPC  C216 4852   4.895   3.443   8.760  0.0744 -0.3685  0.1206
   36POPC  H16R 4853   4.788   3.468   8.746 -0.5071 -2.5193  0.4672
   36POPC  H16S 4854   4.897   3.356   8.828  0.3763  1.3780  2.4415
   36POPC  C217 4855   4.959   3.401   8.624  0.1758 -0.0568  0.5198
   36POPC  H17R 4856   4.885   3.334   8.575  1.2091 -0.6229 -0.3195
   36POPC  H17S 4857   5.046   3.333   8.633 -0.4255 -0.8692  0.3557
   36POPC  C218 4858   4.988   3.517   8.521 -0.4710  0.8255 -0.4441
   36POPC  H18R 4859   5.008   3.475   8.420 -2.0592  2.0620 -1.3281
   36POPC  H18S 4860   5.055   3.597   8.557  1.8541 -0.0672 -2.4510
   36POPC  H18T 4861   4.891   3.570   8.510 -0.5568  0.3617 -2.2273
   36POPC   C33 4862   5.661   3.846   9.871  0.7921 -0.2602 -0.0825
   36POPC   H3X 4863   5.719   3.940   9.876  0.4915 -0.0735 -0.0901
   36POPC   H3Y 4864   5.561   3.865   9.916  1.4962 -0.1269  1.4837
   36POPC   C34 4865   5.659   3.821   9.722  0.4703  0.7231  0.6230
   36POPC   H4X 4866   5.641   3.712   9.708  0.4828  0.9663 -1.6793
   36POPC   H4Y 4867   5.760   3.847   9.683 -0.1066  0.6964 -0.9790
   36POPC   C35 4868   5.544   3.876   9.645  0.0883 -0.2521 -0.2392
   36POPC   H5X 4869   5.531   3.981   9.679  0.9556 -0.2086 -0.0317
   36POPC   H5Y 4870   5.454   3.813   9.666  0.1919 -0.0267  0.9569
   36POPC   C36 4871   5.571   3.870   9.496  0.2219 -0.7538 -0.1770
   36POPC   H6X 4872   5.605   3.768   9.467  1.8061  0.0670 -1.3515
   36POPC   H6Y 4873   5.660   3.933   9.473 -0.6377  0.1607 -1.0674
   36POPC   C37 4874   5.462   3.927   9.404  0.1419  0.0540 -0.2626
   36POPC   H7X 4875   5.467   4.038   9.399  0.2589  0.1211  1.0042
   36POPC   H7Y 4876   5.366   3.890   9.445  0.4004 -0.5490 -0.1860
   36POPC   C38 4877   5.457   3.864   9.264  0.0241  0.0400  0.3505
   36POPC   H8X 4878   5.441   3.754   9.272 -1.9472  0.3649  1.5866
   36POPC   H8Y 4879   5.553   3.870   9.208 -0.5766 -0.6570 -0.7957
   36POPC   C39 4880   5.351   3.927   9.176 -0.5697  0.0017  0.1518
   36POPC   H9X 4881   5.334   4.033   9.201  0.3037 -0.3342  2.4483
   36POPC   H9Y 4882   5.252   3.882   9.199 -1.9113  3.3586  1.4542
   36POPC  C310 4883   5.362   3.896   9.025 -0.1294 -0.1783  0.1302
   36POPC  H10X 4884   5.336   3.791   9.000  1.6312  0.1644 -3.9201
   36POPC  H10Y 4885   5.457   3.907   8.970 -0.6265  0.9521 -0.5330
   36POPC  C311 4886   5.266   3.983   8.949 -0.7360  0.4193 -0.2562
   36POPC  H11X 4887   5.298   4.089   8.946 -1.4261  0.6214 -1.0485
   36POPC  H11Y 4888   5.168   3.979   9.002 -1.2459  1.9630 -1.0168
   36POPC  C312 4889   5.246   3.931   8.804 -0.3872  1.4181  0.1243
   36POPC  H12X 4890   5.236   3.821   8.802 -1.9262  1.5384 -0.2121
   36POPC  H12Y 4891   5.333   3.955   8.739  0.1393  0.4074  0.4464
   36POPC  C313 4892   5.114   3.985   8.740  0.2870 -0.4648 -0.0340
   36POPC  H13X 4893   5.114   4.091   8.708 -0.7787 -0.3217  0.4262
   36POPC  H13Y 4894   5.024   3.971   8.803 -1.2656 -1.1342 -2.2699
   36POPC  C314 4895   5.080   3.897   8.613  0.0837  0.7675  0.2128
   36POPC  H14X 4896   5.099   3.796   8.657  2.4464  1.7835  1.7606
   36POPC  H14Y 4897   5.144   3.916   8.524 -1.5958  1.0362 -0.9779
   36POPC  C315 4898   4.936   3.902   8.572 -0.0083  0.0109  1.0935
   36POPC  H15X 4899   4.869   3.883   8.658 -1.0344 -1.2766  0.0500
   36POPC  H15Y 4900   4.905   3.827   8.496  2.7558 -0.5731  0.4376
   36POPC  C316 4901   4.903   4.038   8.505  0.1587 -0.8470 -0.3428
   36POPC  H16X 4902   4.793   4.047   8.500  0.3762  2.5156 -1.3658
   36POPC  H16Y 4903   4.952   4.043   8.405 -1.5694  0.0090 -1.1836
   36POPC  H16Z 4904   4.954   4.124   8.554  1.7974 -1.0443 -1.5968
   37POPC     N 4905   2.176   2.556   6.326 -0.1471  0.0982 -0.1012
   37POPC   C12 4906   2.240   2.601   6.456 -0.2621  0.6810  0.2942
   37POPC  H12A 4907   2.309   2.681   6.435 -0.7211  0.7440 -1.0791
   37POPC  H12B 4908   2.288   2.515   6.500 -2.4930 -0.6706  0.2814
   37POPC   C13 4909   2.078   2.454   6.360 -0.1666  0.1462  0.2943
   37POPC  H13A 4910   2.134   2.373   6.405  0.3616  0.0393 -0.5341
   37POPC  H13B 4911   1.998   2.493   6.421 -0.5553 -0.8626  0.4577
   37POPC  H13C 4912   2.031   2.418   6.270 -1.0254 -0.8989  1.1249
   37POPC   C14 4913   2.100   2.667   6.266 -0.0975 -0.2567  0.0845
   37POPC  H14A 4914   2.172   2.742   6.236  1.2788 -1.0644  1.3039
   37POPC  H14B 4915   2.050   2.640   6.174  0.3225  1.2277 -0.6102
   37POPC  H14C 4916   2.034   2.715   6.336 -1.4526  0.4504 -1.5828
   37POPC   C15 4917   2.274   2.521   6.222  0.6608  0.2633 -0.4190
   37POPC  H15A 4918   2.351   2.596   6.208  1.0390  0.3949  1.9491
   37POPC  H15B 4919   2.221   2.491   6.133  1.0632  0.2705 -0.6638
   37POPC  H15C 4920   2.336   2.442   6.263  0.2260 -0.5282 -1.2604
   37POPC   C11 4921   2.153   2.660   6.567  0.8870  1.0635  0.0576
   37POPC  H11A 4922   2.209   2.676   6.662 -2.5402  3.8984  1.8454
   37POPC  H11B 4923   2.091   2.573   6.596  0.3278  1.6303  0.5876
   37POPC     P 4924   2.157   2.918   6.530 -0.6380  0.2673  0.1287
   37POPC   O13 4925   2.070   3.014   6.457  0.3372 -0.0283  0.3222
   37POPC   O14 4926   2.287   2.904   6.458  0.0341  0.2215  0.2880
   37POPC   O12 4927   2.081   2.772   6.536 -0.2830 -0.4689  0.3450
   37POPC   O11 4928   2.170   2.960   6.682 -0.0915  0.2873  0.5096
   37POPC    C1 4929   2.067   2.923   6.775 -0.4835  0.4670 -0.0799
   37POPC    HA 4930   2.091   2.829   6.830 -2.9858  0.7791  1.7018
   37POPC    HB 4931   1.966   2.918   6.729 -1.5323 -1.8160  2.1586
   37POPC    C2 4932   2.049   3.038   6.877  0.1614  0.5682  0.1829
   37POPC    HS 4933   2.040   3.134   6.822  0.7452  0.7305  0.3614
   37POPC   O21 4934   2.150   3.036   6.975  0.0093 -0.2305 -0.2732
   37POPC   C21 4935   2.265   3.107   6.946 -0.2968 -1.0268  0.7010
   37POPC   O22 4936   2.278   3.195   6.859  0.1763  0.2260  0.2506
   37POPC   C22 4937   2.372   3.087   7.052  0.1905  0.1428 -0.6414
   37POPC   H2R 4938   2.434   3.179   7.058  0.4820 -0.0711 -0.3323
   37POPC   H2S 4939   2.447   3.011   7.022  1.1399  1.0302 -0.5809
   37POPC    C3 4940   1.912   3.038   6.958  0.4751  0.1188  0.3926
   37POPC    HX 4941   1.835   3.045   6.878  2.3298 -1.1697 -1.6425
   37POPC    HY 4942   1.904   3.130   7.019  1.5203 -0.6681  1.7573
   37POPC   O31 4943   1.880   2.908   7.024  0.1956 -0.5754  0.1411
   37POPC   C31 4944   1.892   2.921   7.158  0.2454  0.3477  0.2230
   37POPC   O32 4945   1.903   3.020   7.221  0.2199 -0.5012  0.2553
   37POPC   C32 4946   1.884   2.780   7.212 -0.4584 -0.3847  0.5205
   37POPC   H2X 4947   1.987   2.743   7.192 -0.4229 -0.3021  0.5532
   37POPC   H2Y 4948   1.815   2.720   7.147  1.2825 -0.4896 -1.3175
   37POPC   C23 4949   2.305   3.057   7.190  0.0922  0.2194 -0.1501
   37POPC   H3R 4950   2.269   2.952   7.183  1.5637 -0.2077 -2.2236
   37POPC   H3S 4951   2.214   3.119   7.199  0.0298  0.1211 -0.1087
   37POPC   C24 4952   2.395   3.085   7.310 -0.2553  0.2804 -0.2408
   37POPC   H4R 4953   2.409   3.193   7.331 -1.5986  0.2428  1.0179
   37POPC   H4S 4954   2.486   3.025   7.292  0.1247  0.6216  0.5152
   37POPC   C25 4955   2.321   3.038   7.433 -0.0279  0.4947 -0.7796
   37POPC   H5R 4956   2.396   3.017   7.512  0.5243  0.7543 -1.2287
   37POPC   H5S 4957   2.278   2.937   7.418  2.8892 -0.5893 -2.4936
   37POPC   C26 4958   2.205   3.131   7.485  0.2790  0.5754  0.0027
   37POPC   H6R 4959   2.136   3.165   7.404  0.4653  1.0539  0.0428
   37POPC   H6S 4960   2.255   3.222   7.523  0.4609  1.2774 -1.8068
   37POPC   C27 4961   2.130   3.060   7.604 -0.4324 -0.2790  0.1532
   37POPC   H7R 4962   2.127   2.951   7.583  0.6487 -0.7282  2.0900
   37POPC   H7S 4963   2.025   3.098   7.609 -0.2485  0.1942  0.4757
   37POPC   C28 4964   2.186   3.081   7.745 -0.2167 -0.3930 -0.0189
   37POPC   H8R 4965   2.193   3.191   7.764  2.7706 -0.1136 -2.0658
   37POPC   H8S 4966   2.290   3.043   7.744 -1.2508 -3.6320  1.0852
   37POPC   C29 4967   2.088   3.015   7.845  0.5297  0.2310 -0.3282
   37POPC   H91 4968   2.045   2.919   7.811 -0.4975  0.6086 -0.1271
   37POPC  C210 4969   2.035   3.059   7.956 -0.3929 -0.5362  0.1124
   37POPC  H101 4970   1.968   2.988   8.009 -2.0483  1.3318  0.6592
   37POPC  C211 4971   2.070   3.194   8.023 -0.0097  0.0801 -0.0640
   37POPC  H11R 4972   2.063   3.285   7.960 -0.7669  0.1656  0.1279
   37POPC  H11S 4973   2.178   3.194   8.049 -0.3224  2.6742  1.5287
   37POPC  C212 4974   1.989   3.218   8.153 -0.2773  0.0671  0.0781
   37POPC  H12R 4975   1.882   3.207   8.127 -0.1438 -1.8868  0.1864
   37POPC  H12S 4976   2.011   3.322   8.185 -2.3691  1.0639 -1.5095
   37POPC  C213 4977   2.012   3.112   8.261 -0.6545  0.1578 -0.1528
   37POPC  H13R 4978   2.123   3.104   8.260 -0.4425  2.4594 -1.6961
   37POPC  H13S 4979   1.969   3.013   8.235 -0.4142 -0.2728  1.0567
   37POPC  C214 4980   1.956   3.145   8.402  0.2852 -0.4742  0.2665
   37POPC  H14R 4981   1.907   3.048   8.427  1.5594 -2.0312 -2.7438
   37POPC  H14S 4982   1.872   3.215   8.383 -0.1247 -1.4925 -2.0534
   37POPC  C215 4983   2.049   3.190   8.513 -0.7069  0.0115 -1.0592
   37POPC  H15R 4984   2.142   3.132   8.494 -0.7824 -0.0902 -1.1227
   37POPC  H15S 4985   2.002   3.161   8.609  1.1756 -3.6403 -1.0561
   37POPC  C216 4986   2.073   3.348   8.515 -0.4394 -0.0316 -0.2052
   37POPC  H16R 4987   1.981   3.403   8.488  0.7557  1.6870 -0.9949
   37POPC  H16S 4988   2.147   3.364   8.433  1.9341 -0.0048  1.8078
   37POPC  C217 4989   2.142   3.409   8.634  0.1000  0.1434  0.2239
   37POPC  H17R 4990   2.074   3.394   8.721 -0.6152  0.1674 -0.3279
   37POPC  H17S 4991   2.159   3.518   8.623  2.1672 -0.2070 -0.4077
   37POPC  C218 4992   2.274   3.326   8.661  0.6307 -0.7901 -0.2255
   37POPC  H18R 4993   2.334   3.312   8.568  1.7271  0.7087  0.2172
   37POPC  H18S 4994   2.259   3.225   8.705 -0.2021 -0.0749  1.2015
   37POPC  H18T 4995   2.337   3.388   8.728 -0.4517  0.3344 -0.2073
   37POPC   C33 4996   1.849   2.771   7.364  0.3720 -0.1371 -0.4583
   37POPC   H3X 4997   1.741   2.793   7.381  1.1874  2.6021  2.0917
   37POPC   H3Y 4998   1.901   2.844   7.429  1.3443 -1.1169 -0.1153
   37POPC   C34 4999   1.891   2.632   7.427  0.8131  1.0271 -0.5006
   37POPC   H4X 5000   2.001   2.632   7.410  0.9167  1.3748  0.1245
   37POPC   H4Y 5001   1.845   2.548   7.371 -1.6463  0.1460  2.5621
   37POPC   C35 5002   1.853   2.604   7.576 -0.2541  0.7416 -0.4312
   37POPC   H5X 5003   1.890   2.502   7.599 -0.7824  0.7298  0.4343
   37POPC   H5Y 5004   1.744   2.584   7.590 -0.1163 -1.9731 -2.3234
   37POPC   C36 5005   1.917   2.693   7.686 -0.6492 -0.3791  0.2859
   37POPC   H6X 5006   1.894   2.798   7.655  1.1153  0.2604  1.0260
   37POPC   H6Y 5007   2.025   2.685   7.664 -0.6320  3.1190 -1.7227
   37POPC   C37 5008   1.867   2.644   7.823 -0.9041  0.2693 -0.2486
   37POPC   H7X 5009   1.858   2.535   7.805  2.8386  0.0315 -1.6382
   37POPC   H7Y 5010   1.768   2.686   7.850 -1.6420 -0.2036 -2.0679
   37POPC   C38 5011   1.969   2.645   7.939 -0.7784  0.0940  0.2443
   37POPC   H8X 5012   1.988   2.750   7.970  1.7882 -0.0765 -0.4788
   37POPC   H8Y 5013   2.065   2.605   7.899  0.1418  2.1238  0.2908
   37POPC   C39 5014   1.932   2.559   8.059 -0.2477 -0.1458  0.0649
   37POPC   H9X 5015   1.908   2.454   8.032  1.2973 -0.0502 -2.0018
   37POPC   H9Y 5016   1.848   2.597   8.121  0.1426  1.6388 -0.4507
   37POPC  C310 5017   2.047   2.561   8.162  0.0230 -0.7945  0.0708
   37POPC  H10X 5018   2.146   2.538   8.119 -1.0306 -0.1005 -2.9898
   37POPC  H10Y 5019   2.027   2.481   8.237 -0.4186  0.4972  1.3751
   37POPC  C311 5020   2.056   2.694   8.231 -0.0606 -0.5781 -0.0033
   37POPC  H11X 5021   1.960   2.736   8.267  0.8533 -0.6828  2.8053
   37POPC  H11Y 5022   2.097   2.775   8.166  1.1164  1.7713  3.3286
   37POPC  C312 5023   2.144   2.681   8.361 -0.4260 -0.0686 -0.5154
   37POPC  H12X 5024   2.232   2.616   8.339 -0.4580 -0.2169 -0.2084
   37POPC  H12Y 5025   2.065   2.639   8.427  1.3660  0.2577  1.9900
   37POPC  C313 5026   2.179   2.813   8.429 -0.2497  0.5892  0.2054
   37POPC  H13X 5027   2.090   2.879   8.433  0.5393  1.6047  2.1662
   37POPC  H13Y 5028   2.246   2.851   8.349  0.2414  1.1941  0.8983
   37POPC  C314 5029   2.251   2.803   8.558 -0.8953 -0.1766 -0.4284
   37POPC  H14X 5030   2.200   2.738   8.633  0.6208  0.1455  0.9297
   37POPC  H14Y 5031   2.248   2.909   8.591 -0.4812 -0.7124  1.4686
   37POPC  C315 5032   2.393   2.760   8.532  0.5003 -0.4127  0.3859
   37POPC  H15X 5033   2.443   2.822   8.455 -3.0921  2.2612 -0.0160
   37POPC  H15Y 5034   2.392   2.651   8.507  0.5312 -0.0321 -1.4296
   37POPC  C316 5035   2.482   2.781   8.653  0.5121 -1.2305 -0.0351
   37POPC  H16X 5036   2.582   2.735   8.641  0.0547 -2.5887  0.9712
   37POPC  H16Y 5037   2.444   2.735   8.747 -0.2753  2.0168  1.3609
   37POPC  H16Z 5038   2.495   2.891   8.661 -1.3521 -0.8831 -1.1184
   38POPC     N 5039   3.247   3.682   5.929  0.7209 -0.1684 -0.4444
   38POPC   C12 5040   3.153   3.577   5.877 -0.5542  0.8276 -0.3805
   38POPC  H12A 5041   3.115   3.598   5.778 -1.6512  1.2185  0.1119
   38POPC  H12B 5042   3.059   3.573   5.929 -0.6871 -0.4795 -0.6693
   38POPC   C13 5043   3.364   3.697   5.834 -0.8307 -0.7178  0.3312
   38POPC  H13A 5044   3.324   3.726   5.738 -1.4318 -2.6542 -0.0481
   38POPC  H13B 5045   3.430   3.771   5.878 -0.0123 -1.3187  0.1441
   38POPC  H13C 5046   3.422   3.606   5.824 -1.0152 -0.8917  0.8234
   38POPC   C14 5047   3.163   3.808   5.932  0.0024 -0.4532  0.2865
   38POPC  H14A 5048   3.073   3.798   5.991 -1.1785  2.0112 -0.9689
   38POPC  H14B 5049   3.226   3.877   5.986 -0.9737  1.1967 -0.6383
   38POPC  H14C 5050   3.132   3.842   5.835 -0.5364 -1.5493  0.0549
   38POPC   C15 5051   3.296   3.643   6.064  0.3137  0.2452  0.8185
   38POPC  H15A 5052   3.357   3.725   6.098 -1.3861  3.3762 -2.9385
   38POPC  H15B 5053   3.346   3.548   6.050  1.1020  0.6807  0.6078
   38POPC  H15C 5054   3.210   3.632   6.129 -1.0101  1.0805 -0.7323
   38POPC   C11 5055   3.205   3.426   5.880  0.3644  0.0800  0.0675
   38POPC  H11A 5056   3.304   3.418   5.830 -0.0044 -3.6511 -0.3444
   38POPC  H11B 5057   3.132   3.367   5.820 -0.8198 -0.4453  1.9604
   38POPC     P 5058   3.101   3.340   6.097 -0.1806  0.1066  0.1822
   38POPC   O13 5059   3.079   3.192   6.106 -0.3315 -0.9515  0.6887
   38POPC   O14 5060   2.988   3.426   6.053  0.4648  0.9552  0.1389
   38POPC   O12 5061   3.219   3.372   6.007 -0.0314  0.3084 -0.1437
   38POPC   O11 5062   3.153   3.396   6.238  0.7595  0.6419  0.4775
   38POPC    C1 5063   3.256   3.334   6.317 -0.6939 -0.3620 -0.2492
   38POPC    HA 5064   3.339   3.405   6.338  1.2028 -2.7837  0.9485
   38POPC    HB 5065   3.301   3.240   6.278  1.2491  1.3753 -2.5522
   38POPC    C2 5066   3.203   3.318   6.464 -0.3137  1.1616 -0.2572
   38POPC    HS 5067   3.121   3.244   6.456 -0.2426  1.0188  0.3241
   38POPC   O21 5068   3.165   3.448   6.512 -0.0195 -0.2157 -0.0785
   38POPC   C21 5069   3.068   3.450   6.597 -0.2860  0.4002  0.2989
   38POPC   O22 5070   3.010   3.349   6.641 -0.3392  0.0500 -0.2170
   38POPC   C22 5071   3.033   3.602   6.628  0.2609 -0.1962 -0.3285
   38POPC   H2R 5072   2.991   3.658   6.541 -0.1544  2.6873  1.5913
   38POPC   H2S 5073   3.125   3.658   6.656  0.0487  2.7197 -4.4867
   38POPC    C3 5074   3.316   3.252   6.553 -0.4083 -0.9258  0.0133
   38POPC    HX 5075   3.407   3.315   6.541 -1.4148  0.5957  0.1203
   38POPC    HY 5076   3.343   3.156   6.504 -0.0439 -0.3134 -1.0227
   38POPC   O31 5077   3.281   3.238   6.690 -0.2061  0.4126 -0.1600
   38POPC   C31 5078   3.227   3.120   6.718 -0.3626  0.7017 -0.2452
   38POPC   O32 5079   3.213   3.030   6.638  0.6106  0.5785  0.4575
   38POPC   C32 5080   3.173   3.120   6.868  0.4021 -0.1202  0.6525
   38POPC   H2X 5081   3.170   3.220   6.915 -1.6776 -0.9078  2.3854
   38POPC   H2Y 5082   3.238   3.052   6.926 -0.3219  0.1202  1.7669
   38POPC   C23 5083   2.931   3.623   6.750  0.2415  0.1902  0.5281
   38POPC   H3R 5084   2.835   3.576   6.720  0.7180  0.0834 -0.9172
   38POPC   H3S 5085   2.927   3.734   6.758 -0.8100  0.2775 -0.7940
   38POPC   C24 5086   2.994   3.568   6.882  0.7546 -0.5759 -0.2984
   38POPC   H4R 5087   3.094   3.616   6.889  0.6147 -0.4848  2.1210
   38POPC   H4S 5088   3.008   3.459   6.867  1.6755 -0.1792 -2.8000
   38POPC   C25 5089   2.911   3.592   7.008  0.3998 -0.4896 -0.5709
   38POPC   H5R 5090   2.816   3.538   6.988  1.6790 -2.5052 -1.5342
   38POPC   H5S 5091   2.897   3.701   7.024 -0.1770 -0.7421  0.7262
   38POPC   C26 5092   2.982   3.536   7.125 -0.6620  0.4796 -0.1641
   38POPC   H6R 5093   3.075   3.592   7.148 -1.0452  0.5796  1.2974
   38POPC   H6S 5094   3.013   3.437   7.087 -0.3638 -0.0596  1.4038
   38POPC   C27 5095   2.906   3.530   7.260  0.0261 -0.5204 -0.0537
   38POPC   H7R 5096   2.808   3.486   7.233 -0.2890  1.0448 -1.6826
   38POPC   H7S 5097   2.887   3.630   7.305 -1.1635  0.4645 -2.5416
   38POPC   C28 5098   2.976   3.436   7.359  0.0668 -0.4600  0.6839
   38POPC   H8R 5099   3.004   3.342   7.307  1.0686 -1.1144  2.3519
   38POPC   H8S 5100   2.916   3.409   7.449  0.5821  1.9238  1.8208
   38POPC   C29 5101   3.100   3.505   7.412  0.6305 -0.7214  0.1617
   38POPC   H91 5102   3.128   3.599   7.362 -0.6425 -0.0360  0.7008
   38POPC  C210 5103   3.173   3.474   7.521  0.1350  0.6173  0.0455
   38POPC  H101 5104   3.263   3.529   7.550  0.0297  0.3241  0.9776
   38POPC  C211 5105   3.140   3.359   7.613 -0.2468 -0.3368 -0.2973
   38POPC  H11R 5106   3.096   3.269   7.565  0.7320  0.0743 -2.0596
   38POPC  H11S 5107   3.058   3.400   7.676 -0.8357 -0.7688 -0.7691
   38POPC  C212 5108   3.255   3.319   7.705 -0.0467  0.6826 -0.1890
   38POPC  H12R 5109   3.337   3.277   7.643  1.5418  0.9431  1.6244
   38POPC  H12S 5110   3.214   3.234   7.765  0.1498  1.1213  0.5810
   38POPC  C213 5111   3.301   3.428   7.803  0.3775  0.7213  0.7965
   38POPC  H13R 5112   3.241   3.517   7.776 -2.9848 -1.2165  1.3084
   38POPC  H13S 5113   3.409   3.433   7.777  0.3763  0.7664  0.8015
   38POPC  C214 5114   3.277   3.382   7.947  0.0020 -0.0680 -0.7774
   38POPC  H14R 5115   3.333   3.292   7.980 -1.2940 -0.4306  0.4894
   38POPC  H14S 5116   3.170   3.362   7.965  0.0123  2.0608  2.4989
   38POPC  C215 5117   3.318   3.508   8.039  0.0993  0.0428 -0.9372
   38POPC  H15R 5118   3.280   3.592   7.977 -0.5178 -1.9341 -3.4474
   38POPC  H15S 5119   3.429   3.513   8.042  0.0818 -0.0972  0.9239
   38POPC  C216 5120   3.269   3.518   8.179  0.0772  0.2733  0.8480
   38POPC  H16R 5121   3.159   3.526   8.191  0.1431  1.9282  0.5313
   38POPC  H16S 5122   3.304   3.616   8.217 -0.8389  0.9633 -0.0324
   38POPC  C217 5123   3.335   3.424   8.278 -0.6461  1.1605 -0.8926
   38POPC  H17R 5124   3.441   3.457   8.272 -0.5148  0.6047 -1.8664
   38POPC  H17S 5125   3.328   3.314   8.266  3.2369  0.5471  0.8269
   38POPC  C218 5126   3.288   3.448   8.422  0.7011 -0.5943 -0.2104
   38POPC  H18R 5127   3.279   3.555   8.450 -0.6168 -0.6066 -0.5139
   38POPC  H18S 5128   3.352   3.394   8.495 -4.5993 -4.4264  2.2469
   38POPC  H18T 5129   3.184   3.410   8.427  0.4345 -0.0480 -1.3137
   38POPC   C33 5130   3.023   3.069   6.876 -0.4234 -0.5369 -0.4066
   38POPC   H3X 5131   3.024   2.958   6.869 -0.3109 -0.7165  1.7844
   38POPC   H3Y 5132   2.951   3.115   6.805  0.7653  1.5270 -0.3445
   38POPC   C34 5133   2.969   3.098   7.022  0.1589  0.0811  0.1900
   38POPC   H4X 5134   2.954   3.206   7.040 -2.0334 -0.2655  0.7099
   38POPC   H4Y 5135   3.048   3.076   7.097 -0.4424  0.6736  1.0073
   38POPC   C35 5136   2.847   3.015   7.060  0.2400  0.4016 -0.3845
   38POPC   H5X 5137   2.877   2.913   7.094 -2.2504 -0.1986  0.2876
   38POPC   H5Y 5138   2.772   2.998   6.980  1.0796  0.8566 -1.2731
   38POPC   C36 5139   2.769   3.062   7.189 -0.5445  0.0385 -0.8079
   38POPC   H6X 5140   2.686   2.990   7.204 -0.6024  0.0147 -1.2193
   38POPC   H6Y 5141   2.733   3.165   7.169 -1.2261 -0.0606 -0.1098
   38POPC   C37 5142   2.860   3.080   7.314 -0.4559  0.6824  0.0856
   38POPC   H7X 5143   2.943   3.148   7.287 -0.5807  1.1270  0.7962
   38POPC   H7Y 5144   2.901   2.983   7.348 -1.5014  0.0330 -0.4564
   38POPC   C38 5145   2.778   3.143   7.427 -0.3864 -1.2914  0.3476
   38POPC   H8X 5146   2.675   3.102   7.419 -1.7230  2.0371 -2.7171
   38POPC   H8Y 5147   2.768   3.254   7.424 -0.9501 -1.2433  2.4144
   38POPC   C39 5148   2.816   3.094   7.567  0.3972  0.3184  0.1856
   38POPC   H9X 5149   2.912   3.137   7.606  1.0332 -0.9210  0.0216
   38POPC   H9Y 5150   2.847   2.988   7.553  0.2824  0.2267  0.6035
   38POPC  C310 5151   2.699   3.115   7.661 -0.8305 -0.0731  0.2841
   38POPC  H10X 5152   2.611   3.058   7.624  0.0323 -0.2180 -1.7148
   38POPC  H10Y 5153   2.680   3.224   7.648  1.0193  0.1970 -0.4676
   38POPC  C311 5154   2.723   3.085   7.812  1.1203 -0.2631 -0.5326
   38POPC  H11X 5155   2.791   3.163   7.850  1.4438 -0.1803 -1.2572
   38POPC  H11Y 5156   2.771   2.984   7.812  0.8905 -0.3745  0.3035
   38POPC  C312 5157   2.587   3.077   7.895 -1.0034 -0.6439  0.3466
   38POPC  H12X 5158   2.538   2.983   7.862 -1.1602 -0.0317 -1.2448
   38POPC  H12Y 5159   2.529   3.164   7.857  0.6040 -0.6741 -2.4540
   38POPC  C313 5160   2.626   3.070   8.040  0.5641 -0.4100  0.2898
   38POPC  H13X 5161   2.697   3.150   8.071 -1.2421  1.6412 -0.5791
   38POPC  H13Y 5162   2.672   2.972   8.065 -0.3906 -0.1730  3.5174
   38POPC  C314 5163   2.494   3.100   8.118  0.2437 -0.1213 -0.1682
   38POPC  H14X 5164   2.422   3.019   8.093  0.1038 -0.3301  0.8498
   38POPC  H14Y 5165   2.441   3.192   8.084 -0.7855 -0.9143 -0.7553
   38POPC  C315 5166   2.527   3.084   8.263  0.2122 -0.2402 -0.4412
   38POPC  H15X 5167   2.618   3.138   8.296 -0.2219  1.1490 -1.4290
   38POPC  H15Y 5168   2.549   2.975   8.274 -0.6213 -0.4135 -0.4118
   38POPC  C316 5169   2.426   3.134   8.366 -0.0455  0.0105 -0.5474
   38POPC  H16X 5170   2.343   3.066   8.339 -0.8231  0.1112  1.4276
   38POPC  H16Y 5171   2.382   3.236   8.354 -1.3370 -0.2197  1.7115
   38POPC  H16Z 5172   2.452   3.124   8.473 -4.2640  1.7469  0.8247
   39POPC     N 5173   6.643   5.086   5.853 -0.2870 -0.3599 -0.8574
   39POPC   C12 5174   6.656   5.161   5.986 -0.3795  0.2272  0.3829
   39POPC  H12A 5175   6.641   5.266   5.965  1.2065  0.6556  1.2009
   39POPC  H12B 5176   6.762   5.163   6.011  0.2827  1.2724 -2.2535
   39POPC   C13 5177   6.690   4.942   5.875  0.2358 -0.1172 -0.0424
   39POPC  H13A 5178   6.624   4.901   5.950  1.5409 -1.6666  0.3108
   39POPC  H13B 5179   6.674   4.892   5.781 -2.0640  0.1935  0.1245
   39POPC  H13C 5180   6.792   4.921   5.901  0.6495 -0.7145 -1.9649
   39POPC   C14 5181   6.505   5.081   5.805 -0.0698  0.0003  0.5302
   39POPC  H14A 5182   6.482   5.015   5.723 -3.6799  0.2178  1.2049
   39POPC  H14B 5183   6.446   5.051   5.891  1.1459 -0.0350  1.3768
   39POPC  H14C 5184   6.483   5.181   5.770  1.5747  0.4950  0.8377
   39POPC   C15 5185   6.728   5.153   5.746  1.0472  0.4125 -0.5758
   39POPC  H15A 5186   6.823   5.187   5.786 -0.0692  1.9782  0.8588
   39POPC  H15B 5187   6.673   5.237   5.708 -0.3962  0.2313  1.0181
   39POPC  H15C 5188   6.733   5.095   5.655  2.4084  0.0912 -0.3191
   39POPC   C11 5189   6.583   5.105   6.112 -0.2492 -1.1042 -0.6720
   39POPC  H11A 5190   6.634   5.153   6.199 -1.1133  2.5329 -2.0019
   39POPC  H11B 5191   6.605   4.996   6.117  1.8939 -0.6692  1.8862
   39POPC     P 5192   6.326   5.038   6.156 -0.6519 -0.0476 -0.2659
   39POPC   O13 5193   6.332   4.916   6.068 -0.7422 -0.1680 -0.3280
   39POPC   O14 5194   6.197   5.111   6.167  0.1735  0.2784  0.1826
   39POPC   O12 5195   6.441   5.137   6.112 -0.3681 -0.4513 -0.3200
   39POPC   O11 5196   6.381   4.991   6.292 -0.3990 -0.3446  0.4724
   39POPC    C1 5197   6.347   5.067   6.404  0.4814  1.0374 -0.1446
   39POPC    HA 5198   6.245   5.112   6.399  0.0474 -0.0100 -1.1350
   39POPC    HB 5199   6.434   5.135   6.419 -0.1542  2.5277 -2.6577
   39POPC    C2 5200   6.318   4.962   6.524 -0.8518 -0.6806  0.2333
   39POPC    HS 5201   6.221   4.912   6.505 -0.5077 -0.6181 -1.9473
   39POPC   O21 5202   6.322   5.041   6.641  0.1984 -0.2360 -1.0452
   39POPC   C21 5203   6.233   5.023   6.734 -0.1157 -0.4467  0.2488
   39POPC   O22 5204   6.151   4.935   6.733 -0.3080  0.0700  0.2912
   39POPC   C22 5205   6.260   5.125   6.844 -0.0903  0.4350  0.4573
   39POPC   H2R 5206   6.184   5.206   6.842 -0.6587 -0.0968 -0.5158
   39POPC   H2S 5207   6.357   5.172   6.818  0.6322 -1.4629 -0.4504
   39POPC    C3 5208   6.438   4.860   6.540 -0.1896  0.3336 -0.7719
   39POPC    HX 5209   6.536   4.912   6.543  0.3044 -0.5208 -1.6608
   39POPC    HY 5210   6.427   4.806   6.443  2.8372 -2.6772  0.3651
   39POPC   O31 5211   6.419   4.774   6.659 -0.1820 -0.3768  0.4110
   39POPC   C31 5212   6.499   4.670   6.662  0.0587  0.0456  0.1151
   39POPC   O32 5213   6.589   4.637   6.585 -0.3010  0.0583  0.0840
   39POPC   C32 5214   6.474   4.589   6.789 -0.3833 -0.7444 -0.2214
   39POPC   H2X 5215   6.431   4.494   6.750 -1.0859 -2.0843  3.3593
   39POPC   H2Y 5216   6.574   4.572   6.835 -0.8628 -1.3298  0.6391
   39POPC   C23 5217   6.275   5.058   6.975  0.1680 -0.1351 -0.7898
   39POPC   H3R 5218   6.341   4.969   6.970  2.2099  1.1496  1.3061
   39POPC   H3S 5219   6.179   5.022   7.019  0.3562  0.5932  0.2431
   39POPC   C24 5220   6.346   5.143   7.085 -0.1835  1.0747 -0.4792
   39POPC   H4R 5221   6.296   5.240   7.109 -0.3942  0.8321  0.0715
   39POPC   H4S 5222   6.434   5.182   7.029  0.4753 -0.4525 -0.5431
   39POPC   C25 5223   6.373   5.062   7.207 -0.2803  0.2648 -0.5006
   39POPC   H5R 5224   6.454   5.108   7.267  0.2773  0.9105 -1.7140
   39POPC   H5S 5225   6.398   4.956   7.183 -3.0169 -0.5738  0.0465
   39POPC   C26 5226   6.257   5.041   7.305 -0.6190 -0.5488  0.7703
   39POPC   H6R 5227   6.189   4.970   7.254 -1.5137 -0.3930  1.7275
   39POPC   H6S 5228   6.204   5.134   7.333 -1.0917 -0.0975 -1.4398
   39POPC   C27 5229   6.299   4.972   7.442  0.1592 -0.2530  0.4974
   39POPC   H7R 5230   6.352   5.049   7.503 -0.1265  1.3454 -1.1674
   39POPC   H7S 5231   6.359   4.880   7.424  1.0078  0.6399 -1.6185
   39POPC   C28 5232   6.164   4.924   7.516 -0.3597  0.2808  0.4066
   39POPC   H8R 5233   6.126   4.841   7.452 -0.6598  2.8608 -3.1242
   39POPC   H8S 5234   6.100   5.014   7.500 -0.2298 -0.0986 -3.1012
   39POPC   C29 5235   6.174   4.896   7.664 -0.1164  0.3938  0.4652
   39POPC   H91 5236   6.179   4.791   7.696 -1.2295 -0.8076 -2.9138
   39POPC  C210 5237   6.173   4.990   7.762  0.1955 -0.4512 -0.0217
   39POPC  H101 5238   6.194   4.961   7.866  0.7557  0.7048  0.2115
   39POPC  C211 5239   6.154   5.142   7.747  0.1833  0.1003  0.1902
   39POPC  H11R 5240   6.057   5.173   7.792 -0.4107 -1.0899 -0.2397
   39POPC  H11S 5241   6.167   5.181   7.644  1.7908 -1.1407 -0.0973
   39POPC  C212 5242   6.266   5.210   7.833  0.4758 -0.8082 -0.3121
   39POPC  H12R 5243   6.255   5.172   7.937  0.6746 -0.3356 -0.1159
   39POPC  H12S 5244   6.242   5.318   7.831 -0.3048 -0.9521  0.3359
   39POPC  C213 5245   6.405   5.187   7.778  0.0605 -0.0073 -0.1782
   39POPC  H13R 5246   6.402   5.223   7.673  0.1716  1.4829  0.2956
   39POPC  H13S 5247   6.432   5.080   7.787 -0.5377 -0.5922 -3.8926
   39POPC  C214 5248   6.515   5.277   7.853  0.3751 -0.4980  0.2103
   39POPC  H14R 5249   6.493   5.385   7.844  1.9607 -0.1830 -0.3041
   39POPC  H14S 5250   6.614   5.266   7.804 -0.9199 -0.8950 -2.5353
   39POPC  C215 5251   6.521   5.249   8.002  0.3771 -0.6277 -0.0280
   39POPC  H15R 5252   6.527   5.138   8.002  0.1784 -0.7054 -2.4540
   39POPC  H15S 5253   6.433   5.279   8.063 -0.3725 -1.0414 -0.8704
   39POPC  C216 5254   6.641   5.325   8.071  0.1775 -0.5618  0.0885
   39POPC  H16R 5255   6.612   5.433   8.069  1.9712 -0.0060  1.7646
   39POPC  H16S 5256   6.734   5.322   8.012  0.0563  1.0868 -0.2453
   39POPC  C217 5257   6.679   5.294   8.216  0.0343 -0.3197  0.1301
   39POPC  H17R 5258   6.736   5.201   8.233 -1.1403 -0.6645  2.8583
   39POPC  H17S 5259   6.584   5.268   8.268  0.3670  0.4778  1.1730
   39POPC  C218 5260   6.744   5.408   8.305  0.2397  0.7188  0.5293
   39POPC  H18R 5261   6.677   5.494   8.322 -0.8838 -0.1820  0.8171
   39POPC  H18S 5262   6.839   5.444   8.261  0.1994 -0.2448 -0.3956
   39POPC  H18T 5263   6.758   5.368   8.408 -1.1336 -0.7882  0.1809
   39POPC   C33 5264   6.380   4.667   6.894  0.6646 -0.2587  0.4404
   39POPC   H3X 5265   6.289   4.687   6.834 -0.1772  0.5421  1.9253
   39POPC   H3Y 5266   6.421   4.761   6.937  0.1251 -0.3158  1.0957
   39POPC   C34 5267   6.344   4.586   7.020 -0.4904 -0.1994 -1.0249
   39POPC   H4X 5268   6.431   4.566   7.086 -1.6927 -1.2218  0.3069
   39POPC   H4Y 5269   6.306   4.485   6.996  0.2387 -0.6028 -0.5247
   39POPC   C35 5270   6.233   4.668   7.087  0.2367  0.1623 -0.8439
   39POPC   H5X 5271   6.169   4.710   7.005 -0.6645 -2.5460 -1.6223
   39POPC   H5Y 5272   6.274   4.749   7.152  0.3199 -1.0059  0.6003
   39POPC   C36 5273   6.159   4.580   7.194 -0.2668  0.2133  0.0395
   39POPC   H6X 5274   6.134   4.480   7.152  1.1915 -0.9343  1.7448
   39POPC   H6Y 5275   6.069   4.634   7.232 -1.3421 -0.8534 -0.8883
   39POPC   C37 5276   6.242   4.557   7.318 -0.1055  0.5041 -0.2201
   39POPC   H7X 5277   6.254   4.664   7.346  0.9197  0.7590 -1.5769
   39POPC   H7Y 5278   6.342   4.520   7.288 -0.5979  1.6206 -3.6399
   39POPC   C38 5279   6.180   4.465   7.424  0.0916 -0.3342  0.3982
   39POPC   H8X 5280   6.222   4.362   7.414  0.2780 -0.1558 -0.7720
   39POPC   H8Y 5281   6.070   4.466   7.405  0.3254 -0.5024 -1.0600
   39POPC   C39 5282   6.194   4.525   7.568  0.4713 -0.0319 -0.0942
   39POPC   H9X 5283   6.170   4.633   7.575 -0.6352 -0.2642 -0.0792
   39POPC   H9Y 5284   6.298   4.503   7.601  0.3958 -0.0822  0.1150
   39POPC  C310 5285   6.094   4.460   7.663 -0.2308  0.4587  0.0126
   39POPC  H10X 5286   6.076   4.352   7.648 -0.3185  0.5701 -0.7367
   39POPC  H10Y 5287   5.990   4.495   7.641 -1.0213  2.1151  5.0560
   39POPC  C311 5288   6.132   4.472   7.811 -0.0661 -0.3182  0.5119
   39POPC  H11X 5289   6.172   4.575   7.821  2.3964 -1.2116  0.5359
   39POPC  H11Y 5290   6.215   4.400   7.828 -1.1308 -2.0722 -1.2371
   39POPC  C312 5291   6.015   4.444   7.913 -1.1213  0.3291  0.2096
   39POPC  H12X 5292   5.990   4.338   7.891 -0.6104  0.4200 -0.9117
   39POPC  H12Y 5293   5.928   4.509   7.889 -0.4002  0.7627 -1.3732
   39POPC  C313 5294   6.053   4.469   8.057  0.9384 -0.1924  0.2505
   39POPC  H13X 5295   6.157   4.428   8.058  0.8914 -0.3555  2.0149
   39POPC  H13Y 5296   5.990   4.402   8.119  1.4518  0.1427  1.1672
   39POPC  C314 5297   6.044   4.614   8.109 -0.2508  0.0961  0.5013
   39POPC  H14X 5298   5.935   4.639   8.111 -0.4103 -0.3792 -0.8838
   39POPC  H14Y 5299   6.101   4.680   8.040  2.1346 -0.2151  2.0938
   39POPC  C315 5300   6.106   4.618   8.253  0.6729 -0.7591  0.4391
   39POPC  H15X 5301   6.213   4.587   8.247  0.4380 -1.3642 -1.8965
   39POPC  H15Y 5302   6.057   4.537   8.311 -3.7166  1.1379 -0.2009
   39POPC  C316 5303   6.085   4.753   8.314 -0.2778 -0.3329 -0.4355
   39POPC  H16X 5304   5.980   4.788   8.305  0.1025  1.1210  0.4378
   39POPC  H16Y 5305   6.143   4.822   8.250 -1.5322  1.6505  0.4589
   39POPC  H16Z 5306   6.138   4.775   8.409 -0.2417 -1.4158 -0.1890
   40POPC     N 5307   0.443   4.830   6.253 -0.0265  0.1838 -0.3583
   40POPC   C12 5308   0.432   4.951   6.166  0.2988 -0.3765  0.0802
   40POPC  H12A 5309   0.379   4.930   6.075 -0.0229 -0.8521  0.3697
   40POPC  H12B 5310   0.529   4.986   6.133  0.8216 -1.8381  0.0122
   40POPC   C13 5311   0.312   4.769   6.295  0.0908 -0.2372  0.3096
   40POPC  H13A 5312   0.253   4.835   6.357  0.2822 -0.0822  0.3276
   40POPC  H13B 5313   0.255   4.750   6.205  1.3541  0.9188 -0.7858
   40POPC  H13C 5314   0.330   4.673   6.340 -0.3707  0.5951  2.4146
   40POPC   C14 5315   0.514   4.726   6.182  0.2724  0.6819  0.9929
   40POPC  H14A 5316   0.616   4.747   6.153 -1.0673  2.3593 -3.4105
   40POPC  H14B 5317   0.511   4.635   6.240 -1.1779  1.6815  2.5920
   40POPC  H14C 5318   0.465   4.704   6.088  0.2408 -0.1312  1.1976
   40POPC   C15 5319   0.531   4.861   6.372 -0.5278 -0.4767  0.5636
   40POPC  H15A 5320   0.476   4.902   6.455  0.8280  1.6989  0.4815
   40POPC  H15B 5321   0.613   4.928   6.351  0.9256 -1.9536  1.3239
   40POPC  H15C 5322   0.568   4.765   6.404  0.0186 -1.0904 -1.7106
   40POPC   C11 5323   0.340   5.072   6.220  0.1048  0.5061 -0.2651
   40POPC  H11A 5324   0.319   5.152   6.145 -2.1006  0.3547  0.1280
   40POPC  H11B 5325   0.406   5.118   6.296  1.3759 -1.9571  0.2166
   40POPC     P 5326   0.076   5.066   6.217 -0.3068 -0.2867 -0.3264
   40POPC   O13 5327  -0.018   4.963   6.260 -0.2989 -0.1129 -0.0896
   40POPC   O14 5328   0.094   5.097   6.073 -0.0110 -0.1185 -0.2920
   40POPC   O12 5329   0.214   5.029   6.282 -0.0648 -0.4990 -0.3026
   40POPC   O11 5330   0.036   5.200   6.298  0.0669 -1.0803 -0.2412
   40POPC    C1 5331   0.118   5.297   6.362 -0.7701  0.6589  0.6557
   40POPC    HA 5332   0.054   5.388   6.361 -0.1156  1.1272  0.9564
   40POPC    HB 5333   0.210   5.307   6.300 -0.7050  1.5421  0.8774
   40POPC    C2 5334   0.143   5.249   6.504  0.2191  0.5114 -0.4743
   40POPC    HS 5335   0.167   5.142   6.487 -1.9943 -0.0203 -0.6144
   40POPC   O21 5336   0.021   5.264   6.576 -0.2999 -0.2543 -0.5901
   40POPC   C21 5337  -0.045   5.156   6.611 -0.8024 -0.6553  0.0180
   40POPC   O22 5338  -0.003   5.042   6.620 -0.3915 -0.0783  0.1975
   40POPC   C22 5339  -0.186   5.200   6.639 -0.1325 -0.1432  0.2701
   40POPC   H2R 5340  -0.259   5.116   6.645 -2.6828  1.9233 -0.1641
   40POPC   H2S 5341  -0.210   5.270   6.557 -3.5840  1.1142  2.1553
   40POPC    C3 5342   0.267   5.325   6.558 -0.7693  0.8746  0.0136
   40POPC    HX 5343   0.248   5.434   6.552  0.5844  1.1110 -0.4277
   40POPC    HY 5344   0.347   5.291   6.489  2.0176 -0.5238  3.5836
   40POPC   O31 5345   0.304   5.283   6.691 -0.4889 -0.5125  0.5195
   40POPC   C31 5346   0.266   5.358   6.788  0.3150 -0.2801 -0.1370
   40POPC   O32 5347   0.217   5.467   6.784  0.3750 -0.7716 -0.2945
   40POPC   C32 5348   0.294   5.282   6.921 -0.5109  0.0621 -0.0264
   40POPC   H2X 5349   0.404   5.270   6.929 -0.2090  1.1483 -2.1060
   40POPC   H2Y 5350   0.239   5.186   6.918 -1.5882  0.6650 -0.0740
   40POPC   C23 5351  -0.182   5.275   6.771  0.7807 -0.0001  0.0657
   40POPC   H3R 5352  -0.288   5.296   6.798  0.2695 -2.1250 -0.1049
   40POPC   H3S 5353  -0.125   5.370   6.763  0.6085  0.1909  1.0115
   40POPC   C24 5354  -0.141   5.188   6.894  0.5112 -0.0083  0.5728
   40POPC   H4R 5355  -0.045   5.138   6.868 -0.0676 -1.0583  0.3645
   40POPC   H4S 5356  -0.210   5.104   6.919 -0.3887  0.4173 -0.3898
   40POPC   C25 5357  -0.121   5.270   7.018  0.0997  0.2923  0.2488
   40POPC   H5R 5358  -0.223   5.298   7.050  0.9669  0.9848  2.6862
   40POPC   H5S 5359  -0.059   5.358   6.989 -0.9301  0.1521 -2.6107
   40POPC   C26 5360  -0.075   5.189   7.142 -0.3885 -0.2965  0.5284
   40POPC   H6R 5361   0.031   5.157   7.131 -0.9465 -1.7617 -0.9720
   40POPC   H6S 5362  -0.129   5.092   7.153  1.3807 -1.1556  2.5781
   40POPC   C27 5363  -0.096   5.263   7.279 -0.6086 -0.6303 -0.1059
   40POPC   H7R 5364  -0.204   5.286   7.287 -0.3209  1.3368 -1.2618
   40POPC   H7S 5365  -0.034   5.355   7.280  0.6976 -1.4659 -0.7312
   40POPC   C28 5366  -0.057   5.178   7.397 -0.1813  1.0364 -0.7665
   40POPC   H8R 5367  -0.115   5.084   7.406  0.9644  0.5108  2.7602
   40POPC   H8S 5368  -0.097   5.242   7.479  1.7266  1.0453  0.2087
   40POPC   C29 5369   0.089   5.149   7.416 -0.0277 -0.1814 -0.3747
   40POPC   H91 5370   0.136   5.089   7.336 -1.9845 -1.5793 -0.5267
   40POPC  C210 5371   0.174   5.195   7.509 -0.1915  1.3876 -0.0324
   40POPC  H101 5372   0.275   5.153   7.515 -0.6636  0.4395  2.0921
   40POPC  C211 5373   0.139   5.286   7.630 -0.4496 -0.4443  0.1993
   40POPC  H11R 5374   0.029   5.297   7.633 -0.4157  0.4371 -1.0517
   40POPC  H11S 5375   0.195   5.378   7.601 -0.7143  0.5231  2.4894
   40POPC  C212 5376   0.189   5.235   7.766 -0.4305 -0.1872  0.3023
   40POPC  H12R 5377   0.185   5.325   7.832 -2.3553  1.0578 -1.3944
   40POPC  H12S 5378   0.296   5.207   7.766  0.3459  2.3481  2.2586
   40POPC  C213 5379   0.091   5.137   7.823 -0.4243 -0.3258 -0.5793
   40POPC  H13R 5380   0.101   5.035   7.781 -1.0810 -0.4993 -0.3244
   40POPC  H13S 5381  -0.010   5.177   7.797 -0.5981  0.8990  1.7336
   40POPC  C214 5382   0.107   5.121   7.980  0.3584 -0.3122  0.3380
   40POPC  H14R 5383   0.075   5.217   8.026 -3.6098 -1.9077  1.2867
   40POPC  H14S 5384   0.212   5.109   8.016  0.1372  0.7284  1.3937
   40POPC  C215 5385   0.020   5.008   8.042  0.4227  0.0962 -0.3275
   40POPC  H15R 5386   0.035   4.926   7.969  0.7066 -0.3133  0.1841
   40POPC  H15S 5387  -0.086   5.041   8.033  0.3500  0.1485  0.6006
   40POPC  C216 5388   0.053   4.972   8.188 -0.3561  0.1820 -0.4054
   40POPC  H16R 5389   0.071   5.053   8.262  2.0146 -2.7526  2.5053
   40POPC  H16S 5390   0.155   4.931   8.198  0.6223  2.1138 -1.8426
   40POPC  C217 5391  -0.050   4.871   8.245 -0.6128 -0.4905  0.2817
   40POPC  H17R 5392  -0.082   4.799   8.167 -2.2999 -1.7578  2.0271
   40POPC  H17S 5393  -0.142   4.934   8.249 -1.4388 -1.4534 -2.0937
   40POPC  C218 5394  -0.002   4.808   8.377  0.5249 -0.5644  0.1395
   40POPC  H18R 5395   0.076   4.729   8.363 -0.9300 -1.7640 -1.6182
   40POPC  H18S 5396  -0.092   4.758   8.418 -1.0253  1.3060 -0.8419
   40POPC  H18T 5397   0.033   4.885   8.449 -0.9556 -0.3256  0.6177
   40POPC   C33 5398   0.243   5.352   7.047 -0.5593  0.0272  0.5635
   40POPC   H3X 5399   0.242   5.274   7.126  0.5242 -2.1761 -1.4776
   40POPC   H3Y 5400   0.145   5.397   7.020  0.4790 -0.0089 -4.0999
   40POPC   C34 5401   0.343   5.460   7.097  0.3959  0.7291  0.0523
   40POPC   H4X 5402   0.347   5.550   7.031  0.0890  1.1528  0.6044
   40POPC   H4Y 5403   0.447   5.422   7.100  0.4964  0.7674 -1.7143
   40POPC   C35 5404   0.295   5.500   7.242 -0.2772  0.1091 -0.7803
   40POPC   H5X 5405   0.291   5.417   7.315  1.1806  0.9082  0.2674
   40POPC   H5Y 5406   0.192   5.540   7.236  0.2048  1.1824 -2.5738
   40POPC   C36 5407   0.391   5.611   7.300  1.1095  0.2696  0.4781
   40POPC   H6X 5408   0.362   5.702   7.243 -0.4363 -0.8472 -0.6074
   40POPC   H6Y 5409   0.497   5.594   7.273  0.6021  0.0176 -1.5025
   40POPC   C37 5410   0.368   5.648   7.441 -0.8648 -0.0109  0.1100
   40POPC   H7X 5411   0.380   5.564   7.512 -0.1709 -0.0870 -0.0905
   40POPC   H7Y 5412   0.267   5.693   7.454 -0.0278  2.0610 -0.0607
   40POPC   C38 5413   0.448   5.769   7.494 -0.5226  0.2299  0.4075
   40POPC   H8X 5414   0.421   5.787   7.600 -0.1501  0.7500  0.4171
   40POPC   H8Y 5415   0.417   5.852   7.428 -1.8546 -1.7696 -1.6217
   40POPC   C39 5416   0.599   5.763   7.488 -1.2136 -0.4595  0.5557
   40POPC   H9X 5417   0.633   5.768   7.383  2.1388 -1.7329  1.4591
   40POPC   H9Y 5418   0.639   5.662   7.513 -1.6505 -1.0161 -0.9106
   40POPC  C310 5419   0.664   5.878   7.566  0.7649  0.6374 -0.0143
   40POPC  H10X 5420   0.627   5.981   7.546  2.7022  1.4233  0.2800
   40POPC  H10Y 5421   0.772   5.883   7.539  0.5421  2.1040 -0.7643
   40POPC  C311 5422   0.656   5.838   7.712  0.2636  1.0045  0.4574
   40POPC  H11X 5423   0.641   5.728   7.718  0.7944  0.7979 -1.3896
   40POPC  H11Y 5424   0.562   5.880   7.755 -1.1139 -1.3410 -0.0566
   40POPC  C312 5425   0.772   5.887   7.797 -0.7270  0.3872  0.2977
   40POPC  H12X 5426   0.786   5.996   7.777  0.5830  0.5603  1.9587
   40POPC  H12Y 5427   0.874   5.853   7.769 -1.0941  0.8446 -1.7422
   40POPC  C313 5428   0.733   5.868   7.948  0.0168  0.2037  0.3335
   40POPC  H13X 5429   0.727   5.760   7.975 -0.8244  0.5223  1.4779
   40POPC  H13Y 5430   0.630   5.905   7.967 -0.3139 -0.7747  0.4968
   40POPC  C314 5431   0.832   5.937   8.048  0.0518  0.9366  0.5778
   40POPC  H14X 5432   0.822   6.044   8.019  1.5855  0.3196 -2.7837
   40POPC  H14Y 5433   0.934   5.901   8.023  0.9495  1.7895  2.7598
   40POPC  C315 5434   0.801   5.905   8.197 -0.3075  0.3059  0.2577
   40POPC  H15X 5435   0.887   5.855   8.245  0.1002 -0.2279 -0.9818
   40POPC  H15Y 5436   0.715   5.835   8.203  0.2503 -0.3832  0.2712
   40POPC  C316 5437   0.760   6.027   8.288  0.2074  0.2602  1.0205
   40POPC  H16X 5438   0.834   6.109   8.289 -0.5338  0.9786 -0.2618
   40POPC  H16Y 5439   0.739   5.999   8.394  0.3904  0.1371  1.0266
   40POPC  H16Z 5440   0.667   6.071   8.245  0.0512 -1.5919 -0.6942
   41CHL1    C3 5441   4.315   3.897  10.024  0.3512 -0.3267  0.6486
   41CHL1    H3 5442   4.223   3.956  10.006 -1.1807 -2.2104  1.8674
   41CHL1    O3 5443   4.325   3.894  10.170 -0.0462  0.5737 -0.3205
   41CHL1   H3' 5444   4.389   3.823  10.179 -0.3392  0.3545  0.0388
   41CHL1    C4 5445   4.308   3.760   9.967 -0.1298  0.1744  0.0441
   41CHL1   H4A 5446   4.398   3.702   9.997 -0.0486  1.5709  2.7797
   41CHL1   H4B 5447   4.224   3.708  10.017  0.4393 -0.3936  0.4215
   41CHL1    C5 5448   4.294   3.767   9.816  0.1126  0.0535 -0.4289
   41CHL1    C6 5449   4.185   3.721   9.757  0.2662  0.4319  0.4426
   41CHL1    H6 5450   4.096   3.693   9.816 -0.3875 -1.3938 -1.2784
   41CHL1    C7 5451   4.180   3.699   9.607  0.1247  0.3018 -0.0187
   41CHL1   H7A 5452   4.140   3.596   9.593  1.8378 -0.4399  0.2186
   41CHL1   H7B 5453   4.096   3.764   9.575  0.7422  1.9465  1.5260
   41CHL1    C8 5454   4.311   3.721   9.527  0.0022  0.0068 -0.4344
   41CHL1    H8 5455   4.384   3.637   9.539 -0.9379 -0.7660  0.0179
   41CHL1   C14 5456   4.283   3.737   9.377 -0.1746 -0.5076 -0.3170
   41CHL1   H14 5457   4.216   3.825   9.380 -0.2370 -0.5854  1.3413
   41CHL1   C15 5458   4.210   3.620   9.311 -0.3530 -0.0286 -0.4446
   41CHL1  H15A 5459   4.270   3.531   9.339  0.3563  0.2763 -0.9654
   41CHL1  H15B 5460   4.104   3.619   9.344  0.0184  4.4773  1.6428
   41CHL1   C16 5461   4.232   3.660   9.162 -0.2974  0.2607  0.7590
   41CHL1  H16A 5462   4.283   3.569   9.125  3.3823  1.9602  1.2421
   41CHL1  H16B 5463   4.144   3.695   9.103  0.8715  0.1993 -1.0729
   41CHL1   C17 5464   4.341   3.771   9.155  0.6490 -0.3172 -0.5581
   41CHL1   H17 5465   4.297   3.870   9.130 -0.3207 -0.7842 -0.7136
   41CHL1   C13 5466   4.404   3.768   9.293  0.0635 -0.0732  0.9910
   41CHL1   C18 5467   4.510   3.659   9.300 -0.7743  0.7284  0.3456
   41CHL1  H18A 5468   4.607   3.692   9.258 -1.5289  0.1367 -1.9952
   41CHL1  H18B 5469   4.551   3.634   9.400  1.0495  0.3429 -0.4703
   41CHL1  H18C 5470   4.487   3.571   9.236 -0.9694  2.2113 -1.7285
   41CHL1   C12 5471   4.459   3.906   9.347  1.3935  0.3263  0.0089
   41CHL1  H12A 5472   4.531   3.946   9.272 -0.1342  2.4220 -0.4157
   41CHL1  H12B 5473   4.372   3.975   9.355  2.0199  1.0740  0.3991
   41CHL1   C11 5474   4.504   3.885   9.494  0.0971 -0.2231  0.0093
   41CHL1  H11A 5475   4.590   3.817   9.512  0.9811  0.9878  0.4852
   41CHL1  H11B 5476   4.538   3.986   9.523 -0.7325  0.4683 -1.3198
   41CHL1    C9 5477   4.384   3.845   9.586  0.1359  0.7457  0.4837
   41CHL1    H9 5478   4.317   3.933   9.574  1.8560  2.2428  1.3260
   41CHL1   C10 5479   4.411   3.835   9.743  0.5704  0.7468 -0.5698
   41CHL1   C19 5480   4.540   3.740   9.755 -0.9036 -0.0835  0.2369
   41CHL1  H19A 5481   4.627   3.798   9.716 -1.3021  0.1421 -0.3263
   41CHL1  H19B 5482   4.570   3.709   9.857 -0.9837 -3.0153 -0.5503
   41CHL1  H19C 5483   4.536   3.647   9.695  0.7894 -0.5147  0.7496
   41CHL1    C1 5484   4.440   3.975   9.806 -0.0564 -0.4858 -0.2048
   41CHL1   H1A 5485   4.534   4.002   9.753 -0.4137 -0.4763 -0.8451
   41CHL1   H1B 5486   4.356   4.042   9.776 -0.9805 -0.4161  2.2547
   41CHL1    C2 5487   4.441   3.970   9.960 -0.9064 -0.0074 -0.2471
   41CHL1   H2A 5488   4.453   4.074   9.997  0.2287 -0.8276  1.9219
   41CHL1   H2B 5489   4.533   3.926  10.006 -0.9196  0.0945 -0.1221
   41CHL1   C20 5490   4.431   3.753   9.037  0.2360  0.7563  0.3808
   41CHL1   H20 5491   4.462   3.646   9.032  0.2286  0.6528  2.1776
   41CHL1   C21 5492   4.562   3.840   9.041  0.1274  0.3633 -0.1188
   41CHL1  H21A 5493   4.630   3.810   8.958 -0.1271  2.4039 -1.1222
   41CHL1  H21B 5494   4.621   3.835   9.135 -0.7448  1.1671  0.4783
   41CHL1  H21C 5495   4.532   3.946   9.033 -0.5261  0.4045  2.3035
   41CHL1   C22 5496   4.351   3.768   8.899 -0.3713  0.0319  0.1477
   41CHL1  H22A 5497   4.282   3.681   8.892 -0.8975  0.3694  1.1248
   41CHL1  H22B 5498   4.291   3.861   8.895 -0.2320  0.0856 -1.6364
   41CHL1   C23 5499   4.435   3.767   8.765  0.0846 -0.8178 -0.0055
   41CHL1  H23A 5500   4.490   3.863   8.772 -1.6701  0.5711 -3.3296
   41CHL1  H23B 5501   4.510   3.686   8.781  0.2647 -0.2104  2.7170
   41CHL1   C24 5502   4.349   3.741   8.642 -0.1300 -0.1176 -0.2952
   41CHL1  H24A 5503   4.307   3.640   8.663  1.2999 -0.5573  0.6240
   41CHL1  H24B 5504   4.261   3.807   8.650 -0.1251  0.2125 -2.3054
   41CHL1   C25 5505   4.410   3.743   8.497 -0.3282 -0.3268  0.3134
   41CHL1   H25 5506   4.329   3.714   8.426 -1.1869  1.4386  0.5244
   41CHL1   C26 5507   4.483   3.874   8.457 -0.0523 -0.0493 -0.1271
   41CHL1  H26A 5508   4.567   3.902   8.524  1.0893  1.8079 -2.1587
   41CHL1  H26B 5509   4.516   3.864   8.351 -0.7312 -0.4342 -0.3094
   41CHL1  H26C 5510   4.416   3.963   8.460 -0.6768 -0.5125 -0.2748
   41CHL1   C27 5511   4.504   3.621   8.476 -0.0778 -0.1325  0.0751
   41CHL1  H27A 5512   4.605   3.642   8.519  0.2387  0.7155 -1.0482
   41CHL1  H27B 5513   4.462   3.527   8.517 -2.0445  0.8957  0.5258
   41CHL1  H27C 5514   4.526   3.609   8.368  1.9794 -3.5112  0.6853
   42CHL1    C3 5515   4.894   1.981   9.762 -0.2065 -0.3575 -0.1267
   42CHL1    H3 5516   4.932   2.085   9.772 -0.7792 -0.2393  0.9491
   42CHL1    O3 5517   4.857   1.925   9.887  0.0053  0.0783 -0.1811
   42CHL1   H3' 5518   4.770   1.963   9.903  1.3189  3.6497 -0.4983
   42CHL1    C4 5519   4.762   1.978   9.670  0.2797 -0.4212  0.1381
   42CHL1   H4A 5520   4.718   1.877   9.680 -2.4637  0.6282 -0.3702
   42CHL1   H4B 5521   4.695   2.045   9.729  1.0345  0.4351  0.0584
   42CHL1    C5 5522   4.803   2.015   9.523  0.0758 -0.4551  0.0012
   42CHL1    C6 5523   4.747   2.126   9.471  0.8028  0.2475 -0.5428
   42CHL1    H6 5524   4.668   2.185   9.521 -0.1520  0.2818 -2.0239
   42CHL1    C7 5525   4.771   2.162   9.328  0.0750  0.7976  0.0083
   42CHL1   H7A 5526   4.686   2.191   9.262  0.5055  1.5623 -0.2321
   42CHL1   H7B 5527   4.834   2.253   9.317 -0.3044  0.8153 -2.7984
   42CHL1    C8 5528   4.838   2.054   9.247 -0.8631 -0.1280  0.2315
   42CHL1    H8 5529   4.760   1.977   9.229 -2.4370  1.0175  1.8696
   42CHL1   C14 5530   4.897   2.110   9.118 -0.7568  0.7908  0.0473
   42CHL1   H14 5531   4.976   2.181   9.151  0.0887  1.5361 -3.2411
   42CHL1   C15 5532   4.797   2.184   9.026 -0.0713  0.3658  0.1559
   42CHL1  H15A 5533   4.713   2.115   9.002 -0.0623  0.3663  0.1241
   42CHL1  H15B 5534   4.769   2.286   9.059 -3.5533  0.4331 -2.4542
   42CHL1   C16 5535   4.865   2.183   8.890 -0.3736 -0.6573  0.2923
   42CHL1  H16A 5536   4.788   2.149   8.817  1.5515 -0.2726 -2.0175
   42CHL1  H16B 5537   4.896   2.285   8.861  0.8908 -1.2965 -0.7211
   42CHL1   C17 5538   4.992   2.098   8.905  0.4211 -0.1743  0.1440
   42CHL1   H17 5539   5.068   2.173   8.937 -1.5636  2.1444 -0.3041
   42CHL1   C13 5540   4.974   2.005   9.027 -0.0178  0.1998 -0.8016
   42CHL1   C18 5541   4.892   1.881   8.986 -0.4830 -0.8645  0.6686
   42CHL1  H18A 5542   4.948   1.798   8.938  1.4515 -1.4677  3.7106
   42CHL1  H18B 5543   4.831   1.835   9.067  0.5360 -2.3382  0.6320
   42CHL1  H18C 5544   4.825   1.910   8.902  1.4406  0.3526 -0.5067
   42CHL1   C12 5545   5.099   1.981   9.110 -0.0090 -0.1403 -0.2483
   42CHL1  H12A 5546   5.172   1.916   9.057  0.8886  1.1614 -0.6360
   42CHL1  H12B 5547   5.152   2.076   9.128  0.8728 -0.4482 -1.1222
   42CHL1   C11 5548   5.057   1.900   9.239  0.8037 -0.3925 -0.0706
   42CHL1  H11A 5549   5.011   1.804   9.208  0.6332 -1.2466  2.5751
   42CHL1  H11B 5550   5.144   1.868   9.300  0.2712 -1.0982  0.3394
   42CHL1    C9 5551   4.960   1.994   9.330 -0.8004 -0.1580 -0.2857
   42CHL1    H9 5552   5.026   2.080   9.351  1.2687 -1.4409 -1.2878
   42CHL1   C10 5553   4.918   1.934   9.469  0.4666 -0.2502 -0.3238
   42CHL1   C19 5554   4.874   1.787   9.444 -0.4893 -0.0040  0.7160
   42CHL1  H19A 5555   4.807   1.740   9.518 -0.9157  0.8829  0.9082
   42CHL1  H19B 5556   4.804   1.788   9.358 -0.6590 -1.3967  0.8203
   42CHL1  H19C 5557   4.948   1.713   9.407 -0.8867  0.9439 -2.2599
   42CHL1    C1 5558   5.040   1.940   9.565 -0.0251  0.7755  0.1922
   42CHL1   H1A 5559   5.122   1.878   9.523 -0.9458 -0.4167  0.0926
   42CHL1   H1B 5560   5.085   2.042   9.567  0.3887  0.5884  0.9383
   42CHL1    C2 5561   5.004   1.895   9.709  0.2417  0.1933  0.2139
   42CHL1   H2A 5562   5.095   1.890   9.773  0.4148 -0.2254 -0.0659
   42CHL1   H2B 5563   4.957   1.795   9.696  2.0726 -0.3810 -3.3503
   42CHL1   C20 5564   5.037   2.034   8.769 -0.0503 -0.1456 -0.0232
   42CHL1   H20 5565   4.966   1.950   8.753 -0.2727  0.0867 -0.2547
   42CHL1   C21 5566   5.182   1.970   8.780  0.7059  0.1177 -0.6824
   42CHL1  H21A 5567   5.186   1.873   8.835 -1.0954 -0.0783 -0.8223
   42CHL1  H21B 5568   5.245   2.043   8.833 -0.3809 -0.2208  1.1764
   42CHL1  H21C 5569   5.224   1.960   8.677  1.5356 -0.7439 -0.2705
   42CHL1   C22 5570   5.028   2.118   8.638  0.2134 -0.5966 -0.0682
   42CHL1  H22A 5571   5.043   2.058   8.545 -2.1755 -1.4419  0.0163
   42CHL1  H22B 5572   4.923   2.153   8.646  1.1989  2.6633 -0.2615
   42CHL1   C23 5573   5.119   2.239   8.627 -0.5436  0.7082  0.3335
   42CHL1  H23A 5574   5.086   2.310   8.705 -0.5541 -1.1213  2.0856
   42CHL1  H23B 5575   5.220   2.204   8.658 -0.9346 -0.9948 -0.1695
   42CHL1   C24 5576   5.135   2.297   8.487  0.3576 -0.4491  0.2771
   42CHL1  H24A 5577   5.226   2.359   8.486  0.0349  0.0243 -0.3280
   42CHL1  H24B 5578   5.170   2.224   8.411 -1.4584 -0.5354 -0.5425
   42CHL1   C25 5579   5.012   2.380   8.438 -0.7143  0.5164  0.2807
   42CHL1   H25 5580   5.050   2.430   8.346  1.3167 -1.4290 -0.0184
   42CHL1   C26 5581   4.887   2.296   8.388 -0.9927  1.0260 -0.3102
   42CHL1  H26A 5582   4.924   2.220   8.316 -1.2706 -2.2808  2.7611
   42CHL1  H26B 5583   4.860   2.236   8.478 -0.1222  0.3683 -0.4765
   42CHL1  H26C 5584   4.799   2.357   8.358 -1.4666  0.2235 -0.5748
   42CHL1   C27 5585   4.985   2.496   8.538 -0.0796  0.1314  0.6767
   42CHL1  H27A 5586   5.075   2.556   8.562  1.0923 -1.7207  1.1552
   42CHL1  H27B 5587   4.916   2.568   8.488  1.0361  1.4231  0.9499
   42CHL1  H27C 5588   4.951   2.452   8.634  0.9119 -0.1122  0.9233
   43CHL1    C3 5589   6.484   2.482   9.793 -0.1578 -0.0223 -0.4243
   43CHL1    H3 5590   6.571   2.552   9.789 -0.0350 -0.1937 -0.7287
   43CHL1    O3 5591   6.505   2.387   9.898 -0.8360  0.0156  0.0516
   43CHL1   H3' 5592   6.510   2.435   9.981 -2.9631 -1.1929  0.9699
   43CHL1    C4 5593   6.359   2.567   9.811  1.0228 -0.6074 -0.4960
   43CHL1   H4A 5594   6.265   2.510   9.826  1.3106 -0.4625  2.4645
   43CHL1   H4B 5595   6.370   2.627   9.904  0.7067  1.7304 -1.8951
   43CHL1    C5 5596   6.340   2.664   9.697  1.3415  0.2423  0.0059
   43CHL1    C6 5597   6.325   2.795   9.720 -0.1730  0.5651 -1.0207
   43CHL1    H6 5598   6.335   2.833   9.823  0.4146 -1.1146 -0.4267
   43CHL1    C7 5599   6.293   2.888   9.610 -0.3577 -0.5752 -0.3997
   43CHL1   H7A 5600   6.208   2.955   9.634  0.0905  1.5511 -4.0329
   43CHL1   H7B 5601   6.375   2.957   9.581  0.7231 -2.5098 -2.2511
   43CHL1    C8 5602   6.256   2.820   9.470  0.0629 -0.0220 -0.3870
   43CHL1    H8 5603   6.149   2.794   9.484  0.2021  0.5669  2.1560
   43CHL1   C14 5604   6.278   2.919   9.357 -0.3296 -0.0012  0.9502
   43CHL1   H14 5605   6.387   2.941   9.346 -0.4038 -0.1690 -0.2892
   43CHL1   C15 5606   6.230   3.064   9.380  0.5387  0.1330 -0.0456
   43CHL1  H15A 5607   6.133   3.062   9.434 -0.1891 -1.0675 -1.3464
   43CHL1  H15B 5608   6.296   3.132   9.438 -1.0032  1.1259  0.6118
   43CHL1   C16 5609   6.216   3.118   9.241  0.0572  0.1079  0.5929
   43CHL1  H16A 5610   6.118   3.168   9.227  0.6551  1.6784  1.7074
   43CHL1  H16B 5611   6.296   3.191   9.217  0.6015 -0.1131  1.6809
   43CHL1   C17 5612   6.256   2.998   9.136  0.6217 -0.5465 -0.5590
   43CHL1   H17 5613   6.367   2.999   9.131  0.6870  0.3813  0.7586
   43CHL1   C13 5614   6.229   2.867   9.214  0.3339  0.0426  0.0329
   43CHL1   C18 5615   6.079   2.844   9.207  0.3571  0.9072  0.1436
   43CHL1  H18A 5616   6.060   2.802   9.106  1.2023  3.0955 -1.0094
   43CHL1  H18B 5617   6.051   2.775   9.289  1.2822 -0.2378 -0.4695
   43CHL1  H18C 5618   6.018   2.937   9.208 -0.5920  0.3074  2.1179
   43CHL1   C12 5619   6.312   2.740   9.181 -0.2079  0.5972 -0.9729
   43CHL1  H12A 5620   6.286   2.692   9.084  2.4656  1.5078 -2.2250
   43CHL1  H12B 5621   6.420   2.764   9.170 -0.3209  0.8487 -1.5525
   43CHL1   C11 5622   6.310   2.641   9.304 -0.1324 -0.1503  0.5994
   43CHL1  H11A 5623   6.202   2.617   9.315 -0.3000  1.0208  1.7647
   43CHL1  H11B 5624   6.372   2.551   9.288 -2.1100 -1.7318  1.4245
   43CHL1    C9 5625   6.345   2.695   9.445  0.4545 -0.4394 -0.5859
   43CHL1    H9 5626   6.451   2.728   9.436  0.7410 -0.2986  2.3259
   43CHL1   C10 5627   6.339   2.594   9.552 -0.0347 -0.9903  0.3182
   43CHL1   C19 5628   6.214   2.504   9.530  0.0416 -0.4550  0.0667
   43CHL1  H19A 5629   6.123   2.564   9.508  0.0130  0.1388  1.6908
   43CHL1  H19B 5630   6.234   2.434   9.446  1.2872  0.4431 -0.4200
   43CHL1  H19C 5631   6.191   2.447   9.623 -2.2632  2.2046  1.2715
   43CHL1    C1 5632   6.458   2.496   9.549  0.7821 -0.5288  0.4951
   43CHL1   H1A 5633   6.461   2.437   9.454  2.5224 -1.0338  0.8256
   43CHL1   H1B 5634   6.553   2.555   9.553  0.9800 -0.7731 -0.2769
   43CHL1    C2 5635   6.468   2.396   9.664  0.0617 -0.4824  1.0922
   43CHL1   H2A 5636   6.561   2.335   9.652  0.1185 -0.1797 -0.1473
   43CHL1   H2B 5637   6.377   2.333   9.676  1.6415 -2.8518  1.4592
   43CHL1   C20 5638   6.195   3.018   8.994 -0.3011  0.4742  0.5567
   43CHL1   H20 5639   6.085   3.001   8.994 -0.4371  1.2527 -0.3736
   43CHL1   C21 5640   6.262   2.910   8.902  0.0216  0.4718 -0.2293
   43CHL1  H21A 5641   6.235   2.929   8.796  3.9602 -0.4661 -1.5718
   43CHL1  H21B 5642   6.231   2.805   8.921  0.5316  0.2201 -0.7503
   43CHL1  H21C 5643   6.371   2.914   8.920 -0.2143 -0.9797  2.0001
   43CHL1   C22 5644   6.214   3.156   8.931  0.7160 -0.4586 -0.2694
   43CHL1  H22A 5645   6.193   3.236   9.004  0.9271 -1.2444  0.6774
   43CHL1  H22B 5646   6.319   3.177   8.903  0.7258 -0.0220  0.0888
   43CHL1   C23 5647   6.119   3.195   8.813 -0.5453  0.9350 -0.1597
   43CHL1  H23A 5648   6.106   3.105   8.749 -0.9089 -0.7761  2.2123
   43CHL1  H23B 5649   6.017   3.202   8.857 -1.2492 -2.5579 -0.9298
   43CHL1   C24 5650   6.148   3.326   8.729  0.3799  0.5191 -0.7744
   43CHL1  H24A 5651   6.171   3.401   8.808 -4.0582  0.0162  1.3068
   43CHL1  H24B 5652   6.232   3.303   8.661 -1.0547  0.4066 -2.5818
   43CHL1   C25 5653   6.034   3.381   8.642 -0.1383  0.0420  0.4697
   43CHL1   H25 5654   6.017   3.301   8.567 -0.9853 -0.5610  1.2723
   43CHL1   C26 5655   5.903   3.416   8.723  0.2578 -0.5975 -0.1239
   43CHL1  H26A 5656   5.850   3.323   8.753 -0.7545  0.3211  1.0429
   43CHL1  H26B 5657   5.934   3.483   8.807  0.9182 -1.2413  0.1578
   43CHL1  H26C 5658   5.847   3.475   8.647  0.0903 -0.7872 -0.1484
   43CHL1   C27 5659   6.086   3.506   8.575  0.4101 -0.1497  0.0376
   43CHL1  H27A 5660   6.185   3.494   8.526  0.5576  3.5652 -0.8551
   43CHL1  H27B 5661   6.021   3.550   8.496  0.0943  0.4602  0.6268
   43CHL1  H27C 5662   6.094   3.589   8.647 -0.3978 -0.6502  0.7185
   44CHL1    C3 5663   3.491   0.939  10.260  0.2914 -0.3946  0.5877
   44CHL1    H3 5664   3.474   1.049  10.264  1.9682 -0.1239  0.7611
   44CHL1    O3 5665   3.467   0.890  10.386  0.2137 -0.3766  0.4157
   44CHL1   H3' 5666   3.434   0.971  10.424  1.2059  0.9053 -1.2818
   44CHL1    C4 5667   3.382   0.887  10.164  0.3509 -0.1643  0.0392
   44CHL1   H4A 5668   3.376   0.777  10.178  0.0908 -0.1865 -0.2617
   44CHL1   H4B 5669   3.288   0.940  10.189  0.9810  0.0398  2.1833
   44CHL1    C5 5670   3.411   0.916  10.019  0.1247  0.3267 -0.4598
   44CHL1    C6 5671   3.315   0.974   9.937  0.0976  0.1227 -0.4912
   44CHL1    H6 5672   3.214   0.995   9.977  0.9187  0.2415  1.6961
   44CHL1    C7 5673   3.329   0.990   9.792 -0.7586 -0.3219  0.3378
   44CHL1   H7A 5674   3.241   0.956   9.734 -0.1117 -0.6551 -0.4868
   44CHL1   H7B 5675   3.342   1.096   9.763  2.6403 -0.3115  1.3987
   44CHL1    C8 5676   3.465   0.922   9.740 -0.1480 -0.1762 -0.6587
   44CHL1    H8 5677   3.448   0.812   9.742  0.1791 -0.2250  0.8302
   44CHL1   C14 5678   3.494   0.958   9.595 -0.1163  0.0917 -0.8977
   44CHL1   H14 5679   3.518   1.067   9.586  1.0350 -0.0043  0.5442
   44CHL1   C15 5680   3.382   0.947   9.496  0.3320 -0.7043  0.1170
   44CHL1  H15A 5681   3.332   0.848   9.496  2.8446 -2.1690 -3.1151
   44CHL1  H15B 5682   3.314   1.035   9.506  0.7714 -0.1711 -1.3306
   44CHL1   C16 5683   3.466   0.953   9.362  0.5675 -0.1175 -0.2332
   44CHL1  H16A 5684   3.433   0.864   9.305 -2.3655  2.3218 -2.7457
   44CHL1  H16B 5685   3.432   1.033   9.293 -1.4717  0.4448  1.3121
   44CHL1   C17 5686   3.620   0.954   9.390 -0.2952 -0.3086 -0.6171
   44CHL1   H17 5687   3.635   1.064   9.393  0.4160 -0.4260  1.1190
   44CHL1   C13 5688   3.620   0.895   9.533  0.6687  0.1051 -0.7417
   44CHL1   C18 5689   3.604   0.740   9.527 -0.7582 -0.2991 -0.4430
   44CHL1  H18A 5690   3.693   0.703   9.472  0.8218  0.8116  1.2622
   44CHL1  H18B 5691   3.608   0.688   9.625  0.5266  1.0104  0.2353
   44CHL1  H18C 5692   3.517   0.711   9.464 -0.0591 -0.6719 -1.2510
   44CHL1   C12 5693   3.740   0.945   9.623 -0.0100  0.2197 -0.5871
   44CHL1  H12A 5694   3.833   0.897   9.587  0.2894 -0.5947  1.1751
   44CHL1  H12B 5695   3.749   1.055   9.610  3.9011  0.1293  0.2588
   44CHL1   C11 5696   3.727   0.912   9.773  0.8601 -1.1067 -0.3020
   44CHL1  H11A 5697   3.727   0.800   9.772  0.9411 -1.1096 -0.0501
   44CHL1  H11B 5698   3.809   0.944   9.840 -1.7057  2.0924  1.5882
   44CHL1    C9 5699   3.589   0.956   9.829 -0.6697  0.0583  0.2979
   44CHL1    H9 5700   3.591   1.067   9.837  0.8599  0.0349  0.5430
   44CHL1   C10 5701   3.554   0.896   9.965  0.0375 -0.3110  0.5400
   44CHL1   C19 5702   3.576   0.742   9.974  0.2981 -0.2152 -0.4063
   44CHL1  H19A 5703   3.538   0.699  10.069 -0.0287 -0.0134 -0.4430
   44CHL1  H19B 5704   3.522   0.686   9.895 -0.7925 -0.9814  0.8359
   44CHL1  H19C 5705   3.683   0.717   9.989  0.1477  0.6170  2.7829
   44CHL1    C1 5706   3.651   0.959  10.066  0.1034 -0.2195 -0.6176
   44CHL1   H1A 5707   3.753   0.943  10.026 -0.1051  0.8402 -1.6096
   44CHL1   H1B 5708   3.646   1.069  10.076  1.1870 -0.2049 -0.0858
   44CHL1    C2 5709   3.631   0.909  10.214 -0.3672  0.1834 -0.2971
   44CHL1   H2A 5710   3.716   0.960  10.265  1.0541 -2.1979 -0.1739
   44CHL1   H2B 5711   3.659   0.803  10.226 -1.0864 -0.0166 -0.3674
   44CHL1   C20 5712   3.700   0.884   9.278 -0.1176  0.0211 -1.0611
   44CHL1   H20 5713   3.692   0.773   9.275 -1.5980  0.1178 -1.5421
   44CHL1   C21 5714   3.850   0.910   9.311  0.7956 -0.1522 -0.0177
   44CHL1  H21A 5715   3.861   1.014   9.347 -2.0083  0.1856  0.0794
   44CHL1  H21B 5716   3.923   0.905   9.228 -0.2228  0.9186 -1.0177
   44CHL1  H21C 5717   3.879   0.845   9.397  0.5888 -0.0521  0.1290
   44CHL1   C22 5718   3.654   0.935   9.138  0.9639  0.0734 -0.3258
   44CHL1  H22A 5719   3.552   0.903   9.109  0.2142  1.7464  0.3465
   44CHL1  H22B 5720   3.658   1.046   9.132  1.6264 -0.0459 -3.3287
   44CHL1   C23 5721   3.741   0.890   9.021  0.7019 -0.4357  0.1876
   44CHL1  H23A 5722   3.849   0.911   9.028  0.7041 -0.8222  1.6527
   44CHL1  H23B 5723   3.737   0.779   9.013  0.1275 -0.3126 -1.4922
   44CHL1   C24 5724   3.679   0.921   8.883 -0.9733 -0.2696  0.4549
   44CHL1  H24A 5725   3.571   0.894   8.874 -1.1012  0.6109 -0.8548
   44CHL1  H24B 5726   3.684   1.031   8.868 -0.9099 -0.3491 -0.1291
   44CHL1   C25 5727   3.750   0.852   8.758 -0.1303  0.1743  0.7608
   44CHL1   H25 5728   3.734   0.744   8.778 -3.3236  0.4863  0.4800
   44CHL1   C26 5729   3.675   0.883   8.628 -0.1504 -0.0139 -0.0540
   44CHL1  H26A 5730   3.676   0.992   8.605 -0.8577  0.2759  1.2315
   44CHL1  H26B 5731   3.723   0.819   8.551 -0.8006 -2.6230  1.6099
   44CHL1  H26C 5732   3.569   0.850   8.622 -0.4694  1.0954 -1.4032
   44CHL1   C27 5733   3.902   0.876   8.758 -0.3038 -0.3441  0.1726
   44CHL1  H27A 5734   3.946   0.822   8.845  0.8765 -0.0108 -0.2035
   44CHL1  H27B 5735   3.943   0.832   8.665 -0.3405  3.3926 -1.7692
   44CHL1  H27C 5736   3.925   0.984   8.751  0.6013 -0.4026  1.6334
   45CHL1    C3 5737   3.441   0.245  10.049  0.8965 -0.3351 -0.3764
   45CHL1    H3 5738   3.424   0.136  10.032  2.8412 -0.7268 -0.0712
   45CHL1    O3 5739   3.458   0.273  10.191  0.0268 -0.4952 -0.1699
   45CHL1   H3' 5740   3.527   0.337  10.211 -1.9549  1.4968  0.7080
   45CHL1    C4 5741   3.580   0.259   9.981 -0.3770  0.0965  0.5307
   45CHL1   H4A 5742   3.605   0.363  10.012 -0.9307  0.0624  1.1213
   45CHL1   H4B 5743   3.649   0.186  10.029 -0.2041  0.2542  0.5252
   45CHL1    C5 5744   3.572   0.251   9.828 -0.5111 -0.3051 -0.1576
   45CHL1    C6 5745   3.670   0.178   9.761 -0.8575  0.4627 -0.2968
   45CHL1    H6 5746   3.752   0.136   9.822 -2.0133  1.5326  2.1243
   45CHL1    C7 5747   3.675   0.160   9.609 -0.3157 -0.3207 -0.0531
   45CHL1   H7A 5748   3.757   0.224   9.570  0.9578 -0.7453  1.7552
   45CHL1   H7B 5749   3.718   0.059   9.590  0.8224  0.6444 -3.2549
   45CHL1    C8 5750   3.543   0.197   9.529 -0.2029 -0.1648 -0.1826
   45CHL1    H8 5751   3.529   0.099   9.478  1.5383  0.2887 -1.6194
   45CHL1   C14 5752   3.563   0.304   9.422  0.5704  0.2626 -0.3207
   45CHL1   H14 5753   3.579   0.404   9.466 -0.1804 -0.6105  2.0955
   45CHL1   C15 5754   3.684   0.281   9.321  0.3389 -0.1956  0.5816
   45CHL1  H15A 5755   3.776   0.338   9.344  0.5783 -1.3571  2.8087
   45CHL1  H15B 5756   3.710   0.174   9.333 -1.5074 -0.5764  1.6638
   45CHL1   C16 5757   3.638   0.310   9.176  0.6797 -0.5507 -0.0270
   45CHL1  H16A 5758   3.644   0.418   9.152 -1.3035 -0.0724  1.3549
   45CHL1  H16B 5759   3.694   0.241   9.109 -0.9112 -3.8821  1.8218
   45CHL1   C17 5760   3.491   0.265   9.192  0.0640  0.0921 -0.1223
   45CHL1   H17 5761   3.499   0.157   9.215  1.1107 -0.0595 -1.0857
   45CHL1   C13 5762   3.442   0.317   9.328 -0.8761  0.1242  0.1576
   45CHL1   C18 5763   3.410   0.468   9.306  0.2195  1.0618 -0.3030
   45CHL1  H18A 5764   3.357   0.489   9.211  0.2970 -1.1111 -0.8773
   45CHL1  H18B 5765   3.357   0.505   9.397 -1.7136 -2.5930  0.2320
   45CHL1  H18C 5766   3.507   0.522   9.295  1.7873 -1.2215  1.2946
   45CHL1   C12 5767   3.318   0.239   9.384  0.0432  0.2003 -0.1209
   45CHL1  H12A 5768   3.229   0.281   9.332  0.3932  0.2923 -0.6452
   45CHL1  H12B 5769   3.335   0.132   9.360  0.3373 -0.2710  2.0093
   45CHL1   C11 5770   3.304   0.270   9.530  0.6396 -0.6204 -1.0445
   45CHL1  H11A 5771   3.272   0.376   9.540  2.2868 -0.1859 -0.0321
   45CHL1  H11B 5772   3.219   0.208   9.568  0.8114  0.3645  1.0635
   45CHL1    C9 5773   3.419   0.224   9.619  0.4761  0.6518 -0.2660
   45CHL1    H9 5774   3.389   0.123   9.654  1.4869  0.1535 -0.8011
   45CHL1   C10 5775   3.444   0.307   9.757  0.4965  0.4397  0.0572
   45CHL1   C19 5776   3.477   0.453   9.721  0.0182  0.1182 -0.0319
   45CHL1  H19A 5777   3.481   0.511   9.815  0.8403 -1.8551  1.2164
   45CHL1  H19B 5778   3.578   0.460   9.676  0.2379  0.8002  0.5642
   45CHL1  H19C 5779   3.400   0.493   9.652  2.3908  1.0779 -2.2802
   45CHL1    C1 5780   3.312   0.303   9.850 -0.6061 -0.0855  0.1901
   45CHL1   H1A 5781   3.218   0.348   9.812 -1.6533 -1.4378  1.0803
   45CHL1   H1B 5782   3.284   0.196   9.839  1.0776 -0.5534  0.1360
   45CHL1    C2 5783   3.329   0.334   9.996 -0.8206 -0.0975 -0.1408
   45CHL1   H2A 5784   3.239   0.296  10.049  0.8365 -2.3275  1.2541
   45CHL1   H2B 5785   3.348   0.443  10.011 -0.5810 -0.3631  1.7615
   45CHL1   C20 5786   3.395   0.266   9.071 -0.2895  0.0270 -0.2482
   45CHL1   H20 5787   3.297   0.281   9.121 -0.3319 -1.1961  0.0630
   45CHL1   C21 5788   3.400   0.127   9.007  0.6823  1.0288  0.3244
   45CHL1  H21A 5789   3.342   0.058   9.073  1.6349  3.0494  3.4872
   45CHL1  H21B 5790   3.500   0.079   8.997 -0.4673 -1.5319  0.1913
   45CHL1  H21C 5791   3.352   0.125   8.907 -2.1478 -2.6113  1.5054
   45CHL1   C22 5792   3.421   0.382   8.974 -0.1056  0.5184 -0.0167
   45CHL1  H22A 5793   3.465   0.466   9.030 -1.8762  1.3909  0.1375
   45CHL1  H22B 5794   3.494   0.345   8.898 -1.9625 -0.4937 -1.4057
   45CHL1   C23 5795   3.290   0.428   8.912  0.1762 -0.5741 -0.3561
   45CHL1  H23A 5796   3.225   0.350   8.868 -1.1590  0.8554 -1.0288
   45CHL1  H23B 5797   3.230   0.480   8.990 -2.7627 -2.7096 -1.0423
   45CHL1   C24 5798   3.314   0.542   8.798 -0.4708  0.2650  0.2808
   45CHL1  H24A 5799   3.215   0.564   8.753  0.3223  0.1140 -1.6082
   45CHL1  H24B 5800   3.370   0.626   8.845  0.3835 -0.5567  0.7535
   45CHL1   C25 5801   3.393   0.467   8.680  0.2622  0.3419 -0.2850
   45CHL1   H25 5802   3.491   0.436   8.724 -0.0083 -0.8417 -0.4964
   45CHL1   C26 5803   3.316   0.343   8.622  0.5939 -0.8170 -0.1103
   45CHL1  H26A 5804   3.332   0.263   8.697  2.4315  0.1821  0.6191
   45CHL1  H26B 5805   3.212   0.367   8.589 -0.0114 -0.9727  1.5967
   45CHL1  H26C 5806   3.366   0.319   8.525 -1.0919  0.7543 -1.4567
   45CHL1   C27 5807   3.421   0.570   8.561  0.3453 -0.0796  0.4825
   45CHL1  H27A 5808   3.493   0.645   8.601 -1.2355  2.0860 -0.4823
   45CHL1  H27B 5809   3.477   0.525   8.476 -0.4731 -1.0654  0.4458
   45CHL1  H27C 5810   3.329   0.623   8.528  0.7629 -0.8853 -2.2216
   46CHL1    C3 5811   0.410   3.904   9.763 -0.2241  0.8035 -0.2786
   46CHL1    H3 5812   0.492   3.869   9.829 -1.3660  2.3942  2.1513
   46CHL1    O3 5813   0.322   3.975   9.847 -0.6470 -0.2011  0.2404
   46CHL1   H3' 5814   0.363   3.962   9.933 -0.9623  1.4190  0.6751
   46CHL1    C4 5815   0.470   3.993   9.648  0.4551  0.4237 -0.6640
   46CHL1   H4A 5816   0.378   4.029   9.597  0.5584  0.8550 -0.5421
   46CHL1   H4B 5817   0.518   4.084   9.689 -0.6387  1.3269 -1.3245
   46CHL1    C5 5818   0.550   3.907   9.554  0.3495 -0.7622  0.2279
   46CHL1    C6 5819   0.681   3.935   9.530  0.6244 -0.5160 -0.9813
   46CHL1    H6 5820   0.722   4.029   9.569  0.5762  0.1047 -2.3546
   46CHL1    C7 5821   0.775   3.870   9.429 -0.0603 -0.1632  0.1215
   46CHL1   H7A 5822   0.836   3.946   9.377  0.9640 -1.2384 -0.2893
   46CHL1   H7B 5823   0.855   3.813   9.482  0.7868 -1.9593 -2.8276
   46CHL1    C8 5824   0.697   3.769   9.336  0.2217  0.2724 -0.7658
   46CHL1    H8 5825   0.643   3.844   9.274  0.6895  1.1120 -0.1756
   46CHL1   C14 5826   0.789   3.671   9.260 -0.3164  0.8964 -0.1518
   46CHL1   H14 5827   0.835   3.604   9.335 -0.5085  0.4703 -0.4090
   46CHL1   C15 5828   0.910   3.722   9.183  0.3470  0.2415 -0.5363
   46CHL1  H15A 5829   0.868   3.815   9.137 -0.6585 -0.5649 -1.3047
   46CHL1  H15B 5830   0.997   3.744   9.248  1.1099 -0.7631 -1.1907
   46CHL1   C16 5831   0.938   3.618   9.075 -0.1600  0.1651  0.0093
   46CHL1  H16A 5832   0.925   3.660   8.973 -0.9604 -0.4177 -0.1486
   46CHL1  H16B 5833   1.043   3.587   9.091 -0.3710 -1.0909 -0.8769
   46CHL1   C17 5834   0.836   3.501   9.096  0.1285  0.0376  0.1261
   46CHL1   H17 5835   0.866   3.442   9.186 -1.3623 -0.0273  0.6049
   46CHL1   C13 5836   0.714   3.575   9.160  0.2984  0.2879  0.5488
   46CHL1   C18 5837   0.643   3.670   9.063 -0.2445  0.0459  0.0757
   46CHL1  H18A 5838   0.716   3.736   9.012  0.1039  0.1375  0.6939
   46CHL1  H18B 5839   0.602   3.615   8.975 -0.0479 -0.2626  0.1757
   46CHL1  H18C 5840   0.566   3.734   9.112 -0.0374 -0.7298  1.4801
   46CHL1   C12 5841   0.616   3.496   9.241 -0.1855  0.4960 -0.6180
   46CHL1  H12A 5842   0.550   3.426   9.185  0.5118  0.7360 -1.7737
   46CHL1  H12B 5843   0.670   3.432   9.314 -0.4322  0.5325 -0.4044
   46CHL1   C11 5844   0.517   3.581   9.327  0.6252 -0.8461 -0.1031
   46CHL1  H11A 5845   0.437   3.629   9.267  0.4041 -0.3421  0.5788
   46CHL1  H11B 5846   0.475   3.504   9.395 -1.1514 -0.7413 -1.0158
   46CHL1    C9 5847   0.591   3.692   9.416  0.6645  1.1048  0.2643
   46CHL1    H9 5848   0.647   3.637   9.495  0.7581  0.0667 -0.5053
   46CHL1   C10 5849   0.486   3.782   9.491 -0.4261 -0.4622 -0.1907
   46CHL1   C19 5850   0.393   3.840   9.375 -0.2946  0.0944  0.3835
   46CHL1  H19A 5851   0.439   3.840   9.274  0.6550  2.6400  0.7489
   46CHL1  H19B 5852   0.308   3.770   9.365 -1.2424  1.3223 -0.4904
   46CHL1  H19C 5853   0.347   3.940   9.389 -0.8078  0.0103 -0.6384
   46CHL1    C1 5854   0.410   3.703   9.596 -0.0679 -0.3067 -0.0213
   46CHL1   H1A 5855   0.344   3.626   9.549  1.2425 -0.4732 -1.6803
   46CHL1   H1B 5856   0.466   3.641   9.670  0.3027  0.0290 -0.0213
   46CHL1    C2 5857   0.331   3.789   9.694  0.3655 -0.2119 -1.1167
   46CHL1   H2A 5858   0.291   3.714   9.766 -0.4916  1.9792  0.7764
   46CHL1   H2B 5859   0.256   3.842   9.633  1.0035  2.5143  0.3321
   46CHL1   C20 5860   0.811   3.408   8.976  0.5640  0.4252 -0.0687
   46CHL1   H20 5861   0.749   3.462   8.901  0.0863 -0.4476 -0.3157
   46CHL1   C21 5862   0.728   3.285   9.019 -0.5432  0.3927  0.2920
   46CHL1  H21A 5863   0.729   3.217   8.931  0.1976 -1.7847  1.8852
   46CHL1  H21B 5864   0.622   3.303   9.045 -0.5122  1.0560 -0.0125
   46CHL1  H21C 5865   0.776   3.228   9.101 -0.9872 -1.6494 -0.8007
   46CHL1   C22 5866   0.940   3.377   8.898 -0.3125  0.0840 -0.1279
   46CHL1  H22A 5867   0.916   3.332   8.800 -2.0704  2.7689 -1.0493
   46CHL1  H22B 5868   0.990   3.472   8.868  1.7890 -1.2574 -1.1626
   46CHL1   C23 5869   1.047   3.293   8.978 -0.2193  0.1453  0.0413
   46CHL1  H23A 5870   1.053   3.339   9.079 -2.8222  2.1803 -0.6218
   46CHL1  H23B 5871   0.999   3.195   8.995 -3.6106  1.9045  1.4650
   46CHL1   C24 5872   1.179   3.259   8.903  0.3650 -0.2636 -0.0164
   46CHL1  H24A 5873   1.205   3.335   8.826  0.5358 -1.5043 -1.2125
   46CHL1  H24B 5874   1.258   3.256   8.982  0.7322  3.8470  0.0148
   46CHL1   C25 5875   1.179   3.121   8.837  0.3024 -0.0546 -0.4825
   46CHL1   H25 5876   1.168   3.044   8.916 -2.0837 -1.7387 -2.3012
   46CHL1   C26 5877   1.059   3.104   8.737  0.6878 -0.3324 -0.1391
   46CHL1  H26A 5878   1.070   3.004   8.689  1.6887  0.1448 -0.9307
   46CHL1  H26B 5879   0.969   3.105   8.802  1.1383  1.8303  0.5373
   46CHL1  H26C 5880   1.054   3.181   8.658  0.6488 -0.4364 -0.2366
   46CHL1   C27 5881   1.314   3.095   8.762 -0.6332  0.2940 -0.0734
   46CHL1  H27A 5882   1.398   3.091   8.834 -0.2946  0.8229 -0.4374
   46CHL1  H27B 5883   1.311   2.998   8.708 -0.5301  0.3883 -0.2464
   46CHL1  H27C 5884   1.329   3.183   8.696 -3.7125  1.6912  0.8689
   47CHL1    C3 5885   1.365   0.058  10.018 -0.3324  0.0777 -0.1612
   47CHL1    H3 5886   1.375   0.167   9.997 -2.8497  0.3431 -0.3513
   47CHL1    O3 5887   1.319   0.046  10.152 -0.2119 -0.0310  0.0048
   47CHL1   H3' 5888   1.379   0.098  10.205  1.8946 -1.7282 -0.5947
   47CHL1    C4 5889   1.257   0.004   9.921  0.3326 -0.6950  0.7240
   47CHL1   H4A 5890   1.236  -0.102   9.947 -1.0294 -0.4821  0.5693
   47CHL1   H4B 5891   1.158   0.045   9.950  0.9512  0.2005  1.6524
   47CHL1    C5 5892   1.286   0.011   9.773  0.0890 -0.1481 -0.1838
   47CHL1    C6 5893   1.205   0.091   9.691  0.9444  0.3807  0.9771
   47CHL1    H6 5894   1.109   0.130   9.729 -0.6421 -1.2315 -1.0722
   47CHL1    C7 5895   1.229   0.120   9.543  0.6985  0.0143 -1.1128
   47CHL1   H7A 5896   1.132   0.118   9.490  0.5278  0.5678 -0.8244
   47CHL1   H7B 5897   1.255   0.227   9.534 -0.8698  0.4926 -0.3152
   47CHL1    C8 5898   1.342   0.030   9.489  0.3347 -0.1772  0.0596
   47CHL1    H8 5899   1.292  -0.066   9.465 -1.0064  1.0606 -2.3770
   47CHL1   C14 5900   1.402   0.087   9.361  0.0625  0.0704  0.7077
   47CHL1   H14 5901   1.463   0.176   9.386  0.9020 -0.3552  0.2039
   47CHL1   C15 5902   1.309   0.142   9.248 -0.8214  0.9281 -0.1311
   47CHL1  H15A 5903   1.235   0.063   9.223  0.7431 -1.2530  1.7544
   47CHL1  H15B 5904   1.261   0.240   9.269  0.1755  1.2365  0.7774
   47CHL1   C16 5905   1.400   0.161   9.129  0.1076  0.5581  0.5224
   47CHL1  H16A 5906   1.353   0.120   9.038  0.1349 -1.0963  1.2264
   47CHL1  H16B 5907   1.416   0.270   9.109 -1.0316  0.2057 -2.8444
   47CHL1   C17 5908   1.535   0.094   9.166 -0.0796 -1.3867  0.0342
   47CHL1   H17 5909   1.599   0.177   9.203  1.1210 -0.8620 -2.8907
   47CHL1   C13 5910   1.510   0.007   9.288 -0.1277  0.2777  0.5659
   47CHL1   C18 5911   1.451  -0.134   9.248 -1.1744 -0.0856  0.3326
   47CHL1  H18A 5912   1.375  -0.100   9.174 -0.1759  1.6364  0.0437
   47CHL1  H18B 5913   1.531  -0.188   9.193  0.0064  1.4873  0.4312
   47CHL1  H18C 5914   1.413  -0.196   9.332 -1.4344 -0.2617  0.0867
   47CHL1   C12 5915   1.621  -0.015   9.386 -0.3537 -0.7055  0.4276
   47CHL1  H12A 5916   1.714  -0.064   9.350  0.4403  1.0519 -0.0231
   47CHL1  H12B 5917   1.664   0.085   9.408  0.6730 -0.6474 -1.6345
   47CHL1   C11 5918   1.574  -0.072   9.523 -0.7962  0.2969  0.3727
   47CHL1  H11A 5919   1.545  -0.177   9.500 -3.5459  1.0898 -0.1907
   47CHL1  H11B 5920   1.663  -0.067   9.589 -0.3181  0.9476 -0.3044
   47CHL1    C9 5921   1.461   0.008   9.591  0.0248  0.0479 -0.1038
   47CHL1    H9 5922   1.509   0.108   9.595  3.7687 -1.5487 -0.4852
   47CHL1   C10 5923   1.424  -0.043   9.728 -0.5306 -0.0884  0.0020
   47CHL1   C19 5924   1.420  -0.197   9.716  0.1530  0.1106  0.3919
   47CHL1  H19A 5925   1.362  -0.246   9.798  2.5415 -3.3465  0.2317
   47CHL1  H19B 5926   1.373  -0.228   9.620 -0.8141  1.8859  0.2398
   47CHL1  H19C 5927   1.521  -0.242   9.719  0.0493 -0.1618 -0.0807
   47CHL1    C1 5928   1.533  -0.007   9.832  0.0187  0.2486 -0.4855
   47CHL1   H1A 5929   1.621  -0.072   9.815 -1.3495 -1.5002 -1.1142
   47CHL1   H1B 5930   1.547   0.104   9.836 -1.0945  0.3950  3.1095
   47CHL1    C2 5931   1.486  -0.020   9.983 -0.4377 -0.4155  0.1610
   47CHL1   H2A 5932   1.573  -0.006  10.050  1.0753 -2.2446 -1.3173
   47CHL1   H2B 5933   1.460  -0.128   9.989 -0.6555 -0.3909 -0.3458
   47CHL1   C20 5934   1.612   0.027   9.049 -0.0754 -0.0443 -0.3691
   47CHL1   H20 5935   1.554  -0.065   9.026  0.1268 -0.5918  1.1740
   47CHL1   C21 5936   1.757   0.006   9.096 -0.4051 -0.2099 -0.0204
   47CHL1  H21A 5937   1.756  -0.090   9.153 -1.2750 -0.1466  0.0785
   47CHL1  H21B 5938   1.789   0.097   9.151  3.0970 -1.3511  0.1188
   47CHL1  H21C 5939   1.827  -0.005   9.010 -1.9688 -0.5542 -1.2927
   47CHL1   C22 5940   1.619   0.110   8.920  0.5798 -0.7293  0.6114
   47CHL1  H22A 5941   1.680   0.057   8.844  0.2671  0.0186 -0.1755
   47CHL1  H22B 5942   1.515   0.116   8.883  1.6148 -1.2663 -2.7110
   47CHL1   C23 5943   1.682   0.246   8.933 -0.3190  0.6723  0.4378
   47CHL1  H23A 5944   1.622   0.315   8.997 -0.9352 -2.3892  3.5156
   47CHL1  H23B 5945   1.782   0.237   8.980  0.6410 -0.4523 -1.7021
   47CHL1   C24 5946   1.689   0.313   8.799  0.0280  0.5217 -0.0914
   47CHL1  H24A 5947   1.775   0.275   8.741  1.0554  2.6401 -0.0581
   47CHL1  H24B 5948   1.598   0.272   8.751 -0.5830 -2.8497  3.4010
   47CHL1   C25 5949   1.666   0.462   8.792 -0.1590  0.2244  0.2343
   47CHL1   H25 5950   1.562   0.473   8.830  0.2537  0.5287  1.3228
   47CHL1   C26 5951   1.766   0.544   8.874 -0.3120  0.8034  0.1330
   47CHL1  H26A 5952   1.726   0.647   8.882 -1.9943  0.6739 -4.1119
   47CHL1  H26B 5953   1.866   0.531   8.827  0.1676  0.4040  1.2277
   47CHL1  H26C 5954   1.778   0.499   8.976 -0.6937 -2.1641 -1.0155
   47CHL1   C27 5955   1.681   0.515   8.649  0.7442 -0.4424 -0.2174
   47CHL1  H27A 5956   1.629   0.449   8.575 -0.0217  0.1321 -0.2053
   47CHL1  H27B 5957   1.644   0.619   8.641 -1.6658 -1.1877  0.3923
   47CHL1  H27C 5958   1.784   0.508   8.610  1.0087 -1.7097  0.6159
   48CHL1    C3 5959   1.609   1.238   9.915  0.5480  0.4750  0.4312
   48CHL1    H3 5960   1.702   1.296   9.899  0.6377  0.2608  0.1621
   48CHL1    O3 5961   1.590   1.222  10.054  0.0318 -0.0752  0.6138
   48CHL1   H3' 5962   1.555   1.306  10.082 -3.9254 -0.9372 -1.0541
   48CHL1    C4 5963   1.486   1.302   9.852  0.3918  0.2448 -0.1113
   48CHL1   H4A 5964   1.393   1.248   9.879  0.4424  0.8902  1.4791
   48CHL1   H4B 5965   1.475   1.406   9.890 -0.5445  0.9742 -2.2328
   48CHL1    C5 5966   1.498   1.307   9.703  0.5401 -0.2069  0.0597
   48CHL1    C6 5967   1.484   1.424   9.641 -0.7897 -0.6173 -0.0348
   48CHL1    H6 5968   1.472   1.514   9.704 -1.8331  0.1561 -1.2800
   48CHL1    C7 5969   1.506   1.447   9.493 -0.0683  0.1069  0.6508
   48CHL1   H7A 5970   1.436   1.522   9.450 -1.8224 -2.1709 -0.6884
   48CHL1   H7B 5971   1.605   1.494   9.476 -0.6217  0.4972 -1.8109
   48CHL1    C8 5972   1.482   1.310   9.418  0.4001  0.2143 -0.1988
   48CHL1    H8 5973   1.375   1.283   9.421  0.1579  0.9152 -1.6778
   48CHL1   C14 5974   1.519   1.340   9.273 -0.0224  0.2840  0.4010
   48CHL1   H14 5975   1.628   1.362   9.273  0.1011  0.2229 -2.9284
   48CHL1   C15 5976   1.449   1.452   9.198  0.1561 -0.3232 -0.0229
   48CHL1  H15A 5977   1.339   1.441   9.201 -0.3214  3.0826 -0.5163
   48CHL1  H15B 5978   1.489   1.550   9.233  1.8198  0.1234 -2.8043
   48CHL1   C16 5979   1.493   1.422   9.053 -0.2067 -0.2689  0.2056
   48CHL1  H16A 5980   1.406   1.432   8.984  0.3253  1.7689 -0.2383
   48CHL1  H16B 5981   1.563   1.494   9.005 -0.2689 -0.9743 -0.9832
   48CHL1   C17 5982   1.554   1.277   9.039 -0.5767 -0.1815  0.1177
   48CHL1   H17 5983   1.663   1.290   9.055 -0.3345 -3.5524  2.2222
   48CHL1   C13 5984   1.513   1.212   9.174  0.8388  0.1823  0.4672
   48CHL1   C18 5985   1.362   1.163   9.169  0.3099  0.3833 -0.9246
   48CHL1  H18A 5986   1.350   1.056   9.142  1.5975  0.3894 -1.5976
   48CHL1  H18B 5987   1.316   1.161   9.270 -1.0730  1.1926 -1.5021
   48CHL1  H18C 5988   1.299   1.236   9.115  0.0201  0.8553  0.0279
   48CHL1   C12 5989   1.597   1.103   9.237  0.0531  0.0365 -0.0486
   48CHL1  H12A 5990   1.592   1.009   9.177 -0.1682 -1.3995  2.1068
   48CHL1  H12B 5991   1.698   1.150   9.234 -1.1428  2.7629 -1.1171
   48CHL1   C11 5992   1.564   1.070   9.386 -0.6256 -0.4992  0.2650
   48CHL1  H11A 5993   1.458   1.036   9.383 -0.2392 -1.8858  1.2711
   48CHL1  H11B 5994   1.631   0.991   9.426 -0.8889 -0.3294  1.0702
   48CHL1    C9 5995   1.565   1.191   9.483  0.5019 -0.5973  0.0517
   48CHL1    H9 5996   1.672   1.222   9.486  0.6128 -0.9445  3.5084
   48CHL1   C10 5997   1.535   1.179   9.634 -0.2439 -0.2973  0.6422
   48CHL1   C19 5998   1.404   1.089   9.653  0.1629 -1.0633 -0.1792
   48CHL1  H19A 5999   1.376   1.093   9.760 -0.0670  1.9884 -0.2871
   48CHL1  H19B 6000   1.327   1.144   9.595 -0.9542 -1.9140  0.4406
   48CHL1  H19C 6001   1.426   0.993   9.601  0.4846 -1.7490  1.1769
   48CHL1    C1 6002   1.652   1.105   9.709 -0.3066 -0.4686 -0.4822
   48CHL1   H1A 6003   1.682   1.009   9.662  0.3225  0.7537 -2.7065
   48CHL1   H1B 6004   1.746   1.155   9.679  0.3662 -1.0639  0.5828
   48CHL1    C2 6005   1.639   1.101   9.858  0.6248  0.6431 -0.1047
   48CHL1   H2A 6006   1.730   1.055   9.903  0.6139  1.1010  0.4008
   48CHL1   H2B 6007   1.554   1.032   9.880  0.3096  0.8707 -0.5838
   48CHL1   C20 6008   1.529   1.211   8.908  1.1164 -0.3121  0.6974
   48CHL1   H20 6009   1.418   1.205   8.896  1.1181 -1.8627  1.2310
   48CHL1   C21 6010   1.599   1.074   8.903 -0.0909  0.0511  0.0621
   48CHL1  H21A 6011   1.603   1.034   8.800 -0.4021 -1.9215  0.7745
   48CHL1  H21B 6012   1.542   0.998   8.959 -0.2999 -0.6519 -1.0824
   48CHL1  H21C 6013   1.704   1.086   8.938  0.9315 -2.8541 -1.6979
   48CHL1   C22 6014   1.564   1.311   8.790  0.6405  0.8543 -0.6191
   48CHL1  H22A 6015   1.486   1.388   8.772 -0.9997 -0.7370 -0.5155
   48CHL1  H22B 6016   1.659   1.359   8.824  1.0683  0.2114 -0.9037
   48CHL1   C23 6017   1.582   1.240   8.659 -0.3154 -0.5007 -0.2107
   48CHL1  H23A 6018   1.676   1.182   8.648 -0.2058 -0.0830 -1.6122
   48CHL1  H23B 6019   1.499   1.168   8.640 -1.0493 -0.0963  1.2903
   48CHL1   C24 6020   1.580   1.347   8.551  0.9803 -0.1227  0.3283
   48CHL1  H24A 6021   1.477   1.385   8.539  0.7185 -0.9987 -0.3529
   48CHL1  H24B 6022   1.655   1.423   8.583  0.0812  0.3403  1.3824
   48CHL1   C25 6023   1.607   1.297   8.408  0.1435 -0.0535  0.0100
   48CHL1   H25 6024   1.702   1.240   8.405  0.5756  0.6482 -2.6163
   48CHL1   C26 6025   1.507   1.190   8.364 -0.1619  0.4134  0.1228
   48CHL1  H26A 6026   1.524   1.106   8.435 -1.0010  1.4759  1.6192
   48CHL1  H26B 6027   1.404   1.231   8.362  0.2007  1.3549  0.4438
   48CHL1  H26C 6028   1.529   1.155   8.260 -0.9636  0.7481 -0.1643
   48CHL1   C27 6029   1.609   1.408   8.314 -0.1692  0.6425  0.5058
   48CHL1  H27A 6030   1.637   1.369   8.214 -0.6599 -1.2065  1.0612
   48CHL1  H27B 6031   1.506   1.448   8.301 -0.5059 -0.7976 -1.8311
   48CHL1  H27C 6032   1.685   1.486   8.338 -0.8851  0.5099  3.6193
   49CHL1    C3 6033   6.464   1.513  10.092  0.4328 -0.5347  0.2059
   49CHL1    H3 6034   6.467   1.624  10.085  1.1693 -0.4736  1.3093
   49CHL1    O3 6035   6.470   1.473  10.223 -0.0827 -0.4416 -0.1417
   49CHL1   H3' 6036   6.531   1.538  10.258 -0.2698  0.6133 -1.6883
   49CHL1    C4 6037   6.335   1.455  10.028 -0.4577  0.3604 -0.2283
   49CHL1   H4A 6038   6.334   1.346  10.049 -2.4889  0.4742  0.4395
   49CHL1   H4B 6039   6.250   1.489  10.091  1.1985  1.6777  1.4432
   49CHL1    C5 6040   6.316   1.498   9.886 -0.1097 -0.5321  0.2464
   49CHL1    C6 6041   6.224   1.587   9.847 -0.3084  0.7303  0.9985
   49CHL1    H6 6042   6.150   1.625   9.918 -0.2217 -2.4644  2.9840
   49CHL1    C7 6043   6.199   1.622   9.701 -0.6150 -0.2072 -0.3433
   49CHL1   H7A 6044   6.096   1.592   9.671 -0.8772 -1.3296  1.5399
   49CHL1   H7B 6045   6.223   1.729   9.679 -1.8002 -0.2404 -2.0475
   49CHL1    C8 6046   6.286   1.545   9.600 -0.0939 -0.2885  0.2782
   49CHL1    H8 6047   6.252   1.440   9.587 -0.9986  0.2989 -2.9840
   49CHL1   C14 6048   6.311   1.614   9.465  0.3398 -0.8215  0.1391
   49CHL1   H14 6049   6.360   1.707   9.500 -1.4647 -0.0397  0.6707
   49CHL1   C15 6050   6.184   1.660   9.398  0.4633 -0.2403  0.5908
   49CHL1  H15A 6051   6.100   1.588   9.404 -0.3439  0.1537 -3.2823
   49CHL1  H15B 6052   6.153   1.766   9.410  1.2232  0.0233  0.3014
   49CHL1   C16 6053   6.217   1.667   9.244  0.2173  0.7661  0.5369
   49CHL1  H16A 6054   6.161   1.588   9.190  0.6615 -0.3608  1.6476
   49CHL1  H16B 6055   6.202   1.770   9.206  0.6473  0.2085 -1.2209
   49CHL1   C17 6056   6.378   1.629   9.238 -0.0816 -1.0705  0.0597
   49CHL1   H17 6057   6.418   1.730   9.261 -1.6670 -0.4414  0.2253
   49CHL1   C13 6058   6.402   1.545   9.360  0.1564 -0.0349 -0.0957
   49CHL1   C18 6059   6.357   1.399   9.340  0.4653  0.7457  0.0055
   49CHL1  H18A 6060   6.249   1.402   9.317  0.3668  1.7500  0.5442
   49CHL1  H18B 6061   6.410   1.343   9.260 -0.4712 -0.8573  0.4637
   49CHL1  H18C 6062   6.355   1.327   9.425  1.0566 -1.7093 -1.9319
   49CHL1   C12 6063   6.539   1.554   9.430 -0.8333  0.9270  0.2309
   49CHL1  H12A 6064   6.624   1.510   9.373 -1.3409 -1.9594  1.5606
   49CHL1  H12B 6065   6.561   1.661   9.452 -2.1266  1.0016  1.2437
   49CHL1   C11 6066   6.538   1.477   9.554 -0.4444 -1.0472  0.5062
   49CHL1  H11A 6067   6.537   1.368   9.533 -0.9476 -0.8550 -0.5798
   49CHL1  H11B 6068   6.635   1.492   9.606 -0.0243 -0.7243 -0.3455
   49CHL1    C9 6069   6.430   1.526   9.655  0.1879  0.3206 -1.1659
   49CHL1    H9 6070   6.466   1.627   9.680  1.0954  0.1329 -1.6660
   49CHL1   C10 6071   6.428   1.453   9.788 -0.0266 -0.5919 -0.1144
   49CHL1   C19 6072   6.407   1.303   9.769 -0.1041  0.9883  0.1687
   49CHL1  H19A 6073   6.392   1.243   9.861 -0.8295  0.0467 -0.5395
   49CHL1  H19B 6074   6.319   1.277   9.706 -0.3650 -0.7529  1.1866
   49CHL1  H19C 6075   6.493   1.257   9.715  0.2472  0.9382  0.7551
   49CHL1    C1 6076   6.569   1.477   9.857 -0.5500  0.0726  0.2430
   49CHL1   H1A 6077   6.644   1.415   9.803  0.0456  0.5814  0.4733
   49CHL1   H1B 6078   6.604   1.581   9.842 -0.3800  0.3378  2.2295
   49CHL1    C2 6079   6.573   1.457  10.011 -0.3686 -0.0223  0.0172
   49CHL1   H2A 6080   6.673   1.492  10.045 -0.1534  0.7367 -1.3157
   49CHL1   H2B 6081   6.570   1.347  10.019  0.2141  0.0142  0.9112
   49CHL1   C20 6082   6.422   1.582   9.100 -0.0693  0.1327 -0.0310
   49CHL1   H20 6083   6.382   1.480   9.079  0.2625  0.4659 -2.5378
   49CHL1   C21 6084   6.578   1.576   9.094  0.4198 -0.1999 -0.4795
   49CHL1  H21A 6085   6.622   1.677   9.108  1.0805 -0.5579  0.1044
   49CHL1  H21B 6086   6.613   1.540   8.995 -2.5429  0.8295 -2.0066
   49CHL1  H21C 6087   6.623   1.511   9.173 -2.7407  0.2421  1.8705
   49CHL1   C22 6088   6.355   1.667   8.982  0.2185  0.3437  0.4884
   49CHL1  H22A 6089   6.248   1.637   8.991  0.0252  1.0523  0.6299
   49CHL1  H22B 6090   6.357   1.777   8.999 -3.5931  0.6030  0.2219
   49CHL1   C23 6091   6.398   1.628   8.841 -0.4628  0.1413  0.5450
   49CHL1  H23A 6092   6.509   1.624   8.837 -0.4234  0.8483  0.7929
   49CHL1  H23B 6093   6.375   1.520   8.832  0.5539 -0.0234 -0.1463
   49CHL1   C24 6094   6.334   1.706   8.728  0.1418 -0.0547 -0.7453
   49CHL1  H24A 6095   6.233   1.739   8.760  1.0151  0.9288  1.1642
   49CHL1  H24B 6096   6.396   1.798   8.719 -1.8890  1.3582 -1.0411
   49CHL1   C25 6097   6.321   1.634   8.597 -0.6204 -0.3659  0.4417
   49CHL1   H25 6098   6.241   1.557   8.609  0.1478 -1.0817  1.1764
   49CHL1   C26 6099   6.274   1.719   8.479  0.4279  0.5320 -0.0843
   49CHL1  H26A 6100   6.350   1.792   8.442 -0.0848  1.2315  0.2112
   49CHL1  H26B 6101   6.237   1.648   8.402  1.8587 -1.2087  0.7594
   49CHL1  H26C 6102   6.186   1.776   8.516  0.7330  0.4568  0.7731
   49CHL1   C27 6103   6.441   1.547   8.561 -1.2446  0.3355  0.0052
   49CHL1  H27A 6104   6.490   1.497   8.647 -2.7096 -2.4661 -0.6619
   49CHL1  H27B 6105   6.424   1.477   8.476  0.6727  0.5319 -0.5914
   49CHL1  H27C 6106   6.515   1.615   8.514 -1.6956  0.4237 -0.5822
   50CHL1    C3 6107   5.470   5.763  10.000  0.1802  0.1855 -0.2084
   50CHL1    H3 6108   5.577   5.744   9.976  0.3088 -0.5981  0.8515
   50CHL1    O3 6109   5.439   5.731  10.138 -0.3315 -0.0223 -0.6261
   50CHL1   H3' 6110   5.445   5.815  10.183 -4.1356 -1.0786  2.4340
   50CHL1    C4 6111   5.440   5.911   9.980 -0.1482 -0.5548 -0.1233
   50CHL1   H4A 6112   5.336   5.934  10.009 -0.2300  0.8258 -1.4292
   50CHL1   H4B 6113   5.510   5.963  10.050  1.9553 -1.4170 -1.4715
   50CHL1    C5 6114   5.453   5.956   9.834  0.2271  0.8099 -0.3737
   50CHL1    C6 6115   5.532   6.058   9.802 -0.1262  0.0487  0.0111
   50CHL1    H6 6116   5.569   6.117   9.887 -1.6965  2.3705 -0.8334
   50CHL1    C7 6117   5.548   6.113   9.662  0.9603 -0.2910 -0.2484
   50CHL1   H7A 6118   5.528   6.222   9.671 -1.2328 -0.7099  0.6734
   50CHL1   H7B 6119   5.655   6.109   9.635  0.5453 -1.9041 -1.8354
   50CHL1    C8 6120   5.449   6.046   9.564 -1.2340 -0.4734  0.7642
   50CHL1    H8 6121   5.345   6.085   9.577 -1.6805 -1.9251  1.7267
   50CHL1   C14 6122   5.508   6.078   9.421  0.4957  0.1780  0.1612
   50CHL1   H14 6123   5.605   6.026   9.403 -0.4485 -0.8516 -2.3809
   50CHL1   C15 6124   5.535   6.220   9.385 -0.4927 -0.3175  0.0777
   50CHL1  H15A 6125   5.479   6.300   9.437  1.4654  0.6522  0.7567
   50CHL1  H15B 6126   5.640   6.248   9.406 -0.3699 -0.1541 -0.7204
   50CHL1   C16 6127   5.528   6.225   9.225  0.3359 -0.3675 -0.2120
   50CHL1  H16A 6128   5.437   6.281   9.195  0.3531 -1.2190 -1.9363
   50CHL1  H16B 6129   5.621   6.261   9.176  2.1164  0.1842  3.1988
   50CHL1   C17 6130   5.485   6.078   9.188 -0.1645  0.5846  0.5461
   50CHL1   H17 6131   5.577   6.020   9.166 -0.9339 -0.0502 -1.2000
   50CHL1   C13 6132   5.420   6.010   9.312 -0.1875  0.6334  0.1071
   50CHL1   C18 6133   5.279   6.058   9.315 -0.1520 -0.2444 -0.3780
   50CHL1  H18A 6134   5.230   6.044   9.414  1.1251 -0.9279  0.1932
   50CHL1  H18B 6135   5.277   6.169   9.309  0.6481 -0.0970  1.2526
   50CHL1  H18C 6136   5.225   5.997   9.240 -0.4405 -0.7979  0.2757
   50CHL1   C12 6137   5.434   5.856   9.337 -0.4124 -0.0533  0.5793
   50CHL1  H12A 6138   5.366   5.802   9.267  1.2460 -2.6502  0.8511
   50CHL1  H12B 6139   5.538   5.819   9.326 -1.6153 -3.3708 -1.0975
   50CHL1   C11 6140   5.377   5.812   9.473 -0.0609 -0.1996 -0.1566
   50CHL1  H11A 6141   5.268   5.831   9.474  0.1940  1.4531  0.5593
   50CHL1  H11B 6142   5.386   5.704   9.496 -2.6628 -0.5892 -0.7315
   50CHL1    C9 6143   5.441   5.895   9.588  0.7559  0.1991  0.3052
   50CHL1    H9 6144   5.542   5.851   9.597  0.1507 -0.8913  2.1243
   50CHL1   C10 6145   5.380   5.869   9.731 -0.1538  0.5302 -0.2771
   50CHL1   C19 6146   5.229   5.894   9.726  0.3231 -0.4856 -0.6948
   50CHL1  H19A 6147   5.197   5.995   9.695 -0.0646 -0.1536  0.7196
   50CHL1  H19B 6148   5.183   5.813   9.666 -0.9250  0.3433 -0.8874
   50CHL1  H19C 6149   5.185   5.877   9.826  0.8573 -3.7202 -0.8857
   50CHL1    C1 6150   5.403   5.721   9.764 -0.1485  0.0068  0.2974
   50CHL1   H1A 6151   5.329   5.663   9.704 -0.9995  2.1466 -0.8190
   50CHL1   H1B 6152   5.509   5.691   9.753 -0.1315  0.3318 -0.4838
   50CHL1    C2 6153   5.373   5.682   9.915  0.2386 -0.2710 -0.2991
   50CHL1   H2A 6154   5.389   5.573   9.924  0.8931 -0.3835 -2.4928
   50CHL1   H2B 6155   5.272   5.713   9.952  1.1331  1.2916  0.9591
   50CHL1   C20 6156   5.409   6.068   9.055  0.5203 -0.7132 -0.0120
   50CHL1   H20 6157   5.319   6.131   9.070  0.5948 -0.5268 -0.3544
   50CHL1   C21 6158   5.374   5.920   9.020 -0.6382 -0.5049  0.0604
   50CHL1  H21A 6159   5.296   5.873   9.082 -1.8325  2.2982  0.8298
   50CHL1  H21B 6160   5.463   5.854   9.029 -1.1458 -1.1084  0.6997
   50CHL1  H21C 6161   5.334   5.919   8.916  2.6391  1.6308 -1.4228
   50CHL1   C22 6162   5.483   6.135   8.933 -0.5344  0.0720 -0.0472
   50CHL1  H22A 6163   5.429   6.103   8.842  0.4947 -2.3433  0.1240
   50CHL1  H22B 6164   5.472   6.245   8.946 -3.3281 -0.0106 -1.0222
   50CHL1   C23 6165   5.635   6.091   8.906 -0.1276  0.4133  0.6010
   50CHL1  H23A 6166   5.696   6.095   8.998 -0.4893  0.6412  0.8346
   50CHL1  H23B 6167   5.632   5.988   8.864 -0.2809  0.7488 -0.2358
   50CHL1   C24 6168   5.703   6.182   8.802  0.5730 -0.7004 -0.4810
   50CHL1  H24A 6169   5.643   6.169   8.709 -0.6670 -0.8268  0.3195
   50CHL1  H24B 6170   5.692   6.287   8.836  1.1663 -1.6245  2.8980
   50CHL1   C25 6171   5.855   6.155   8.771 -0.1922 -0.2752 -0.4093
   50CHL1   H25 6172   5.888   6.218   8.686 -2.9288  0.7322 -0.8100
   50CHL1   C26 6173   5.940   6.197   8.889  0.3256 -0.4343 -0.1901
   50CHL1  H26A 6174   5.933   6.307   8.898  0.0423 -0.4326 -0.4204
   50CHL1  H26B 6175   5.922   6.145   8.986  0.9190 -0.1343  0.0818
   50CHL1  H26C 6176   6.048   6.180   8.871  0.4159 -2.0102  1.4644
   50CHL1   C27 6177   5.880   6.008   8.726 -0.0059 -0.3165 -0.5302
   50CHL1  H27A 6178   5.832   5.931   8.789 -0.9154 -1.4518 -2.5014
   50CHL1  H27B 6179   5.850   5.998   8.619 -0.8578  0.9362 -0.4378
   50CHL1  H27C 6180   5.990   5.991   8.724  0.2741  0.7394  2.0959
   51CHL1    C3 6181   4.350   0.069  10.053  0.0203 -0.0518 -0.0683
   51CHL1    H3 6182   4.367  -0.038  10.077  1.1057 -0.2604 -1.6524
   51CHL1    O3 6183   4.403   0.141  10.164 -0.0265  0.1225 -0.3550
   51CHL1   H3' 6184   4.338   0.193  10.212  0.0128 -0.7355  0.6538
   51CHL1    C4 6185   4.433   0.102   9.937  0.0517 -0.1712 -0.4026
   51CHL1   H4A 6186   4.445   0.210   9.919 -0.0224 -0.4987 -2.6211
   51CHL1   H4B 6187   4.533   0.064   9.966 -0.9088 -0.3905  3.1096
   51CHL1    C5 6188   4.382   0.037   9.806  0.2800 -0.1629 -0.1438
   51CHL1    C6 6189   4.467  -0.037   9.731  0.0272  0.7199 -0.5164
   51CHL1    H6 6190   4.574  -0.028   9.757  0.3056 -1.5016 -0.7216
   51CHL1    C7 6191   4.425  -0.085   9.589 -0.2963 -0.1732 -0.9280
   51CHL1   H7A 6192   4.504  -0.049   9.520 -1.7624  0.2079 -2.4727
   51CHL1   H7B 6193   4.427  -0.196   9.594  2.6936 -0.4426 -4.2945
   51CHL1    C8 6194   4.283  -0.033   9.537  0.2278  0.9439 -0.8729
   51CHL1    H8 6195   4.286   0.073   9.502 -4.0186  2.4540  2.4636
   51CHL1   C14 6196   4.239  -0.124   9.420  1.3608 -0.0559  0.2862
   51CHL1   H14 6197   4.234  -0.226   9.464 -0.4191  0.0326  0.3544
   51CHL1   C15 6198   4.337  -0.131   9.298 -0.3446  0.1884  0.2039
   51CHL1  H15A 6199   4.391  -0.039   9.267 -0.3441 -0.2597 -1.2121
   51CHL1  H15B 6200   4.405  -0.216   9.316 -1.3487  0.0011  4.0498
   51CHL1   C16 6201   4.237  -0.180   9.186  1.3189 -0.1098  0.2877
   51CHL1  H16A 6202   4.245  -0.099   9.110  0.1540 -0.3652 -0.1295
   51CHL1  H16B 6203   4.265  -0.277   9.140  1.4211  0.6852 -1.4238
   51CHL1   C17 6204   4.099  -0.183   9.242 -0.4844  0.4263  0.3109
   51CHL1   H17 6205   4.077  -0.280   9.291 -0.6317  0.3261  0.0493
   51CHL1   C13 6206   4.103  -0.086   9.359 -0.5976  0.1143 -0.2296
   51CHL1   C18 6207   4.107   0.053   9.302  0.3497  1.3298 -0.1284
   51CHL1  H18A 6208   4.198   0.068   9.240  0.4082 -0.6490 -0.5553
   51CHL1  H18B 6209   4.018   0.064   9.237  1.6136 -1.4381 -2.5218
   51CHL1  H18C 6210   4.099   0.134   9.378 -2.6353 -0.9057  2.2238
   51CHL1   C12 6211   4.003  -0.093   9.477  0.1709 -0.0309  0.3459
   51CHL1  H12A 6212   3.900  -0.064   9.448 -0.0093 -1.3891 -0.4944
   51CHL1  H12B 6213   4.001  -0.201   9.502  2.0213  0.0527  1.0081
   51CHL1   C11 6214   4.040  -0.020   9.605 -0.0057 -0.5323  0.6124
   51CHL1  H11A 6215   4.030   0.087   9.579  1.3967 -0.4201  0.5048
   51CHL1  H11B 6216   3.968  -0.043   9.686 -2.7675  2.4521 -0.7494
   51CHL1    C9 6217   4.186  -0.040   9.655 -0.1812  0.3831 -0.4538
   51CHL1    H9 6218   4.190  -0.143   9.696  0.6493 -0.3139 -2.1836
   51CHL1   C10 6219   4.233   0.046   9.774  0.5826  0.1546  0.8418
   51CHL1   C19 6220   4.210   0.198   9.732 -0.5187  0.0223 -0.1965
   51CHL1  H19A 6221   4.107   0.238   9.748  0.0199  1.4778 -0.3060
   51CHL1  H19B 6222   4.264   0.257   9.808 -0.9241 -1.2319  1.1126
   51CHL1  H19C 6223   4.254   0.228   9.635  0.2316 -0.5453 -0.0440
   51CHL1    C1 6224   4.147   0.024   9.907  0.3153 -0.2152 -0.0824
   51CHL1   H1A 6225   4.038   0.045   9.897 -0.1601 -2.3604  0.2254
   51CHL1   H1B 6226   4.161  -0.084   9.927  0.8063 -0.0925  0.2545
   51CHL1    C2 6227   4.197   0.095  10.036 -0.4543 -0.4186  0.4654
   51CHL1   H2A 6228   4.138   0.052  10.119 -1.6595  0.0183 -0.1359
   51CHL1   H2B 6229   4.172   0.204  10.038 -1.9854 -0.7554  0.8538
   51CHL1   C20 6230   3.993  -0.167   9.131  0.4960 -0.3255  0.1051
   51CHL1   H20 6231   4.007  -0.072   9.076 -0.8406  0.3016  0.8000
   51CHL1   C21 6232   3.854  -0.160   9.200  1.0967  0.5406 -0.0197
   51CHL1  H21A 6233   3.844  -0.055   9.233  0.1945 -0.3586  2.8834
   51CHL1  H21B 6234   3.835  -0.223   9.290 -0.5425  1.2284  0.1591
   51CHL1  H21C 6235   3.784  -0.185   9.118  0.5987 -0.2105  0.6172
   51CHL1   C22 6236   3.988  -0.279   9.031  0.0416 -0.5124  0.2492
   51CHL1  H22A 6237   3.907  -0.256   8.958  0.2084 -0.6676  0.0155
   51CHL1  H22B 6238   4.085  -0.285   8.978  1.0925  0.1779  1.9872
   51CHL1   C23 6239   3.957  -0.413   9.085  0.0421 -0.6025  0.0420
   51CHL1  H23A 6240   4.047  -0.453   9.137  3.1187  4.5480 -0.6814
   51CHL1  H23B 6241   3.862  -0.414   9.141  0.3437  0.1473  0.5872
   51CHL1   C24 6242   3.941  -0.514   8.971  0.5823 -0.4062  0.6935
   51CHL1  H24A 6243   3.843  -0.489   8.926  0.4911 -0.4853  0.8496
   51CHL1  H24B 6244   4.026  -0.494   8.902  1.7308 -2.0914  1.5587
   51CHL1   C25 6245   3.953  -0.660   9.007  0.2166  0.7189  0.2205
   51CHL1   H25 6246   4.047  -0.689   9.059 -0.2353 -3.2935 -0.9413
   51CHL1   C26 6247   3.831  -0.710   9.101 -0.4685 -0.5231  0.1463
   51CHL1  H26A 6248   3.822  -0.645   9.191 -0.7640 -0.1903 -0.1236
   51CHL1  H26B 6249   3.738  -0.701   9.041  0.1210  1.4710 -0.5309
   51CHL1  H26C 6250   3.863  -0.814   9.125  1.4819 -0.2055 -0.8775
   51CHL1   C27 6251   3.939  -0.738   8.875  0.2210  0.0545  0.0160
   51CHL1  H27A 6252   4.024  -0.707   8.811  0.6162 -2.9697 -1.0464
   51CHL1  H27B 6253   3.952  -0.846   8.895  0.3653  0.2187  0.8364
   51CHL1  H27C 6254   3.842  -0.715   8.825  0.0364  0.4568  0.5434
   52CHL1    C3 6255   2.218   6.284   9.966 -0.4434 -0.3446 -0.5797
   52CHL1    H3 6256   2.317   6.233   9.962 -0.1502  0.1855 -0.1430
   52CHL1    O3 6257   2.216   6.368  10.080  0.0616  0.1277 -0.0659
   52CHL1   H3' 6258   2.120   6.372  10.090 -0.1417 -0.3438 -1.5899
   52CHL1    C4 6259   2.178   6.359   9.838 -0.1722  0.2138 -0.1591
   52CHL1   H4A 6260   2.082   6.407   9.868  0.9263  1.4781  1.5370
   52CHL1   H4B 6261   2.230   6.453   9.810  0.2506 -0.1117 -0.4878
   52CHL1    C5 6262   2.164   6.268   9.721  0.6412 -0.2830 -0.5551
   52CHL1    C6 6263   2.234   6.291   9.606 -0.1736  0.4418  0.0183
   52CHL1    H6 6264   2.305   6.375   9.595 -1.3917  1.1991 -3.0580
   52CHL1    C7 6265   2.218   6.210   9.488  0.5999 -0.4612  1.2276
   52CHL1   H7A 6266   2.224   6.278   9.400  0.8681  1.5332  2.7303
   52CHL1   H7B 6267   2.308   6.145   9.487  0.6350 -0.4182  1.7987
   52CHL1    C8 6268   2.103   6.104   9.490 -0.0846  0.2909 -0.7818
   52CHL1    H8 6269   2.008   6.156   9.466 -1.4036 -0.6086  1.9749
   52CHL1   C14 6270   2.125   5.992   9.393  0.7982  0.9649  0.1025
   52CHL1   H14 6271   2.219   5.938   9.415 -0.4190 -0.7096  1.4779
   52CHL1   C15 6272   2.147   6.038   9.249 -0.1563 -0.0710 -0.2886
   52CHL1  H15A 6273   2.074   6.114   9.216 -1.0955  0.2217  2.2180
   52CHL1  H15B 6274   2.254   6.061   9.230 -0.5607 -0.3136 -3.2232
   52CHL1   C16 6275   2.114   5.902   9.170  0.6760  0.0926  0.0413
   52CHL1  H16A 6276   2.038   5.932   9.095  0.2378 -0.0870  0.4140
   52CHL1  H16B 6277   2.207   5.858   9.129  0.0702 -1.5241  0.3527
   52CHL1   C17 6278   2.058   5.805   9.274 -1.4009 -0.8495  0.1372
   52CHL1   H17 6279   2.146   5.754   9.319 -1.4250 -2.3437 -1.3845
   52CHL1   C13 6280   2.007   5.894   9.389 -0.7984  0.4812  0.1591
   52CHL1   C18 6281   1.877   5.965   9.342 -0.0173  0.0410  0.1685
   52CHL1  H18A 6282   1.839   6.029   9.425 -1.3715  0.2871 -0.6023
   52CHL1  H18B 6283   1.892   6.039   9.261  2.4430  1.4724  1.7904
   52CHL1  H18C 6284   1.799   5.891   9.312 -2.0304  2.1102 -0.0109
   52CHL1   C12 6285   2.003   5.822   9.528  0.0296  0.4937  0.0337
   52CHL1  H12A 6286   1.916   5.753   9.531  1.1445 -0.9364  1.8925
   52CHL1  H12B 6287   2.105   5.780   9.544  0.4863  0.9213 -1.6390
   52CHL1   C11 6288   1.985   5.927   9.635 -0.1715 -0.2037  0.1128
   52CHL1  H11A 6289   1.880   5.963   9.633  0.7425  2.8486  1.2451
   52CHL1  H11B 6290   1.997   5.878   9.735  2.1651  1.5250  0.7579
   52CHL1    C9 6291   2.086   6.045   9.631  0.0640 -0.0154  0.3338
   52CHL1    H9 6292   2.179   5.991   9.657 -0.3116 -1.0291 -0.3951
   52CHL1   C10 6293   2.067   6.156   9.738  0.0929 -0.1121 -0.3367
   52CHL1   C19 6294   1.926   6.215   9.729  0.7720 -0.7271  0.4920
   52CHL1  H19A 6295   1.853   6.132   9.746 -1.6747  0.8410 -1.6122
   52CHL1  H19B 6296   1.911   6.297   9.803 -0.9284 -0.7118  0.1632
   52CHL1  H19C 6297   1.902   6.265   9.633  0.4578  0.8187  1.3530
   52CHL1    C1 6298   2.087   6.083   9.872 -0.4291  0.1515 -0.1847
   52CHL1   H1A 6299   2.004   6.014   9.896  0.0998  0.1489  1.8204
   52CHL1   H1B 6300   2.171   6.011   9.872  1.4345  2.1950 -1.0985
   52CHL1    C2 6301   2.112   6.173   9.989  0.1581  0.9267 -0.3774
   52CHL1   H2A 6302   2.150   6.101  10.064 -1.1186  0.1694 -0.4205
   52CHL1   H2B 6303   2.013   6.213  10.022 -0.0908  0.2011 -0.2401
   52CHL1   C20 6304   1.970   5.695   9.217 -0.0414 -0.4499 -0.2054
   52CHL1   H20 6305   1.903   5.662   9.299 -1.0580  0.3633 -0.6863
   52CHL1   C21 6306   2.057   5.571   9.176 -0.2623 -0.1542 -0.0272
   52CHL1  H21A 6307   2.016   5.510   9.092  1.0520  0.8315 -1.4372
   52CHL1  H21B 6308   2.042   5.498   9.258 -2.9566 -3.3263 -2.9845
   52CHL1  H21C 6309   2.158   5.612   9.157 -0.1657 -0.5961 -0.4974
   52CHL1   C22 6310   1.892   5.734   9.089  1.4883  0.1340 -1.0317
   52CHL1  H22A 6311   1.860   5.839   9.110  0.6087 -0.6303  1.8705
   52CHL1  H22B 6312   1.961   5.740   9.002  2.9895 -0.0865  0.0945
   52CHL1   C23 6313   1.759   5.662   9.062 -0.5958 -0.0115 -0.0719
   52CHL1  H23A 6314   1.790   5.559   9.037  1.7173  1.0022 -1.7772
   52CHL1  H23B 6315   1.689   5.672   9.147 -0.6252  1.5744 -0.2533
   52CHL1   C24 6316   1.683   5.728   8.951  0.5869  0.3087 -0.6323
   52CHL1  H24A 6317   1.645   5.832   8.959 -1.8083 -0.2972 -2.7723
   52CHL1  H24B 6318   1.750   5.735   8.862  0.3531  0.9962 -0.7650
   52CHL1   C25 6319   1.560   5.651   8.895 -0.1871 -0.2388 -0.3593
   52CHL1   H25 6320   1.605   5.568   8.835 -2.1520 -1.8348  0.2348
   52CHL1   C26 6321   1.464   5.576   8.993  0.3479 -0.2060 -0.2137
   52CHL1  H26A 6322   1.380   5.529   8.938 -0.3020  2.3457 -1.5103
   52CHL1  H26B 6323   1.525   5.507   9.056  1.3211  2.4952  2.0108
   52CHL1  H26C 6324   1.416   5.661   9.045  1.0632 -0.6331  1.2215
   52CHL1   C27 6325   1.471   5.731   8.796 -0.1133  0.2782 -0.2651
   52CHL1  H27A 6326   1.392   5.762   8.867 -2.3408 -1.2256 -1.9373
   52CHL1  H27B 6327   1.528   5.807   8.738  0.2969 -1.0747 -1.7307
   52CHL1  H27C 6328   1.434   5.663   8.716 -1.1441  1.0976 -0.4944
   53CHL1    C3 6329   1.154   5.610  10.000 -0.1405 -0.3921  0.6331
   53CHL1    H3 6330   1.077   5.559  10.061 -0.1922  0.5910  1.4103
   53CHL1    O3 6331   1.231   5.685  10.095  0.1945 -0.3908  0.3329
   53CHL1   H3' 6332   1.165   5.731  10.147 -1.6301 -0.7949 -1.4741
   53CHL1    C4 6333   1.239   5.501   9.939 -0.3765  0.3841  0.0459
   53CHL1   H4A 6334   1.338   5.540   9.909 -0.2594 -0.2649 -0.4233
   53CHL1   H4B 6335   1.268   5.430  10.020 -1.2365  1.1300  1.0305
   53CHL1    C5 6336   1.161   5.433   9.822  0.5100 -0.1949 -0.9212
   53CHL1    C6 6337   1.158   5.301   9.819 -0.4921  0.8540  0.0752
   53CHL1    H6 6338   1.198   5.238   9.900 -2.7750 -1.8186 -0.7032
   53CHL1    C7 6339   1.096   5.230   9.702 -0.1344  0.5398  0.2619
   53CHL1   H7A 6340   1.167   5.152   9.666  1.7544  2.7810 -1.1808
   53CHL1   H7B 6341   1.012   5.165   9.736 -0.5472  0.4436 -0.8773
   53CHL1    C8 6342   1.067   5.321   9.577 -0.0704 -0.1890  0.1499
   53CHL1    H8 6343   1.165   5.347   9.531  0.0393  0.4832  0.7293
   53CHL1   C14 6344   0.978   5.248   9.471 -0.3823 -0.1419 -1.0731
   53CHL1   H14 6345   0.886   5.222   9.528  0.2905 -0.6297 -0.1909
   53CHL1   C15 6346   1.029   5.112   9.426 -0.1040  0.0559 -0.4332
   53CHL1  H15A 6347   1.136   5.115   9.396 -0.3977  3.6896 -1.5851
   53CHL1  H15B 6348   1.016   5.031   9.500 -0.0994 -0.5624 -1.0961
   53CHL1   C16 6349   0.945   5.092   9.298 -0.6229  0.8833 -0.3233
   53CHL1  H16A 6350   1.017   5.094   9.213  1.1470  2.0608  1.1133
   53CHL1  H16B 6351   0.871   5.010   9.305 -0.0347  0.2972 -0.9139
   53CHL1   C17 6352   0.859   5.223   9.286  0.7173 -0.0221  0.9749
   53CHL1   H17 6353   0.764   5.204   9.342 -0.6506  2.1472 -0.4381
   53CHL1   C13 6354   0.940   5.332   9.349  0.5777 -0.0291 -0.1888
   53CHL1   C18 6355   1.065   5.374   9.268 -0.0513  1.2230  0.8215
   53CHL1  H18A 6356   1.086   5.303   9.185 -3.7434  0.4872  0.3528
   53CHL1  H18B 6357   1.037   5.474   9.230  0.8696  1.4891  0.8384
   53CHL1  H18C 6358   1.156   5.389   9.330  1.0367  0.4065 -0.5112
   53CHL1   C12 6359   0.858   5.443   9.411 -0.6785 -0.5165  0.6159
   53CHL1  H12A 6360   0.807   5.514   9.344 -0.9778 -0.9391  0.3951
   53CHL1  H12B 6361   0.770   5.399   9.462  0.2141 -1.7003  1.2125
   53CHL1   C11 6362   0.940   5.533   9.503  0.0548 -0.1084  0.0447
   53CHL1  H11A 6363   1.018   5.589   9.448 -0.9293  0.2907 -0.9997
   53CHL1  H11B 6364   0.892   5.628   9.535  1.4078  0.0398  1.8152
   53CHL1    C9 6365   1.004   5.453   9.618 -0.1312  0.2751  0.1483
   53CHL1    H9 6366   0.913   5.423   9.674  0.2547 -0.5692  0.3323
   53CHL1   C10 6367   1.094   5.526   9.717  0.3331  0.3492 -0.7958
   53CHL1   C19 6368   1.214   5.590   9.636  0.5575  0.4541 -0.1461
   53CHL1  H19A 6369   1.177   5.666   9.565  1.5611  1.9740  0.8980
   53CHL1  H19B 6370   1.279   5.653   9.701 -0.7671  1.5036  0.1998
   53CHL1  H19C 6371   1.265   5.514   9.574 -2.1527 -0.6539 -1.1721
   53CHL1    C1 6372   1.010   5.631   9.791  0.0493  0.1362  0.0870
   53CHL1   H1A 6373   0.967   5.700   9.716 -1.3013 -0.7798 -0.0281
   53CHL1   H1B 6374   0.925   5.580   9.841  1.3163  0.3625  2.6322
   53CHL1    C2 6375   1.085   5.707   9.899  0.0776  0.7266 -0.0634
   53CHL1   H2A 6376   1.012   5.772   9.952 -0.6757 -0.1576  0.0247
   53CHL1   H2B 6377   1.163   5.766   9.848  0.7471 -1.7035 -2.0911
   53CHL1   C20 6378   0.818   5.241   9.138  0.2329  0.2148  0.0566
   53CHL1   H20 6379   0.911   5.245   9.078 -0.0364 -1.4594 -0.5119
   53CHL1   C21 6380   0.737   5.370   9.110 -0.3659  0.0411  0.6392
   53CHL1  H21A 6381   0.698   5.412   9.205 -0.5388  1.8071 -0.1595
   53CHL1  H21B 6382   0.647   5.346   9.051  0.0708 -0.1524  0.0453
   53CHL1  H21C 6383   0.804   5.438   9.052 -0.7179 -0.4668 -0.3829
   53CHL1   C22 6384   0.743   5.121   9.076  0.3221  0.1524  0.1020
   53CHL1  H22A 6385   0.796   5.024   9.069  0.0934  0.1307 -1.8352
   53CHL1  H22B 6386   0.649   5.102   9.132 -1.3990  3.0709 -1.5523
   53CHL1   C23 6387   0.723   5.147   8.924  0.2571  0.6256 -0.4953
   53CHL1  H23A 6388   0.659   5.235   8.898 -0.4588  0.5268  0.8512
   53CHL1  H23B 6389   0.825   5.155   8.880  0.6529 -3.6475 -0.7274
   53CHL1   C24 6390   0.653   5.027   8.860  0.4345  0.1552  0.0030
   53CHL1  H24A 6391   0.686   4.926   8.893 -0.8237 -0.6895 -1.2232
   53CHL1  H24B 6392   0.544   5.035   8.882  0.7779  0.7312  1.6350
   53CHL1   C25 6393   0.639   5.047   8.705  0.5795 -0.1382  0.0093
   53CHL1   H25 6394   0.602   5.149   8.680  0.5571 -0.5433 -1.7477
   53CHL1   C26 6395   0.766   5.023   8.629  0.3441  0.6873  0.4669
   53CHL1  H26A 6396   0.850   5.086   8.664 -0.0743  0.5432  1.7556
   53CHL1  H26B 6397   0.787   4.914   8.636 -2.6801  0.1043  2.5384
   53CHL1  H26C 6398   0.753   5.044   8.520  0.7593  2.5089  0.7359
   53CHL1   C27 6399   0.534   4.942   8.649 -0.3567  0.3490 -0.6652
   53CHL1  H27A 6400   0.513   4.948   8.540  0.5373 -0.2036 -0.8740
   53CHL1  H27B 6401   0.590   4.846   8.645  1.1162  1.2388 -2.3393
   53CHL1  H27C 6402   0.444   4.932   8.714  0.1431  2.7603  0.5232
   54CHL1    C3 6403   2.649   1.463   9.981 -0.1024 -0.2031  0.4472
   54CHL1    H3 6404   2.760   1.461   9.989  0.2319  3.2381 -1.5978
   54CHL1    O3 6405   2.605   1.421  10.114  0.1571  0.2149  0.0149
   54CHL1   H3' 6406   2.517   1.457  10.124  0.0310  0.2055 -0.9430
   54CHL1    C4 6407   2.606   1.604   9.959  0.7299 -0.8396 -0.0827
   54CHL1   H4A 6408   2.502   1.617   9.996  1.0182 -1.9246  1.2199
   54CHL1   H4B 6409   2.672   1.677  10.011  1.0490 -0.9529 -0.3258
   54CHL1    C5 6410   2.588   1.655   9.818 -0.3492  0.4881  0.6437
   54CHL1    C6 6411   2.641   1.770   9.774  0.8758  0.2297  0.1225
   54CHL1    H6 6412   2.689   1.833   9.850  0.4183 -0.3365  0.8988
   54CHL1    C7 6413   2.625   1.816   9.630  0.6852 -0.8479 -0.4246
   54CHL1   H7A 6414   2.578   1.917   9.628 -0.8291 -1.5269 -1.5299
   54CHL1   H7B 6415   2.725   1.826   9.582  2.0648  0.3443  2.4790
   54CHL1    C8 6416   2.523   1.725   9.534 -0.3876  0.1765 -0.3120
   54CHL1    H8 6417   2.418   1.757   9.550 -1.1626 -2.7177  1.0068
   54CHL1   C14 6418   2.555   1.739   9.391 -0.9433 -0.1925 -0.6281
   54CHL1   H14 6419   2.655   1.697   9.366 -0.6470  0.6923 -0.9707
   54CHL1   C15 6420   2.576   1.886   9.342 -0.3033  0.1863  0.1693
   54CHL1  H15A 6421   2.484   1.931   9.384  0.1894  1.6139 -0.1951
   54CHL1  H15B 6422   2.663   1.946   9.376 -0.1863  0.6456 -0.8855
   54CHL1   C16 6423   2.554   1.875   9.184 -0.8698 -0.1208 -0.5463
   54CHL1  H16A 6424   2.472   1.938   9.144  1.5397  2.8440 -1.1437
   54CHL1  H16B 6425   2.650   1.909   9.139 -0.4535  1.7994  1.6061
   54CHL1   C17 6426   2.528   1.724   9.154 -0.4354  0.6554 -0.2879
   54CHL1   H17 6427   2.625   1.671   9.149 -1.1210 -0.6246 -0.5514
   54CHL1   C13 6428   2.466   1.676   9.284 -0.3892  0.3456 -0.1142
   54CHL1   C18 6429   2.325   1.731   9.291  0.0682  0.2244 -0.2289
   54CHL1  H18A 6430   2.293   1.728   9.398  3.5752  1.4081  1.0088
   54CHL1  H18B 6431   2.309   1.831   9.246 -2.0543 -0.6098 -1.4270
   54CHL1  H18C 6432   2.251   1.672   9.234 -1.4182  1.0649  0.7589
   54CHL1   C12 6433   2.475   1.523   9.322  0.0518 -0.2641 -0.9100
   54CHL1  H12A 6434   2.392   1.466   9.274 -0.7903  0.9945 -0.9972
   54CHL1  H12B 6435   2.577   1.482   9.303 -0.1353 -1.5805  0.7312
   54CHL1   C11 6436   2.443   1.502   9.475 -1.2489  0.7294  0.6769
   54CHL1  H11A 6437   2.337   1.534   9.485 -0.9715  2.4190 -1.1268
   54CHL1  H11B 6438   2.454   1.393   9.496  0.9672  1.2962  2.9905
   54CHL1    C9 6439   2.530   1.584   9.567  0.4391  0.0090 -0.6754
   54CHL1    H9 6440   2.635   1.554   9.546  0.0948 -2.3311  0.5851
   54CHL1   C10 6441   2.519   1.552   9.721  0.0020  0.0160  0.0567
   54CHL1   C19 6442   2.375   1.539   9.770  0.7578 -0.4732 -0.0321
   54CHL1  H19A 6443   2.303   1.498   9.696 -1.9785  3.9058 -0.1818
   54CHL1  H19B 6444   2.366   1.479   9.863 -1.5928  0.7707  0.6160
   54CHL1  H19C 6445   2.329   1.640   9.778  0.3658 -0.4852 -1.8071
   54CHL1    C1 6446   2.595   1.415   9.741  0.5516  0.1627  0.3578
   54CHL1   H1A 6447   2.559   1.350   9.659 -0.0895  0.4678  0.3990
   54CHL1   H1B 6448   2.699   1.445   9.713  1.1897 -2.3796 -0.2457
   54CHL1    C2 6449   2.599   1.360   9.878 -0.2280  0.4946  0.1717
   54CHL1   H2A 6450   2.647   1.259   9.883 -1.1093  0.0051 -0.9441
   54CHL1   H2B 6451   2.496   1.331   9.906 -0.3315  0.6172 -0.0777
   54CHL1   C20 6452   2.451   1.711   9.017  0.1395 -0.2244  0.2750
   54CHL1   H20 6453   2.360   1.775   9.026  1.5774  2.3262 -1.7593
   54CHL1   C21 6454   2.411   1.566   9.003 -0.3055 -0.0721 -0.3756
   54CHL1  H21A 6455   2.370   1.533   8.905  2.2652 -1.0744 -1.2244
   54CHL1  H21B 6456   2.331   1.556   9.079  0.8470  2.4061  1.3150
   54CHL1  H21C 6457   2.490   1.489   9.018 -0.2441 -0.6106 -3.0338
   54CHL1   C22 6458   2.531   1.758   8.898  0.0693  0.0276  0.1802
   54CHL1  H22A 6459   2.591   1.848   8.922 -0.1801  0.1905  0.1901
   54CHL1  H22B 6460   2.611   1.687   8.867  0.2140 -0.6281  1.9318
   54CHL1   C23 6461   2.449   1.785   8.770 -0.4127 -0.1231  0.1562
   54CHL1  H23A 6462   2.394   1.692   8.742 -0.5089  0.8796 -3.5485
   54CHL1  H23B 6463   2.374   1.866   8.785  0.9891  1.8663 -2.5954
   54CHL1   C24 6464   2.533   1.830   8.645  0.7171 -0.6057 -0.4537
   54CHL1  H24A 6465   2.587   1.924   8.669 -1.5741  1.2442 -2.0855
   54CHL1  H24B 6466   2.612   1.756   8.621  1.1737 -0.9033  1.7663
   54CHL1   C25 6467   2.443   1.867   8.524 -0.3480  0.0690 -0.2058
   54CHL1   H25 6468   2.378   1.781   8.498  0.6092 -0.3755 -1.2177
   54CHL1   C26 6469   2.342   1.982   8.546 -0.0348  0.3259  0.2439
   54CHL1  H26A 6470   2.268   1.956   8.625  1.7253 -1.7297  1.3144
   54CHL1  H26B 6471   2.394   2.073   8.582 -1.3382  0.7031  1.2554
   54CHL1  H26C 6472   2.279   1.999   8.455 -0.4906 -1.8312  0.1047
   54CHL1   C27 6473   2.529   1.893   8.403  0.1969  0.6493  0.6848
   54CHL1  H27A 6474   2.598   1.980   8.410  0.5133  0.5287 -0.7280
   54CHL1  H27B 6475   2.603   1.813   8.386 -2.6426 -1.8131 -1.1736
   54CHL1  H27C 6476   2.470   1.906   8.310  0.8935 -0.7908  0.0278
   55CHL1    C3 6477   4.451   5.066  10.166 -1.1916 -0.3113 -0.7437
   55CHL1    H3 6478   4.356   5.123  10.157 -0.2962  1.4569  0.4033
   55CHL1    O3 6479   4.453   5.010  10.294 -0.3098  0.5823  0.5016
   55CHL1   H3' 6480   4.536   4.962  10.300 -0.7267  0.0073  2.4607
   55CHL1    C4 6481   4.479   4.955  10.054 -0.1096  0.3337 -0.3161
   55CHL1   H4A 6482   4.579   4.916  10.085 -0.2965 -0.9987 -1.2784
   55CHL1   H4B 6483   4.399   4.879  10.061  0.6602 -0.4330  0.5228
   55CHL1    C5 6484   4.489   5.006   9.914  0.1843 -0.0304 -0.1858
   55CHL1    C6 6485   4.407   4.962   9.816 -0.3100  0.0076 -0.0845
   55CHL1    H6 6486   4.333   4.883   9.841 -1.9035  1.6702  0.6640
   55CHL1    C7 6487   4.403   5.004   9.673 -0.7978  0.0338  0.7711
   55CHL1   H7A 6488   4.415   4.911   9.614  1.7579 -0.1527  1.4726
   55CHL1   H7B 6489   4.310   5.055   9.641 -0.9906 -1.8458 -2.0010
   55CHL1    C8 6490   4.527   5.094   9.646 -0.2384  0.5851  0.0289
   55CHL1    H8 6491   4.611   5.022   9.643  1.2141  2.2318 -1.5791
   55CHL1   C14 6492   4.507   5.161   9.511 -0.3613 -0.0336 -0.1179
   55CHL1   H14 6493   4.427   5.236   9.524 -1.5439 -1.0080 -1.4908
   55CHL1   C15 6494   4.459   5.066   9.393 -0.6367  0.4716  0.2427
   55CHL1  H15A 6495   4.519   4.972   9.394 -2.1774 -0.5559  0.0690
   55CHL1  H15B 6496   4.349   5.048   9.393 -0.7760  1.2204 -0.6778
   55CHL1   C16 6497   4.515   5.154   9.273 -0.6534  0.1167  0.8154
   55CHL1  H16A 6498   4.589   5.087   9.224 -1.4504 -1.2422  1.4042
   55CHL1  H16B 6499   4.434   5.176   9.200 -0.6547  0.2934  0.8701
   55CHL1   C17 6500   4.565   5.287   9.335 -0.4010  0.3053  0.1880
   55CHL1   H17 6501   4.475   5.352   9.348 -1.6668 -1.4289  0.4948
   55CHL1   C13 6502   4.624   5.248   9.472 -0.1080 -0.4527  0.2610
   55CHL1   C18 6503   4.756   5.167   9.456  0.4736  0.6496  0.0194
   55CHL1  H18A 6504   4.837   5.234   9.421  0.1443  0.4529 -1.1678
   55CHL1  H18B 6505   4.794   5.112   9.545 -0.1579  0.8911  0.4437
   55CHL1  H18C 6506   4.744   5.089   9.378  1.6630 -0.2249  0.6753
   55CHL1   C12 6507   4.647   5.358   9.564 -0.6827  0.3292 -0.1790
   55CHL1  H12A 6508   4.734   5.420   9.535 -0.0534 -0.0806  0.7619
   55CHL1  H12B 6509   4.556   5.423   9.570 -1.3055 -0.5712  0.5722
   55CHL1   C11 6510   4.666   5.294   9.710  1.1613 -0.1670  0.1810
   55CHL1  H11A 6511   4.772   5.261   9.714  0.9597 -0.7389  2.5795
   55CHL1  H11B 6512   4.662   5.382   9.778 -1.2757 -1.3051  1.6313
   55CHL1    C9 6513   4.560   5.193   9.759 -0.3253 -0.5083 -0.3065
   55CHL1    H9 6514   4.467   5.251   9.781  0.8164  0.5501  2.1206
   55CHL1   C10 6515   4.586   5.126   9.898 -0.0911 -0.1705  0.5608
   55CHL1   C19 6516   4.738   5.077   9.904  0.0243  0.3526  0.1905
   55CHL1  H19A 6517   4.814   5.155   9.924 -0.0865  0.7720 -0.9134
   55CHL1  H19B 6518   4.750   4.994   9.977  1.0598 -0.3151 -0.6970
   55CHL1  H19C 6519   4.766   5.031   9.806 -0.5337 -1.2729  0.7634
   55CHL1    C1 6520   4.557   5.227  10.011 -0.5656  0.3895 -0.5266
   55CHL1   H1A 6521   4.628   5.313  10.002 -0.4548  0.3141 -0.3832
   55CHL1   H1B 6522   4.459   5.275   9.990 -0.2953  1.7435  1.1108
   55CHL1    C2 6523   4.569   5.170  10.153 -0.2356 -0.6304  0.0265
   55CHL1   H2A 6524   4.548   5.253  10.224  0.3559 -1.1152  0.7913
   55CHL1   H2B 6525   4.671   5.130  10.173 -0.6703 -0.6530  2.4580
   55CHL1   C20 6526   4.662   5.357   9.230 -0.2416 -0.1131  0.5508
   55CHL1   H20 6527   4.758   5.302   9.218  0.6018  1.4952 -0.4508
   55CHL1   C21 6528   4.676   5.507   9.267  0.1065  0.6861 -0.0905
   55CHL1  H21A 6529   4.750   5.562   9.204  0.9903  0.4224  0.6847
   55CHL1  H21B 6530   4.721   5.539   9.364  1.0277 -0.6844 -0.0271
   55CHL1  H21C 6531   4.578   5.557   9.259  0.3523  0.9562 -1.6979
   55CHL1   C22 6532   4.602   5.356   9.085 -0.2789  0.4010 -0.3859
   55CHL1  H22A 6533   4.574   5.255   9.047  1.5231  1.0910 -4.0334
   55CHL1  H22B 6534   4.525   5.435   9.081 -0.6385  0.1912  1.4373
   55CHL1   C23 6535   4.698   5.397   8.974  0.0026  0.0060 -0.0823
   55CHL1  H23A 6536   4.738   5.499   8.996 -2.1638  0.7014  0.9541
   55CHL1  H23B 6537   4.785   5.330   8.991 -0.2176  0.1451  1.8795
   55CHL1   C24 6538   4.650   5.374   8.832 -0.1970  0.4027  0.2053
   55CHL1  H24A 6539   4.720   5.358   8.748  0.0159  2.1004  0.0149
   55CHL1  H24B 6540   4.593   5.279   8.832  0.4937 -0.0177 -0.2821
   55CHL1   C25 6541   4.560   5.491   8.784 -0.1405  0.0225  0.2614
   55CHL1   H25 6542   4.497   5.521   8.871 -0.5378  1.3588 -0.4564
   55CHL1   C26 6543   4.652   5.614   8.739  0.5045  0.0413  0.3483
   55CHL1  H26A 6544   4.653   5.680   8.829 -1.4412 -1.0974  1.2659
   55CHL1  H26B 6545   4.755   5.590   8.706  1.0768  1.3243  1.0901
   55CHL1  H26C 6546   4.599   5.679   8.666  1.0853  1.2403  0.9544
   55CHL1   C27 6547   4.481   5.448   8.665  0.0026  0.0519  0.1258
   55CHL1  H27A 6548   4.545   5.438   8.575 -1.3430  1.2099 -1.0040
   55CHL1  H27B 6549   4.430   5.349   8.672 -1.5776  0.9488  2.8210
   55CHL1  H27C 6550   4.406   5.527   8.644 -0.7099 -1.3374 -3.1846
   56CHL1    C3 6551   5.015   2.573   9.964  0.8558  0.0859  0.5746
   56CHL1    H3 6552   5.095   2.650   9.966  1.2908 -0.3104 -0.4125
   56CHL1    O3 6553   5.004   2.500  10.076 -0.2089  0.5955 -0.2849
   56CHL1   H3' 6554   4.914   2.497  10.109  0.0950  0.7033  0.5898
   56CHL1    C4 6555   4.871   2.631   9.928 -0.5127  0.7841  0.1167
   56CHL1   H4A 6556   4.807   2.543   9.950  0.3583  0.0643 -0.1243
   56CHL1   H4B 6557   4.843   2.717   9.992 -1.2940  1.6262 -1.2959
   56CHL1    C5 6558   4.861   2.675   9.775 -0.1783  0.6865  0.0321
   56CHL1    C6 6559   4.811   2.795   9.731 -0.3443 -0.1633 -0.0941
   56CHL1    H6 6560   4.788   2.882   9.794  0.7753  1.1977 -1.4693
   56CHL1    C7 6561   4.781   2.832   9.591  0.6802  0.3495 -0.1548
   56CHL1   H7A 6562   4.681   2.878   9.576 -0.5450 -1.4029  1.9287
   56CHL1   H7B 6563   4.852   2.909   9.554  1.4028 -1.1619 -2.1178
   56CHL1    C8 6564   4.789   2.710   9.493  0.2338 -0.6215  0.2398
   56CHL1    H8 6565   4.694   2.653   9.499 -1.5212  2.0229 -0.6328
   56CHL1   C14 6566   4.797   2.759   9.350  0.1311  0.3044 -0.1457
   56CHL1   H14 6567   4.895   2.811   9.345  0.0647  0.3410 -1.2550
   56CHL1   C15 6568   4.697   2.859   9.304 -0.9987 -0.0137  0.3078
   56CHL1  H15A 6569   4.595   2.822   9.325 -1.2662  0.3158 -0.4061
   56CHL1  H15B 6570   4.703   2.959   9.352 -2.8638  0.0251  0.5040
   56CHL1   C16 6571   4.725   2.864   9.151  0.4276  0.1899  0.4193
   56CHL1  H16A 6572   4.641   2.867   9.078  0.9736 -2.0601 -0.3862
   56CHL1  H16B 6573   4.795   2.949   9.134 -1.0244  1.1097 -1.3710
   56CHL1   C17 6574   4.802   2.733   9.117 -0.1942 -0.9605  0.2645
   56CHL1   H17 6575   4.910   2.756   9.102 -0.4630 -0.5819 -1.3119
   56CHL1   C13 6576   4.802   2.652   9.243  0.1842  0.0652  0.7964
   56CHL1   C18 6577   4.677   2.558   9.239 -0.1363 -0.2103 -0.1248
   56CHL1  H18A 6578   4.584   2.618   9.222  0.6921  1.2083  0.1554
   56CHL1  H18B 6579   4.674   2.492   9.150 -0.2031  0.5830 -0.7285
   56CHL1  H18C 6580   4.666   2.494   9.329 -1.2895 -0.5005 -0.4512
   56CHL1   C12 6581   4.937   2.573   9.268 -0.7694 -0.3681 -0.2743
   56CHL1  H12A 6582   4.948   2.486   9.200  0.4568 -0.4136 -0.0369
   56CHL1  H12B 6583   5.022   2.642   9.244  0.0754 -1.8796 -1.8281
   56CHL1   C11 6584   4.942   2.527   9.412  0.3899  0.7630  0.2003
   56CHL1  H11A 6585   4.859   2.453   9.412 -0.2816  1.4894 -0.9457
   56CHL1  H11B 6586   5.039   2.475   9.425  0.4887  0.6441 -0.9131
   56CHL1    C9 6587   4.915   2.626   9.526 -0.0150  0.2682  0.4386
   56CHL1    H9 6588   4.992   2.706   9.523 -0.8990  1.1035 -1.5819
   56CHL1   C10 6589   4.901   2.570   9.665 -0.0499 -0.1310 -0.2867
   56CHL1   C19 6590   4.800   2.455   9.662  0.5815 -0.0698 -0.9669
   56CHL1  H19A 6591   4.780   2.412   9.762 -2.4083 -1.8355 -2.1913
   56CHL1  H19B 6592   4.696   2.480   9.632  0.0504 -0.8957  0.1064
   56CHL1  H19C 6593   4.849   2.376   9.602  0.9491  1.8910 -3.4152
   56CHL1    C1 6594   5.040   2.521   9.710 -1.3957 -0.0410 -1.0258
   56CHL1   H1A 6595   5.075   2.440   9.643  1.1557  0.5282 -0.5058
   56CHL1   H1B 6596   5.107   2.608   9.691 -0.4486 -0.5160  0.0235
   56CHL1    C2 6597   5.061   2.472   9.857 -0.3290  0.1548 -0.0359
   56CHL1   H2A 6598   5.170   2.450   9.864 -0.2236 -0.9744 -3.2626
   56CHL1   H2B 6599   5.010   2.374   9.863  1.4677 -0.9922 -1.9291
   56CHL1   C20 6600   4.760   2.677   8.977  0.2469  1.1327 -0.2900
   56CHL1   H20 6601   4.656   2.639   8.992  1.1241 -0.3573  2.5808
   56CHL1   C21 6602   4.857   2.568   8.945  0.0868 -0.2222 -0.0380
   56CHL1  H21A 6603   4.841   2.486   9.018 -0.2148  0.1419  0.3030
   56CHL1  H21B 6604   4.961   2.606   8.957  1.1221 -3.2985  1.8580
   56CHL1  H21C 6605   4.846   2.521   8.845 -0.9225  0.0993 -0.0849
   56CHL1   C22 6606   4.759   2.791   8.866  0.0611  0.3524  0.5850
   56CHL1  H22A 6607   4.700   2.881   8.893 -3.2760 -0.5673 -2.8509
   56CHL1  H22B 6608   4.864   2.816   8.837  0.5971  0.3062  2.3410
   56CHL1   C23 6609   4.690   2.746   8.733  0.4032 -1.0382  0.6139
   56CHL1  H23A 6610   4.771   2.724   8.660 -1.7488 -0.7429 -2.0294
   56CHL1  H23B 6611   4.621   2.660   8.748  0.3409 -0.9206  0.9875
   56CHL1   C24 6612   4.619   2.864   8.662  0.7542  0.1539  0.1146
   56CHL1  H24A 6613   4.587   2.830   8.561  1.6724 -0.4355  0.0131
   56CHL1  H24B 6614   4.518   2.878   8.707  0.1417 -0.8378 -0.9138
   56CHL1   C25 6615   4.690   3.001   8.652  0.3662  0.3492 -0.2307
   56CHL1   H25 6616   4.726   3.027   8.753  0.8044  0.9146 -0.5260
   56CHL1   C26 6617   4.812   2.982   8.562 -0.8154  0.1711  0.0963
   56CHL1  H26A 6618   4.881   2.903   8.600  2.3007  1.9447 -1.4182
   56CHL1  H26B 6619   4.777   2.964   8.458  2.0483 -0.0818 -0.9261
   56CHL1  H26C 6620   4.867   3.077   8.576 -0.2251 -0.4083  1.9589
   56CHL1   C27 6621   4.596   3.110   8.600 -0.0456  0.0006 -0.1034
   56CHL1  H27A 6622   4.506   3.078   8.658 -0.2663  1.3769  0.3541
   56CHL1  H27B 6623   4.625   3.214   8.627  0.9106 -0.0023 -1.0618
   56CHL1  H27C 6624   4.593   3.097   8.490  2.4943 -1.0284 -0.1128
   57CHL1    C3 6625   3.161   6.635  10.130  0.4296  0.2715  0.0947
   57CHL1    H3 6626   3.069   6.593  10.084  0.9797  0.7403 -1.5145
   57CHL1    O3 6627   3.132   6.660  10.265 -0.1171  0.0692 -0.3411
   57CHL1   H3' 6628   3.206   6.709  10.303  0.8707 -1.8941  0.3728
   57CHL1    C4 6629   3.281   6.535  10.127 -0.5268  0.1963  0.0196
   57CHL1   H4A 6630   3.374   6.564  10.181  1.1215 -3.4919 -0.5522
   57CHL1   H4B 6631   3.244   6.450  10.188 -1.8217  0.7745  0.0758
   57CHL1    C5 6632   3.319   6.504   9.983  0.1550  0.1125  0.6269
   57CHL1    C6 6633   3.325   6.380   9.936  0.2026  0.1823 -0.7083
   57CHL1    H6 6634   3.303   6.295  10.002  0.0050 -0.2074 -1.2615
   57CHL1    C7 6635   3.338   6.336   9.796 -0.2027 -0.9398 -0.1628
   57CHL1   H7A 6636   3.408   6.251   9.783  1.2709  0.2326 -0.1463
   57CHL1   H7B 6637   3.238   6.297   9.768 -0.3442 -1.0113  0.4212
   57CHL1    C8 6638   3.394   6.456   9.705 -0.1721  0.6076 -0.3847
   57CHL1    H8 6639   3.501   6.470   9.732 -0.2069 -1.6421  1.1350
   57CHL1   C14 6640   3.383   6.423   9.555 -0.7054 -0.5671 -0.5042
   57CHL1   H14 6641   3.274   6.414   9.538 -1.1209 -0.9196  2.0753
   57CHL1   C15 6642   3.445   6.292   9.511  0.1748  0.0778  0.3020
   57CHL1  H15A 6643   3.543   6.270   9.559  0.3970 -1.6808 -0.8434
   57CHL1  H15B 6644   3.371   6.212   9.531 -2.2665  2.0970 -0.1008
   57CHL1   C16 6645   3.459   6.314   9.360  0.7813 -0.0246  0.4007
   57CHL1  H16A 6646   3.562   6.295   9.323  0.5897 -1.5604  0.5678
   57CHL1  H16B 6647   3.393   6.251   9.295 -1.3635  1.2391  1.2507
   57CHL1   C17 6648   3.428   6.460   9.325 -0.6313  0.0639  0.6194
   57CHL1   H17 6649   3.327   6.467   9.279  0.2837 -2.7672 -2.2039
   57CHL1   C13 6650   3.443   6.531   9.460  0.3807 -0.5242  0.3886
   57CHL1   C18 6651   3.596   6.559   9.469  0.1912 -0.8104  0.6267
   57CHL1  H18A 6652   3.655   6.467   9.446  2.4097  0.8842 -0.9786
   57CHL1  H18B 6653   3.632   6.651   9.418 -0.9432  0.7715  2.5460
   57CHL1  H18C 6654   3.613   6.585   9.576  0.4210  0.0651  0.3842
   57CHL1   C12 6655   3.341   6.653   9.483 -0.0486  0.6567  0.8285
   57CHL1  H12A 6656   3.380   6.734   9.418 -0.9134  0.9780  0.6977
   57CHL1  H12B 6657   3.241   6.616   9.453  0.9349 -0.5823 -1.1156
   57CHL1   C11 6658   3.342   6.698   9.624 -0.0773 -0.1950  0.2153
   57CHL1  H11A 6659   3.443   6.744   9.630  0.6285 -1.4981 -1.1297
   57CHL1  H11B 6660   3.266   6.779   9.625 -0.5093 -0.5355 -1.4539
   57CHL1    C9 6661   3.316   6.586   9.734  0.0871 -0.1419 -0.1817
   57CHL1    H9 6662   3.209   6.560   9.724 -0.6495  3.1011 -2.0308
   57CHL1   C10 6663   3.335   6.626   9.881 -0.5403 -0.6355 -0.7221
   57CHL1   C19 6664   3.469   6.693   9.904  0.2996  0.7054  0.0810
   57CHL1  H19A 6665   3.559   6.628   9.906  1.5643  2.3594 -0.7307
   57CHL1  H19B 6666   3.488   6.771   9.828  2.2979  0.6193  0.4475
   57CHL1  H19C 6667   3.468   6.738  10.006 -0.3666  1.0446 -0.0697
   57CHL1    C1 6668   3.220   6.731   9.909  0.4514 -0.2131 -0.0395
   57CHL1   H1A 6669   3.240   6.827   9.856 -0.3614 -0.1293 -0.2159
   57CHL1   H1B 6670   3.128   6.688   9.864  1.6877 -1.1932 -1.7344
   57CHL1    C2 6671   3.187   6.766  10.052 -0.3164 -0.4020  0.4157
   57CHL1   H2A 6672   3.101   6.835  10.062 -0.1267  0.3875 -2.5395
   57CHL1   H2B 6673   3.274   6.814  10.102 -0.2752 -2.5066  2.5403
   57CHL1   C20 6674   3.507   6.515   9.196  0.2247 -0.0524  0.0973
   57CHL1   H20 6675   3.617   6.498   9.205  0.0325 -0.3263  2.3887
   57CHL1   C21 6676   3.468   6.669   9.178 -0.1895 -0.0245  0.1761
   57CHL1  H21A 6677   3.491   6.700   9.074  0.0116  1.3555  0.6216
   57CHL1  H21B 6678   3.527   6.736   9.243  0.5119 -1.5760  1.2026
   57CHL1  H21C 6679   3.358   6.684   9.186 -0.2974  0.2935 -1.5237
   57CHL1   C22 6680   3.464   6.443   9.063 -0.1138 -0.1108 -0.1156
   57CHL1  H22A 6681   3.498   6.338   9.074  0.6950  0.1379 -0.2286
   57CHL1  H22B 6682   3.353   6.445   9.055 -0.0763 -0.3724 -0.8104
   57CHL1   C23 6683   3.520   6.487   8.929 -0.0666  0.3787 -0.2783
   57CHL1  H23A 6684   3.449   6.568   8.901 -0.2420  0.9454  1.6198
   57CHL1  H23B 6685   3.627   6.518   8.935 -0.1590  0.8003 -0.7482
   57CHL1   C24 6686   3.511   6.375   8.831  1.2310  0.0644 -0.6566
   57CHL1  H24A 6687   3.581   6.296   8.867 -1.4335 -2.3740 -0.4553
   57CHL1  H24B 6688   3.409   6.332   8.837  0.8474  1.0343 -0.0751
   57CHL1   C25 6689   3.534   6.417   8.682  0.0248  1.3300 -0.8188
   57CHL1   H25 6690   3.454   6.488   8.652 -0.3854  1.2774  0.0914
   57CHL1   C26 6691   3.674   6.484   8.680  0.0426  0.2676  0.4096
   57CHL1  H26A 6692   3.750   6.412   8.717 -1.1555 -0.9558  0.5408
   57CHL1  H26B 6693   3.696   6.520   8.577  0.0589 -2.7570 -0.7492
   57CHL1  H26C 6694   3.664   6.578   8.739  1.9588 -0.0434  1.2925
   57CHL1   C27 6695   3.515   6.296   8.586 -0.0230 -0.5186 -0.1546
   57CHL1  H27A 6696   3.539   6.334   8.484  1.5738 -0.2423  0.2927
   57CHL1  H27B 6697   3.581   6.211   8.614  0.5370  0.4293  1.5410
   57CHL1  H27C 6698   3.416   6.250   8.605  0.3528 -0.3055  2.7015
   58CHL1    C3 6699   5.664   5.238  10.205 -0.0864 -0.7756  0.0460
   58CHL1    H3 6700   5.589   5.318  10.224 -0.7068 -1.2093 -0.5616
   58CHL1    O3 6701   5.699   5.178  10.326 -0.7681 -0.3419  0.3296
   58CHL1   H3' 6702   5.714   5.238  10.399  1.0222 -0.2484 -0.0734
   58CHL1    C4 6703   5.587   5.140  10.103 -0.5737 -0.8291 -0.2792
   58CHL1   H4A 6704   5.650   5.050  10.087  1.1955  0.4073 -0.5462
   58CHL1   H4B 6705   5.492   5.101  10.144 -0.7320  0.0275  0.2049
   58CHL1    C5 6706   5.568   5.205   9.968  0.7889  0.1878 -0.4431
   58CHL1    C6 6707   5.438   5.213   9.931 -0.2496  0.5106 -0.0295
   58CHL1    H6 6708   5.364   5.156   9.989  0.8002 -2.1891 -1.2051
   58CHL1    C7 6709   5.409   5.279   9.791  0.1028 -0.1082 -0.9073
   58CHL1   H7A 6710   5.331   5.225   9.733 -0.5557 -0.2938  0.1347
   58CHL1   H7B 6711   5.380   5.385   9.807 -0.1323 -0.1231 -1.2080
   58CHL1    C8 6712   5.535   5.291   9.703  0.6598 -0.1277 -0.5855
   58CHL1    H8 6713   5.557   5.184   9.683 -1.7719 -0.5577 -1.2656
   58CHL1   C14 6714   5.506   5.365   9.573 -0.0157 -0.3184  0.8009
   58CHL1   H14 6715   5.486   5.459   9.629  1.0193 -0.3044  1.1849
   58CHL1   C15 6716   5.395   5.326   9.480  0.0976 -0.2330 -0.0358
   58CHL1  H15A 6717   5.389   5.218   9.455  1.2003 -0.3261  0.0263
   58CHL1  H15B 6718   5.304   5.362   9.531  0.8104  3.1260 -0.8810
   58CHL1   C16 6719   5.421   5.390   9.343  0.2400 -0.4642 -0.7288
   58CHL1  H16A 6720   5.414   5.316   9.260  1.1226 -1.9798  0.5039
   58CHL1  H16B 6721   5.338   5.463   9.330 -0.1022 -1.0548 -2.0435
   58CHL1   C17 6722   5.561   5.456   9.352 -0.4429 -0.0941 -0.3856
   58CHL1   H17 6723   5.542   5.563   9.372  2.0612  0.1265  1.4160
   58CHL1   C13 6724   5.626   5.393   9.482 -0.3729  0.0012  0.3874
   58CHL1   C18 6725   5.689   5.257   9.439 -0.2265  1.1068  0.1177
   58CHL1  H18A 6726   5.772   5.271   9.366 -0.2810 -0.7387 -0.3528
   58CHL1  H18B 6727   5.736   5.200   9.522 -0.4843 -1.1450 -1.1987
   58CHL1  H18C 6728   5.612   5.191   9.395  1.6240 -0.1450 -1.4043
   58CHL1   C12 6729   5.729   5.476   9.561  0.5280  0.5617  0.0575
   58CHL1  H12A 6730   5.817   5.476   9.492  0.3062 -1.7832 -0.3027
   58CHL1  H12B 6731   5.684   5.576   9.582 -2.9249 -0.2590 -2.5345
   58CHL1   C11 6732   5.774   5.415   9.696 -0.2341  0.5911  0.0418
   58CHL1  H11A 6733   5.839   5.332   9.663 -2.7486 -1.1408 -0.7852
   58CHL1  H11B 6734   5.838   5.484   9.755 -1.6125  1.7231  0.2811
   58CHL1    C9 6735   5.648   5.367   9.780 -0.0419  0.0793 -0.2855
   58CHL1    H9 6736   5.603   5.465   9.808  0.2436  0.5533 -1.4407
   58CHL1   C10 6737   5.690   5.283   9.907  0.4463 -0.3632  0.0007
   58CHL1   C19 6738   5.802   5.185   9.863 -0.1102 -0.2170  0.1987
   58CHL1  H19A 6739   5.896   5.239   9.841  1.6861 -2.7138  1.1653
   58CHL1  H19B 6740   5.831   5.125   9.953 -0.2073  1.8919  1.7177
   58CHL1  H19C 6741   5.768   5.119   9.781 -0.3010 -0.3338  0.3709
   58CHL1    C1 6742   5.745   5.377  10.017 -0.6402 -0.0457  0.3144
   58CHL1   H1A 6743   5.828   5.425   9.961  0.9185 -0.1665  2.3680
   58CHL1   H1B 6744   5.676   5.461  10.036  0.5806  1.0035  0.2697
   58CHL1    C2 6745   5.789   5.308  10.146  0.5788 -0.3497  0.3513
   58CHL1   H2A 6746   5.834   5.375  10.223 -0.8861 -0.8135  1.6542
   58CHL1   H2B 6747   5.859   5.225  10.124  0.7926 -0.1346  0.2086
   58CHL1   C20 6748   5.632   5.451   9.217 -0.7803  0.0454  0.5405
   58CHL1   H20 6749   5.643   5.346   9.184 -0.7447  0.0329  0.5930
   58CHL1   C21 6750   5.766   5.526   9.213  0.6397  0.9009  0.0241
   58CHL1  H21A 6751   5.747   5.632   9.241  2.2599  1.9138 -2.3827
   58CHL1  H21B 6752   5.827   5.527   9.120 -0.7762  0.9434 -0.9208
   58CHL1  H21C 6753   5.835   5.478   9.286  0.9348  1.0775 -0.1364
   58CHL1   C22 6754   5.541   5.515   9.102  0.2333  0.1013 -0.0085
   58CHL1  H22A 6755   5.437   5.479   9.112  0.6371 -1.2635 -0.4351
   58CHL1  H22B 6756   5.528   5.623   9.124 -0.7072  0.1291 -0.6802
   58CHL1   C23 6757   5.607   5.498   8.968  0.0160  0.5949 -0.0568
   58CHL1  H23A 6758   5.712   5.536   8.964 -0.1872  1.1198 -0.4964
   58CHL1  H23B 6759   5.607   5.394   8.929  1.7273  1.5423 -2.8373
   58CHL1   C24 6760   5.540   5.567   8.853  0.3508  0.2819  0.2657
   58CHL1  H24A 6761   5.431   5.573   8.877  0.4360  0.6170  0.5723
   58CHL1  H24B 6762   5.562   5.676   8.851 -0.2471  0.4059 -0.5589
   58CHL1   C25 6763   5.564   5.517   8.709  0.0282  0.2004 -0.1711
   58CHL1   H25 6764   5.506   5.585   8.643 -0.0800  1.7118  1.4123
   58CHL1   C26 6765   5.716   5.536   8.681  0.3966  0.2921 -1.1475
   58CHL1  H26A 6766   5.726   5.475   8.588 -2.8580 -1.2781 -0.6023
   58CHL1  H26B 6767   5.750   5.641   8.687  0.2635  0.2600  0.4527
   58CHL1  H26C 6768   5.770   5.482   8.762 -0.6280  1.2152  0.1913
   58CHL1   C27 6769   5.526   5.372   8.692  0.1389  0.2788  0.2974
   58CHL1  H27A 6770   5.425   5.342   8.730  0.7079  0.7911  2.3480
   58CHL1  H27B 6771   5.539   5.339   8.587  1.5055  0.2204  0.4713
   58CHL1  H27C 6772   5.594   5.305   8.749 -1.1032  0.5421  2.2083
   59CHL1    C3 6773   5.379   6.264  10.103 -0.6535  0.4080 -0.3827
   59CHL1    H3 6774   5.462   6.208  10.055 -1.0928 -0.0948 -0.5532
   59CHL1    O3 6775   5.377   6.233  10.246  0.0100  0.2865 -0.0069
   59CHL1   H3' 6776   5.287   6.218  10.275 -0.1519 -1.3458 -1.1963
   59CHL1    C4 6777   5.397   6.413  10.089 -0.4794  0.1255  0.2027
   59CHL1   H4A 6778   5.310   6.451  10.146  0.3616  0.3704  1.3537
   59CHL1   H4B 6779   5.487   6.440  10.149 -0.0397 -2.7296  1.0095
   59CHL1    C5 6780   5.393   6.462   9.943 -0.1156 -0.0130 -0.0412
   59CHL1    C6 6781   5.490   6.539   9.889 -0.6031 -0.3810 -0.0115
   59CHL1    H6 6782   5.574   6.580   9.947  0.5605 -1.1379 -1.1071
   59CHL1    C7 6783   5.498   6.588   9.744 -0.1880 -0.1594  0.0382
   59CHL1   H7A 6784   5.506   6.699   9.742  0.7998 -0.2306 -0.4292
   59CHL1   H7B 6785   5.580   6.535   9.691 -0.1884  0.3006 -0.4309
   59CHL1    C8 6786   5.364   6.556   9.677 -0.1790 -0.1536 -0.4374
   59CHL1    H8 6787   5.297   6.642   9.701  0.0227 -0.4064  1.1585
   59CHL1   C14 6788   5.388   6.571   9.525 -0.3469 -0.0489  0.2505
   59CHL1   H14 6789   5.452   6.482   9.507  0.2845  0.4523 -0.0250
   59CHL1   C15 6790   5.465   6.697   9.480  0.7587 -0.5383 -0.5769
   59CHL1  H15A 6791   5.422   6.779   9.541  0.7472 -0.0937 -1.1744
   59CHL1  H15B 6792   5.575   6.690   9.499  1.0735  1.5764 -1.4206
   59CHL1   C16 6793   5.437   6.704   9.329 -0.6892 -0.2348 -0.3379
   59CHL1  H16A 6794   5.397   6.807   9.316  2.4022  1.3108  1.2463
   59CHL1  H16B 6795   5.529   6.695   9.267  2.1063  1.8692  3.1307
   59CHL1   C17 6796   5.327   6.593   9.306 -0.5524 -0.0543  0.8562
   59CHL1   H17 6797   5.387   6.502   9.287 -2.0570 -1.4978  2.6979
   59CHL1   C13 6798   5.264   6.567   9.438  0.1945  0.2444 -0.0692
   59CHL1   C18 6799   5.165   6.680   9.466 -0.5324  0.0868 -0.1778
   59CHL1  H18A 6800   5.108   6.649   9.556  1.7090 -2.8116  0.4062
   59CHL1  H18B 6801   5.216   6.777   9.482 -1.4333  0.4308  0.6723
   59CHL1  H18C 6802   5.087   6.690   9.386 -0.8507 -0.2379  0.0879
   59CHL1   C12 6803   5.205   6.426   9.461  0.2563  0.0969 -0.0738
   59CHL1  H12A 6804   5.111   6.409   9.405 -0.5903 -1.4564  1.6839
   59CHL1  H12B 6805   5.284   6.354   9.429  1.4969  1.5935 -0.4812
   59CHL1   C11 6806   5.180   6.386   9.615 -0.1532 -0.4093 -0.0799
   59CHL1  H11A 6807   5.088   6.433   9.657  0.3683 -1.1661  2.0798
   59CHL1  H11B 6808   5.161   6.276   9.616  0.5810 -0.5470 -0.4818
   59CHL1    C9 6809   5.301   6.418   9.703  0.2368  0.0578 -0.6945
   59CHL1    H9 6810   5.378   6.342   9.678 -0.7979 -1.8246  1.4539
   59CHL1   C10 6811   5.276   6.405   9.861 -0.4664 -0.1613  0.3530
   59CHL1   C19 6812   5.159   6.498   9.897 -0.0865 -0.2288  0.1491
   59CHL1  H19A 6813   5.170   6.587   9.832  1.4289  0.5797  1.4358
   59CHL1  H19B 6814   5.057   6.458   9.881 -0.7214  0.3282  2.5331
   59CHL1  H19C 6815   5.162   6.515  10.006  1.6151 -0.3825  0.1581
   59CHL1    C1 6816   5.237   6.262   9.893 -0.2882  0.1079  0.4536
   59CHL1   H1A 6817   5.135   6.255   9.851  0.0624 -1.6875 -0.2128
   59CHL1   H1B 6818   5.308   6.194   9.840  0.9501  0.8700  1.0799
   59CHL1    C2 6819   5.246   6.222  10.040  0.0067 -0.5380 -0.4558
   59CHL1   H2A 6820   5.219   6.115  10.048 -1.6835 -0.0789  0.6921
   59CHL1   H2B 6821   5.161   6.272  10.092  0.1486 -1.3650  0.6008
   59CHL1   C20 6822   5.239   6.630   9.178  0.3695  0.2776 -0.1348
   59CHL1   H20 6823   5.178   6.718   9.207  2.3675  2.7297 -2.7606
   59CHL1   C21 6824   5.149   6.510   9.134 -0.0345 -0.5217 -0.6325
   59CHL1  H21A 6825   5.215   6.432   9.089 -0.9826 -0.0523 -2.9590
   59CHL1  H21B 6826   5.084   6.537   9.049  2.6876 -0.6431 -2.9266
   59CHL1  H21C 6827   5.089   6.465   9.215  0.6412 -0.7139 -0.2276
   59CHL1   C22 6828   5.319   6.690   9.056  0.2025  0.6824  0.1746
   59CHL1  H22A 6829   5.365   6.788   9.082  2.2029 -0.3521  0.7539
   59CHL1  H22B 6830   5.400   6.620   9.027 -0.1824  0.1074  0.4746
   59CHL1   C23 6831   5.244   6.718   8.918  0.3834  0.2936 -0.3214
   59CHL1  H23A 6832   5.205   6.621   8.882 -3.0270  0.7428  1.7607
   59CHL1  H23B 6833   5.153   6.773   8.947 -1.6427 -0.6902 -4.1464
   59CHL1   C24 6834   5.311   6.805   8.812  0.2440 -0.2304  0.1981
   59CHL1  H24A 6835   5.345   6.896   8.865  0.1917 -0.0227 -0.1208
   59CHL1  H24B 6836   5.392   6.746   8.764  0.7868  0.7975 -0.1728
   59CHL1   C25 6837   5.218   6.852   8.702 -0.2662  0.3504 -0.2775
   59CHL1   H25 6838   5.130   6.906   8.743 -1.4095 -0.9017 -0.9839
   59CHL1   C26 6839   5.281   6.969   8.622  0.5164 -0.6980 -0.1708
   59CHL1  H26A 6840   5.385   6.944   8.591  1.7562  1.0578  2.2220
   59CHL1  H26B 6841   5.214   6.999   8.538  0.2331 -0.4200  0.1524
   59CHL1  H26C 6842   5.308   7.057   8.685  1.0807  1.1242 -2.7625
   59CHL1   C27 6843   5.173   6.746   8.600  0.3542  0.0003  0.2275
   59CHL1  H27A 6844   5.096   6.786   8.531 -0.2130 -1.0152  0.2649
   59CHL1  H27B 6845   5.261   6.702   8.549 -1.6371 -1.8540 -1.7809
   59CHL1  H27C 6846   5.134   6.658   8.656  2.0603 -1.0524 -0.1854
   60CHL1    C3 6847   1.913   5.487  10.146 -0.0695  0.9543  0.0226
   60CHL1    H3 6848   2.008   5.499  10.089 -0.4889 -3.5577 -2.0764
   60CHL1    O3 6849   1.940   5.546  10.277  0.3785  0.5138  0.1994
   60CHL1   H3' 6850   1.999   5.480  10.312  1.4914 -0.1174 -2.5680
   60CHL1    C4 6851   1.806   5.565  10.081 -0.0957  0.1161 -0.3762
   60CHL1   H4A 6852   1.714   5.562  10.143 -0.5210  0.0986 -1.0029
   60CHL1   H4B 6853   1.830   5.673  10.075  1.4061 -0.1976 -0.4835
   60CHL1    C5 6854   1.779   5.524   9.934 -0.9838  0.1543  0.4212
   60CHL1    C6 6855   1.786   5.608   9.829 -0.0345  0.0043 -0.3441
   60CHL1    H6 6856   1.800   5.716   9.844  1.3438 -0.0867 -0.8472
   60CHL1    C7 6857   1.774   5.566   9.681  0.1312 -0.1797 -0.5753
   60CHL1   H7A 6858   1.725   5.644   9.619 -1.8935 -0.5509  0.4572
   60CHL1   H7B 6859   1.875   5.550   9.639  0.4167 -0.8464  0.3259
   60CHL1    C8 6860   1.696   5.426   9.675 -0.2632  0.8439  0.9212
   60CHL1    H8 6861   1.588   5.432   9.699 -0.3973 -0.7998  0.8038
   60CHL1   C14 6862   1.700   5.369   9.532  0.3178  0.5758 -1.0060
   60CHL1   H14 6863   1.808   5.359   9.510  0.8431  2.3566  0.5210
   60CHL1   C15 6864   1.661   5.453   9.419 -0.1867  0.7244 -0.5401
   60CHL1  H15A 6865   1.558   5.495   9.425 -0.0397  1.4399 -2.3615
   60CHL1  H15B 6866   1.725   5.539   9.392 -0.7367  1.3355  0.0475
   60CHL1   C16 6867   1.657   5.350   9.300 -0.6671  0.5107 -0.0887
   60CHL1  H16A 6868   1.564   5.358   9.240 -0.5392  2.5930 -0.0833
   60CHL1  H16B 6869   1.749   5.354   9.237 -1.7429  0.4450 -1.7338
   60CHL1   C17 6870   1.652   5.212   9.362 -0.0607 -0.3889 -0.1739
   60CHL1   H17 6871   1.754   5.170   9.352  0.1147  0.4146 -2.2897
   60CHL1   C13 6872   1.629   5.232   9.515 -0.0055  0.0936  0.1816
   60CHL1   C18 6873   1.472   5.242   9.543  0.2685  0.3453 -0.2967
   60CHL1  H18A 6874   1.451   5.296   9.637  0.3095  1.9406 -1.1558
   60CHL1  H18B 6875   1.409   5.297   9.469 -0.2445 -0.8837 -0.8036
   60CHL1  H18C 6876   1.434   5.139   9.553 -1.4682  1.1725  2.4216
   60CHL1   C12 6877   1.696   5.129   9.611  0.0570 -0.1253  0.2431
   60CHL1  H12A 6878   1.648   5.029   9.612  2.8310 -1.5637  0.2578
   60CHL1  H12B 6879   1.803   5.115   9.584  0.3228  0.9537  0.6694
   60CHL1   C11 6880   1.703   5.172   9.752  0.0952 -0.3687 -0.0020
   60CHL1  H11A 6881   1.599   5.169   9.789 -0.6261  2.0228 -1.5512
   60CHL1  H11B 6882   1.763   5.094   9.802  0.1709 -1.0419 -1.0998
   60CHL1    C9 6883   1.757   5.325   9.769  0.7023  0.5359 -0.0748
   60CHL1    H9 6884   1.863   5.317   9.739 -0.3260  0.1746 -4.1774
   60CHL1   C10 6885   1.755   5.372   9.917  0.0486  0.4012  0.2453
   60CHL1   C19 6886   1.612   5.359   9.979 -0.1334 -0.1440  0.0115
   60CHL1  H19A 6887   1.540   5.401   9.906  0.1349  0.7940  0.2733
   60CHL1  H19B 6888   1.596   5.249   9.978 -0.6618 -0.0790 -2.1524
   60CHL1  H19C 6889   1.589   5.407  10.077  1.6196 -1.1060  0.9535
   60CHL1    C1 6890   1.850   5.288  10.005 -0.0475  0.5584  0.2204
   60CHL1   H1A 6891   1.809   5.185  10.000  1.4835 -0.0723  0.0553
   60CHL1   H1B 6892   1.946   5.281   9.950 -1.4586  1.3898 -2.5499
   60CHL1    C2 6893   1.871   5.340  10.147  0.5104 -0.0685 -0.5915
   60CHL1   H2A 6894   1.947   5.277  10.197 -1.7367 -1.1918  1.6530
   60CHL1   H2B 6895   1.784   5.319  10.213  2.8443 -0.8997  2.3874
   60CHL1   C20 6896   1.554   5.107   9.292  0.6164  0.4322  0.1990
   60CHL1   H20 6897   1.451   5.126   9.329 -0.3636 -0.8368 -1.7278
   60CHL1   C21 6898   1.606   4.966   9.331  0.1732  0.2102 -0.9593
   60CHL1  H21A 6899   1.534   4.890   9.294 -0.6075 -0.2773  1.3434
   60CHL1  H21B 6900   1.589   4.948   9.440  1.5230  1.1593 -0.5719
   60CHL1  H21C 6901   1.713   4.950   9.309  0.2019  1.4060 -1.7213
   60CHL1   C22 6902   1.541   5.121   9.140 -0.4231 -0.2276 -0.3205
   60CHL1  H22A 6903   1.465   5.052   9.096 -1.4004  0.5007  0.1842
   60CHL1  H22B 6904   1.492   5.218   9.117 -1.6017 -0.2067  1.9673
   60CHL1   C23 6905   1.670   5.104   9.060 -1.1464 -0.1890 -0.1237
   60CHL1  H23A 6906   1.747   5.163   9.116 -0.6410  0.1369 -1.1388
   60CHL1  H23B 6907   1.703   4.998   9.061  1.4450  0.5083 -1.7735
   60CHL1   C24 6908   1.673   5.153   8.916 -0.2342 -0.0889  0.6100
   60CHL1  H24A 6909   1.596   5.099   8.857 -0.3087 -1.0938  1.5924
   60CHL1  H24B 6910   1.638   5.259   8.907 -0.9220 -0.4577 -1.9010
   60CHL1   C25 6911   1.815   5.157   8.852 -0.8116 -0.5241  0.3329
   60CHL1   H25 6912   1.870   5.088   8.919  0.4758  0.4350  0.3128
   60CHL1   C26 6913   1.814   5.100   8.710 -0.3215 -0.1782  0.0391
   60CHL1  H26A 6914   1.915   5.089   8.667  1.1548  1.6563  2.7441
   60CHL1  H26B 6915   1.753   5.007   8.722 -0.1485 -0.4124 -0.8801
   60CHL1  H26C 6916   1.767   5.173   8.641  1.5118 -1.2970 -2.5146
   60CHL1   C27 6917   1.884   5.296   8.862  0.0248  0.2231  0.2071
   60CHL1  H27A 6918   1.975   5.320   8.803  0.5251 -0.3777  0.7232
   60CHL1  H27B 6919   1.803   5.364   8.827  0.1645  1.4320  2.0467
   60CHL1  H27C 6920   1.910   5.295   8.970  4.4186 -4.0045 -0.5608
   61CHL1    C3 6921   1.790   0.277  10.137 -0.3256  0.2100  0.3462
   61CHL1    H3 6922   1.736   0.182  10.117 -1.5255  1.1699 -1.1704
   61CHL1    O3 6923   1.852   0.267  10.262 -0.4744 -0.2603 -0.3958
   61CHL1   H3' 6924   1.789   0.314  10.318 -0.9714 -1.2122 -0.1403
   61CHL1    C4 6925   1.894   0.310  10.031  0.2082 -0.0890 -0.0346
   61CHL1   H4A 6926   1.937   0.404  10.074  1.3663  0.6565 -2.5846
   61CHL1   H4B 6927   1.967   0.226  10.033 -0.9691 -1.1660 -1.0009
   61CHL1    C5 6928   1.839   0.347   9.894 -0.6469 -0.0539  0.4900
   61CHL1    C6 6929   1.882   0.284   9.782  0.1694  0.2155 -0.2326
   61CHL1    H6 6930   1.975   0.227   9.798  0.1706  0.2939  0.0464
   61CHL1    C7 6931   1.827   0.293   9.644 -0.5390 -0.1393  0.2335
   61CHL1   H7A 6932   1.904   0.297   9.564  0.2155 -0.7297  0.9232
   61CHL1   H7B 6933   1.772   0.199   9.624  0.1701 -0.4673 -0.2164
   61CHL1    C8 6934   1.725   0.426   9.644 -0.2733  1.1821 -0.0860
   61CHL1    H8 6935   1.790   0.516   9.645  0.7866  0.4400  0.0592
   61CHL1   C14 6936   1.646   0.435   9.510  0.4285 -0.0039  0.3570
   61CHL1   H14 6937   1.579   0.346   9.507  0.0463  0.3066 -1.0118
   61CHL1   C15 6938   1.726   0.431   9.376  0.5948  0.4760  0.8955
   61CHL1  H15A 6939   1.808   0.500   9.406 -0.4006  2.0613  0.1006
   61CHL1  H15B 6940   1.769   0.331   9.354 -0.0399  0.2477  0.6884
   61CHL1   C16 6941   1.621   0.482   9.267 -0.9694  0.7336 -0.2627
   61CHL1  H16A 6942   1.647   0.566   9.200 -2.6770  1.2795 -0.3023
   61CHL1  H16B 6943   1.601   0.393   9.204 -0.2530 -0.2133  0.7900
   61CHL1   C17 6944   1.497   0.539   9.353 -0.0369  0.2378 -0.6665
   61CHL1   H17 6945   1.430   0.451   9.358  0.2663 -0.4030 -4.7550
   61CHL1   C13 6946   1.554   0.556   9.504  0.5523 -0.2740  0.3049
   61CHL1   C18 6947   1.638   0.688   9.510  0.0669  0.6483  0.0059
   61CHL1  H18A 6948   1.683   0.709   9.610 -3.3029 -1.6254  2.2288
   61CHL1  H18B 6949   1.720   0.679   9.436  1.3943  1.4290  1.3206
   61CHL1  H18C 6950   1.585   0.780   9.477  0.1356  0.7061  0.0545
   61CHL1   C12 6951   1.455   0.542   9.617  0.4507  0.6529  0.4583
   61CHL1  H12A 6952   1.372   0.615   9.613 -1.7110 -1.6607  0.4695
   61CHL1  H12B 6953   1.399   0.447   9.600  0.5033  0.7597 -0.3919
   61CHL1   C11 6954   1.527   0.546   9.753 -0.1244  0.7436  0.0598
   61CHL1  H11A 6955   1.558   0.652   9.766  2.6800 -0.0466  0.3944
   61CHL1  H11B 6956   1.452   0.537   9.835  1.8660  1.5109  2.0716
   61CHL1    C9 6957   1.640   0.438   9.768 -0.1071  0.3495 -0.0412
   61CHL1    H9 6958   1.583   0.343   9.771  2.7912 -1.5424 -0.7921
   61CHL1   C10 6959   1.717   0.437   9.900 -0.4649  0.2885  0.1074
   61CHL1   C19 6960   1.769   0.588   9.927 -0.0030 -0.6804 -0.2653
   61CHL1  H19A 6961   1.686   0.660   9.946  0.6141  0.5937 -2.1431
   61CHL1  H19B 6962   1.825   0.578  10.022 -0.8147 -1.5829  0.1363
   61CHL1  H19C 6963   1.837   0.628   9.849 -1.9450  3.0517 -0.2849
   61CHL1    C1 6964   1.612   0.399  10.011  0.7089  0.0499 -0.7509
   61CHL1   H1A 6965   1.538   0.480  10.030  0.3498 -0.2575 -0.8458
   61CHL1   H1B 6966   1.553   0.307   9.996 -0.1713  0.8712 -2.6024
   61CHL1    C2 6967   1.678   0.382  10.154 -1.0299  0.4445 -0.0265
   61CHL1   H2A 6968   1.609   0.339  10.229  0.7450  0.0113  1.4184
   61CHL1   H2B 6969   1.732   0.471  10.192 -0.7421 -0.5908  2.1284
   61CHL1   C20 6970   1.423   0.660   9.286 -0.2666 -0.7128 -0.3540
   61CHL1   H20 6971   1.503   0.734   9.266 -0.6180 -0.6394 -1.5265
   61CHL1   C21 6972   1.309   0.724   9.380  0.3042  0.5880 -0.0822
   61CHL1  H21A 6973   1.250   0.646   9.434  0.9831 -0.3113 -0.6125
   61CHL1  H21B 6974   1.240   0.783   9.316  0.2430  0.3482 -0.2412
   61CHL1  H21C 6975   1.349   0.790   9.460  0.5795 -1.5653  1.6619
   61CHL1   C22 6976   1.364   0.613   9.155  0.0548  0.3528 -0.3284
   61CHL1  H22A 6977   1.437   0.550   9.101 -2.0275 -0.1409 -2.7293
   61CHL1  H22B 6978   1.277   0.548   9.180 -0.7339  1.6229  0.4064
   61CHL1   C23 6979   1.327   0.723   9.063  0.2299  0.2997 -0.0879
   61CHL1  H23A 6980   1.243   0.778   9.110 -0.9542 -2.4559  1.2478
   61CHL1  H23B 6981   1.415   0.788   9.046 -1.0962  3.0105  2.6606
   61CHL1   C24 6982   1.258   0.653   8.941 -0.6267  0.1324  0.3403
   61CHL1  H24A 6983   1.314   0.567   8.899  0.2580  0.9856 -0.2747
   61CHL1  H24B 6984   1.171   0.598   8.984  1.1659 -0.5131  3.4394
   61CHL1   C25 6985   1.212   0.750   8.827 -0.3712 -0.6111  0.2957
   61CHL1   H25 6986   1.155   0.830   8.880  1.3873  0.3397  0.8507
   61CHL1   C26 6987   1.338   0.818   8.767  0.5723  0.1900  0.0300
   61CHL1  H26A 6988   1.361   0.886   8.852  1.6997  0.4292 -0.4395
   61CHL1  H26B 6989   1.407   0.736   8.738 -1.0679 -0.3585 -2.5973
   61CHL1  H26C 6990   1.301   0.881   8.683  0.4812  1.2360  0.8283
   61CHL1   C27 6991   1.136   0.679   8.716 -0.4325 -0.1484 -0.2700
   61CHL1  H27A 6992   1.054   0.621   8.764 -0.7254 -1.0613 -1.8106
   61CHL1  H27B 6993   1.094   0.749   8.641  1.6571  0.1720 -1.2040
   61CHL1  H27C 6994   1.201   0.605   8.667  3.5599  1.3934  2.1885
   62CHL1    C3 6995   2.640   6.569   9.965  0.1087  0.1273 -0.0154
   62CHL1    H3 6996   2.549   6.609   9.915 -0.8848 -2.2995 -0.2822
   62CHL1    O3 6997   2.616   6.598  10.102  0.6013 -0.3549  0.3409
   62CHL1   H3' 6998   2.554   6.528  10.124 -0.1184 -0.8792 -2.8202
   62CHL1    C4 6999   2.640   6.409   9.953 -0.4291 -0.3013  0.1730
   62CHL1   H4A 7000   2.722   6.367  10.016 -0.2373  1.1423  0.9223
   62CHL1   H4B 7001   2.548   6.360   9.991 -0.5001 -1.7895 -1.7496
   62CHL1    C5 7002   2.676   6.364   9.816 -0.0513 -0.3740 -0.4649
   62CHL1    C6 7003   2.597   6.280   9.753  0.1597  0.3987 -0.2202
   62CHL1    H6 7004   2.497   6.270   9.798  0.2010  2.1517  0.3385
   62CHL1    C7 7005   2.618   6.222   9.622 -0.1170  0.8800 -0.1150
   62CHL1   H7A 7006   2.603   6.112   9.626  2.1293  0.4878 -1.2297
   62CHL1   H7B 7007   2.541   6.264   9.552  0.6556 -0.2391 -1.7052
   62CHL1    C8 7008   2.756   6.249   9.563 -0.1472 -0.4677  0.3489
   62CHL1    H8 7009   2.834   6.180   9.600  2.1569  0.5910 -2.2128
   62CHL1   C14 7010   2.760   6.239   9.406  0.4955  0.4418 -0.5314
   62CHL1   H14 7011   2.687   6.313   9.368 -0.8307 -0.4255  0.2410
   62CHL1   C15 7012   2.723   6.105   9.342  0.1298 -0.1475 -0.0140
   62CHL1  H15A 7013   2.746   6.012   9.399 -1.1470  1.3853  3.2811
   62CHL1  H15B 7014   2.613   6.116   9.326  0.1319 -0.6846 -0.3943
   62CHL1   C16 7015   2.791   6.113   9.204  0.1104  0.0970 -0.5906
   62CHL1  H16A 7016   2.865   6.031   9.194  0.1671  0.3491 -2.6297
   62CHL1  H16B 7017   2.721   6.101   9.119 -3.6072  3.7065  1.5725
   62CHL1   C17 7018   2.866   6.250   9.199 -0.0659 -0.5941  0.4036
   62CHL1   H17 7019   2.794   6.328   9.167  1.6560  1.1059  0.4719
   62CHL1   C13 7020   2.897   6.277   9.345  0.5879  0.0069  0.1414
   62CHL1   C18 7021   3.010   6.184   9.389  0.0394 -0.5406 -0.7646
   62CHL1  H18A 7022   3.011   6.184   9.500 -0.8712  0.6925 -0.7317
   62CHL1  H18B 7023   2.996   6.077   9.364 -1.6282 -0.7270  0.8134
   62CHL1  H18C 7024   3.107   6.209   9.340 -0.0443 -2.0240 -1.7530
   62CHL1   C12 7025   2.930   6.423   9.381 -0.2280  0.8536  0.1383
   62CHL1  H12A 7026   3.029   6.447   9.337  0.0769 -0.4388  0.0583
   62CHL1  H12B 7027   2.855   6.488   9.331  0.3305  0.3925 -1.3660
   62CHL1   C11 7028   2.932   6.441   9.528  0.8054  0.6301 -0.5231
   62CHL1  H11A 7029   3.025   6.397   9.570 -0.5193 -3.6994 -1.6302
   62CHL1  H11B 7030   2.939   6.552   9.536 -2.6606  0.8607  1.1670
   62CHL1    C9 7031   2.796   6.399   9.593 -0.3724  0.5225 -0.2075
   62CHL1    H9 7032   2.716   6.469   9.558 -1.3181  0.4069  1.6055
   62CHL1   C10 7033   2.803   6.431   9.748 -0.9727 -0.0595  0.2459
   62CHL1   C19 7034   2.932   6.367   9.799 -0.3996 -0.3572  0.0989
   62CHL1  H19A 7035   2.948   6.270   9.748 -0.8945  0.3169 -1.4059
   62CHL1  H19B 7036   3.020   6.430   9.771 -0.7548  0.5828  1.0079
   62CHL1  H19C 7037   2.937   6.361   9.910  0.5152 -0.0873  0.0793
   62CHL1    C1 7038   2.807   6.582   9.779  0.1054 -0.2260  0.0337
   62CHL1   H1A 7039   2.902   6.632   9.749  0.0562 -0.3466 -0.3200
   62CHL1   H1B 7040   2.724   6.629   9.722 -0.4205 -1.3783 -0.1601
   62CHL1    C2 7041   2.778   6.616   9.924  0.2594 -0.1892 -0.7297
   62CHL1   H2A 7042   2.788   6.726   9.935 -0.2758 -0.2311  0.4110
   62CHL1   H2B 7043   2.850   6.561   9.989 -0.3050 -1.3216 -1.0446
   62CHL1   C20 7044   2.984   6.243   9.099 -0.2346 -0.5932  0.2092
   62CHL1   H20 7045   3.063   6.175   9.137  0.5595 -1.0868 -2.1712
   62CHL1   C21 7046   3.056   6.379   9.081 -0.0755  0.3626  0.0196
   62CHL1  H21A 7047   2.977   6.456   9.086 -0.2677  0.1396  0.4323
   62CHL1  H21B 7048   3.109   6.376   8.983  0.0454 -1.0667  0.1006
   62CHL1  H21C 7049   3.124   6.401   9.166  1.6358 -0.7109 -0.9978
   62CHL1   C22 7050   2.941   6.190   8.970 -0.0089 -0.2565  0.0292
   62CHL1  H22A 7051   3.036   6.173   8.916  0.2971  0.0595  0.4669
   62CHL1  H22B 7052   2.895   6.091   8.986 -1.1137  0.5103  1.9266
   62CHL1   C23 7053   2.855   6.289   8.888  0.2295  0.7398  0.2573
   62CHL1  H23A 7054   2.772   6.332   8.948  0.1248 -1.9455  2.2252
   62CHL1  H23B 7055   2.928   6.367   8.857  0.9177 -0.3469 -0.9524
   62CHL1   C24 7056   2.816   6.228   8.756  0.0394  0.3790 -0.2087
   62CHL1  H24A 7057   2.900   6.167   8.715 -2.8354 -4.3592  0.1473
   62CHL1  H24B 7058   2.742   6.148   8.778 -0.4156  0.7793 -0.2692
   62CHL1   C25 7059   2.745   6.329   8.663 -0.4985 -0.7946  0.5691
   62CHL1   H25 7060   2.653   6.369   8.712 -2.5187 -1.6966 -2.2221
   62CHL1   C26 7061   2.833   6.458   8.643 -0.1327 -0.7641  0.2475
   62CHL1  H26A 7062   2.781   6.538   8.586  0.5588 -1.7927 -1.9371
   62CHL1  H26B 7063   2.843   6.517   8.737 -0.4572  4.1282 -2.4594
   62CHL1  H26C 7064   2.937   6.438   8.608 -0.5482  2.6151 -3.6830
   62CHL1   C27 7065   2.695   6.270   8.529  0.2212  0.3214 -0.7293
   62CHL1  H27A 7066   2.774   6.215   8.474  0.7143  1.6527 -1.4102
   62CHL1  H27B 7067   2.605   6.210   8.551  0.6745 -0.0062  0.2939
   62CHL1  H27C 7068   2.654   6.351   8.464 -0.6474  0.3768 -0.1187
   63CHL1    C3 7069   4.275   1.192  10.258  0.0231 -0.6877  0.0276
   63CHL1    H3 7070   4.178   1.233  10.223 -0.2312 -1.9778 -0.8848
   63CHL1    O3 7071   4.280   1.200  10.394 -0.0596  0.6839 -0.2058
   63CHL1   H3' 7072   4.335   1.273  10.424 -0.0693  0.0478  1.4930
   63CHL1    C4 7073   4.264   1.046  10.214  0.0378 -0.5353  0.2455
   63CHL1   H4A 7074   4.363   1.006  10.248 -0.7527 -2.7433  0.0987
   63CHL1   H4B 7075   4.180   0.988  10.258 -1.0278  1.3241  0.7794
   63CHL1    C5 7076   4.262   1.026  10.066 -0.4634  1.0789  0.0350
   63CHL1    C6 7077   4.156   0.956  10.007 -0.2894  0.1669 -0.4817
   63CHL1    H6 7078   4.076   0.922  10.075 -0.7208  0.0621 -1.0355
   63CHL1    C7 7079   4.152   0.931   9.858  0.4085  0.5105 -0.5026
   63CHL1   H7A 7080   4.159   0.823   9.831  0.3134  0.0768  1.1265
   63CHL1   H7B 7081   4.053   0.957   9.814  0.3955 -1.3785 -1.7010
   63CHL1    C8 7082   4.280   0.989   9.781  0.4468 -0.6868  0.0884
   63CHL1    H8 7083   4.347   0.903   9.799 -1.0176 -1.6840  1.0539
   63CHL1   C14 7084   4.237   1.020   9.642 -0.0574 -0.0812 -0.5812
   63CHL1   H14 7085   4.159   1.099   9.649  0.6043  0.4521  1.8157
   63CHL1   C15 7086   4.169   0.904   9.577 -0.2669  0.1301  0.3569
   63CHL1  H15A 7087   4.215   0.806   9.603  1.8074  0.8104 -0.5146
   63CHL1  H15B 7088   4.060   0.904   9.596 -0.5599  3.9311 -0.3953
   63CHL1   C16 7089   4.195   0.922   9.429  0.3891  0.0737 -0.2703
   63CHL1  H16A 7090   4.260   0.837   9.401  2.8499  0.7575  2.8058
   63CHL1  H16B 7091   4.098   0.917   9.376 -0.6072 -0.5286  1.5231
   63CHL1   C17 7092   4.275   1.053   9.412  0.7374  0.3249 -0.7438
   63CHL1   H17 7093   4.205   1.139   9.417 -0.2731 -0.5334  0.3552
   63CHL1   C13 7094   4.344   1.068   9.553 -0.7262 -0.5784 -0.1981
   63CHL1   C18 7095   4.468   0.974   9.544  0.3831 -0.3616 -0.0533
   63CHL1  H18A 7096   4.519   0.950   9.640 -0.9624  0.1679  0.8392
   63CHL1  H18B 7097   4.446   0.874   9.502 -2.9837  0.1157  0.3002
   63CHL1  H18C 7098   4.538   1.024   9.474  2.3218 -0.5258  1.6852
   63CHL1   C12 7099   4.375   1.213   9.610 -0.0959 -0.9416  0.5861
   63CHL1  H12A 7100   4.454   1.261   9.548 -1.3697  0.5761  0.0896
   63CHL1  H12B 7101   4.283   1.271   9.590 -0.0912 -1.7731 -2.2606
   63CHL1   C11 7102   4.421   1.200   9.758  0.1053 -0.3923  0.5111
   63CHL1  H11A 7103   4.511   1.135   9.755  0.0548 -0.4183 -0.8980
   63CHL1  H11B 7104   4.448   1.294   9.810 -0.0405 -0.1070  0.0773
   63CHL1    C9 7105   4.318   1.123   9.846 -1.1029  1.0643 -0.5526
   63CHL1    H9 7106   4.226   1.186   9.847 -2.5071 -0.9125 -0.0486
   63CHL1   C10 7107   4.366   1.106   9.989 -0.4945 -0.3751 -0.0874
   63CHL1   C19 7108   4.507   1.037   9.999 -0.6173 -0.0961  0.2914
   63CHL1  H19A 7109   4.536   1.026  10.106  0.7235 -0.2330 -0.0710
   63CHL1  H19B 7110   4.485   0.939   9.953 -3.0545  0.1349  0.8076
   63CHL1  H19C 7111   4.582   1.081   9.929 -1.0481 -2.8323 -2.0747
   63CHL1    C1 7112   4.392   1.256  10.048 -0.4023  0.5847  0.5303
   63CHL1   H1A 7113   4.490   1.291  10.009 -0.1315 -0.8952 -0.1962
   63CHL1   H1B 7114   4.318   1.324  10.001  1.1557  1.3795 -0.8987
   63CHL1    C2 7115   4.394   1.263  10.200 -0.2474  0.4203 -0.3457
   63CHL1   H2A 7116   4.392   1.372  10.222 -1.2211  0.3254  0.1297
   63CHL1   H2B 7117   4.489   1.217  10.234 -0.4363  0.5467  0.3786
   63CHL1   C20 7118   4.356   1.058   9.281  0.3325  0.3910 -0.4899
   63CHL1   H20 7119   4.423   0.969   9.287  0.3358  0.4428  0.3620
   63CHL1   C21 7120   4.435   1.192   9.287  0.9828 -0.0499 -0.0310
   63CHL1  H21A 7121   4.508   1.209   9.369  0.9015  0.3915 -0.0467
   63CHL1  H21B 7122   4.369   1.280   9.273 -2.1989 -2.5042 -1.7313
   63CHL1  H21C 7123   4.502   1.186   9.199 -0.6737 -0.7353 -1.3121
   63CHL1   C22 7124   4.269   1.042   9.152 -0.3880  0.1794  0.4752
   63CHL1  H22A 7125   4.189   0.965   9.156  1.3793 -1.8436 -0.9750
   63CHL1  H22B 7126   4.222   1.140   9.129  1.0297  0.5289 -1.0891
   63CHL1   C23 7127   4.345   1.001   9.027  0.0721  0.1556 -0.2038
   63CHL1  H23A 7128   4.370   1.100   8.985 -4.1637  0.7187 -1.9741
   63CHL1  H23B 7129   4.442   0.951   9.050  0.6076  1.6946  1.0126
   63CHL1   C24 7130   4.264   0.915   8.916 -0.2148 -0.4476 -0.4920
   63CHL1  H24A 7131   4.239   0.813   8.951 -1.1943 -0.0196  0.0793
   63CHL1  H24B 7132   4.168   0.968   8.899 -0.2503 -0.8007 -1.4338
   63CHL1   C25 7133   4.337   0.908   8.779 -0.7849  0.6687 -0.6578
   63CHL1   H25 7134   4.427   0.849   8.807 -2.0944 -1.0410  0.1813
   63CHL1   C26 7135   4.252   0.825   8.681  0.1159  0.3365  0.4772
   63CHL1  H26A 7136   4.149   0.865   8.670  0.2278  0.5142  0.0611
   63CHL1  H26B 7137   4.305   0.825   8.583 -0.2087 -0.9374  0.2818
   63CHL1  H26C 7138   4.240   0.720   8.714  0.0712 -0.7198 -2.5774
   63CHL1   C27 7139   4.380   1.035   8.718  0.0135 -0.6280 -0.1698
   63CHL1  H27A 7140   4.454   1.083   8.786 -1.5339 -1.2603  2.0550
   63CHL1  H27B 7141   4.427   1.011   8.621  2.6334 -2.8982  1.5101
   63CHL1  H27C 7142   4.288   1.096   8.716 -0.3653 -1.2036 -0.6902
   64CHL1    C3 7143   2.773   0.215   9.887  0.0875 -0.1197  0.1876
   64CHL1    H3 7144   2.717   0.119   9.881  0.0722 -0.0658 -0.7109
   64CHL1    O3 7145   2.801   0.250  10.022  0.3366 -0.0516  0.1497
   64CHL1   H3' 7146   2.846   0.334  10.027  1.5808 -0.7609  2.5133
   64CHL1    C4 7147   2.911   0.178   9.824 -0.4057  0.7482  0.3623
   64CHL1   H4A 7148   2.979   0.262   9.849 -2.2800  1.9143  1.8444
   64CHL1   H4B 7149   2.953   0.090   9.877  2.2772  1.9552  0.4053
   64CHL1    C5 7150   2.899   0.157   9.674  0.4014  0.7034 -0.3734
   64CHL1    C6 7151   2.955   0.046   9.616  0.1446 -0.3453 -0.2366
   64CHL1    H6 7152   3.009  -0.026   9.678 -0.9420 -0.9559  0.0261
   64CHL1    C7 7153   2.963   0.036   9.468  0.4287  0.5084  0.4273
   64CHL1   H7A 7154   3.065   0.012   9.430 -0.0831  1.5778 -1.8270
   64CHL1   H7B 7155   2.898  -0.046   9.432  1.3803  0.6970 -1.9279
   64CHL1    C8 7156   2.907   0.159   9.398 -0.4787  0.0302  0.1073
   64CHL1    H8 7157   2.989   0.234   9.392  0.1745 -0.7400 -0.8420
   64CHL1   C14 7158   2.875   0.120   9.251  0.1236 -0.2885  0.4591
   64CHL1   H14 7159   2.788   0.054   9.269 -1.3409  2.0268  2.4843
   64CHL1   C15 7160   2.981   0.048   9.173  0.0985  0.3350 -0.0761
   64CHL1  H15A 7161   3.080   0.095   9.194  0.0509  0.6161 -0.4665
   64CHL1  H15B 7162   2.983  -0.059   9.204 -4.3234  0.3937  1.0312
   64CHL1   C16 7163   2.938   0.062   9.027  0.4571  0.0062  0.0459
   64CHL1  H16A 7164   3.039   0.074   8.984  1.3565  0.0720  2.0731
   64CHL1  H16B 7165   2.898  -0.036   8.991 -0.6761  1.1241 -1.9185
   64CHL1   C17 7166   2.810   0.160   9.022  0.3693 -0.1823 -1.2915
   64CHL1   H17 7167   2.719   0.097   9.025 -0.7695  1.4258 -0.8538
   64CHL1   C13 7168   2.818   0.233   9.161  0.3038 -1.1210  0.3293
   64CHL1   C18 7169   2.917   0.352   9.147 -0.0690 -0.1323  0.1202
   64CHL1  H18A 7170   2.999   0.304   9.089 -0.9658 -1.8816  0.2463
   64CHL1  H18B 7171   2.862   0.426   9.086 -0.3588 -0.0003  0.5393
   64CHL1  H18C 7172   2.953   0.390   9.245 -3.4004  0.8848  1.0728
   64CHL1   C12 7173   2.692   0.275   9.222 -0.3236 -0.9009 -0.0779
   64CHL1  H12A 7174   2.647   0.358   9.163  0.3812 -1.0883 -0.8999
   64CHL1  H12B 7175   2.624   0.187   9.223 -1.1784 -0.2602  0.2232
   64CHL1   C11 7176   2.710   0.326   9.369 -0.3080  0.1995  0.5392
   64CHL1  H11A 7177   2.759   0.425   9.376  0.1549  0.4821 -3.8555
   64CHL1  H11B 7178   2.612   0.353   9.413 -1.5581 -0.2919 -1.7685
   64CHL1    C9 7179   2.786   0.220   9.462  0.1394  0.3794 -0.1740
   64CHL1    H9 7180   2.716   0.135   9.472  0.0048  0.5732  0.6220
   64CHL1   C10 7181   2.808   0.264   9.601  0.2682  0.3603 -0.8739
   64CHL1   C19 7182   2.904   0.388   9.602 -0.5833 -0.6075 -0.4193
   64CHL1  H19A 7183   2.864   0.473   9.543  2.2715  1.4681  0.4243
   64CHL1  H19B 7184   2.929   0.425   9.704 -0.6903  0.1044 -0.6477
   64CHL1  H19C 7185   3.000   0.376   9.548 -0.4080 -0.3708 -0.1640
   64CHL1    C1 7186   2.675   0.302   9.675  0.5488 -0.2298 -0.0635
   64CHL1   H1A 7187   2.641   0.397   9.628  1.4581  0.1103 -0.0568
   64CHL1   H1B 7188   2.595   0.225   9.661  0.3514 -0.6035  2.6622
   64CHL1    C2 7189   2.696   0.328   9.823 -0.3555 -0.2098  0.0689
   64CHL1   H2A 7190   2.607   0.337   9.888 -1.1939 -3.5257 -0.4130
   64CHL1   H2B 7191   2.755   0.422   9.827  0.8904 -1.0054  1.6029
   64CHL1   C20 7192   2.804   0.237   8.890  0.3541 -0.3054 -0.0753
   64CHL1   H20 7193   2.902   0.283   8.865  0.3305 -0.9038 -1.3516
   64CHL1   C21 7194   2.681   0.334   8.885 -0.4100 -0.5847 -0.0794
   64CHL1  H21A 7195   2.667   0.391   8.791 -0.9412  1.7715  1.3511
   64CHL1  H21B 7196   2.701   0.416   8.957  0.7770 -0.3819 -0.6101
   64CHL1  H21C 7197   2.594   0.273   8.917  1.2440 -2.1477  1.7526
   64CHL1   C22 7198   2.787   0.136   8.771 -0.4056 -0.1943  0.2847
   64CHL1  H22A 7199   2.770   0.200   8.682 -2.5816 -1.4521 -0.2763
   64CHL1  H22B 7200   2.878   0.076   8.748 -0.1589  0.1233  0.4158
   64CHL1   C23 7201   2.669   0.039   8.767  0.2046 -0.5067 -0.6483
   64CHL1  H23A 7202   2.687  -0.048   8.833  1.4295  0.0780 -0.1844
   64CHL1  H23B 7203   2.574   0.094   8.787  1.1056  1.0361 -0.4285
   64CHL1   C24 7204   2.651  -0.017   8.621  0.6359 -0.1619  0.5913
   64CHL1  H24A 7205   2.634   0.064   8.546  0.8409 -2.5471 -2.2312
   64CHL1  H24B 7206   2.751  -0.058   8.595  0.2560 -0.8671  0.2188
   64CHL1   C25 7207   2.530  -0.121   8.612  0.2077 -0.0581 -0.0247
   64CHL1   H25 7208   2.546  -0.206   8.682 -0.4353  1.6024  2.2532
   64CHL1   C26 7209   2.389  -0.075   8.650 -0.3759  0.2203 -0.0025
   64CHL1  H26A 7210   2.385  -0.003   8.734 -0.6902  1.3878 -0.9967
   64CHL1  H26B 7211   2.345  -0.025   8.562  2.0498  0.4532 -1.1669
   64CHL1  H26C 7212   2.344  -0.176   8.665  0.2535 -0.0866 -0.1463
   64CHL1   C27 7213   2.522  -0.176   8.469  0.1582 -0.9832  0.2194
   64CHL1  H27A 7214   2.524  -0.092   8.397  1.7867 -0.5183  0.7573
   64CHL1  H27B 7215   2.619  -0.229   8.458  0.2228 -1.0234  0.9432
   64CHL1  H27C 7216   2.445  -0.248   8.434  1.2453 -1.6817 -0.7773
   65CHL1    C3 7217   5.540   4.329  10.238  0.2477  0.1295  0.3788
   65CHL1    H3 7218   5.550   4.440  10.231 -0.2179  0.2421  1.4141
   65CHL1    O3 7219   5.555   4.292  10.366  0.0964 -0.0608  0.4522
   65CHL1   H3' 7220   5.522   4.202  10.374 -2.0218  0.5470 -0.8164
   65CHL1    C4 7221   5.406   4.286  10.189  0.6402 -0.4026 -0.1539
   65CHL1   H4A 7222   5.390   4.176  10.186 -2.7211  0.0092 -0.8633
   65CHL1   H4B 7223   5.335   4.324  10.265  0.3108  2.9752 -1.9508
   65CHL1    C5 7224   5.383   4.329  10.053 -0.5718  0.0533  0.1750
   65CHL1    C6 7225   5.277   4.403  10.021  0.5349  0.8802 -0.1894
   65CHL1    H6 7226   5.212   4.444  10.100  1.5517  1.1149  0.5456
   65CHL1    C7 7227   5.245   4.444   9.878 -0.2791 -0.2594  0.2008
   65CHL1   H7A 7228   5.148   4.399   9.851  0.2267 -1.9733  1.0759
   65CHL1   H7B 7229   5.237   4.554   9.870 -5.0306 -0.4654 -0.7456
   65CHL1    C8 7230   5.343   4.384   9.764  0.1139  0.3902 -0.9446
   65CHL1    H8 7231   5.311   4.279   9.741  2.8500 -1.2280  1.8783
   65CHL1   C14 7232   5.332   4.465   9.639  0.2547  0.9575 -0.4435
   65CHL1   H14 7233   5.379   4.561   9.669 -0.4340  1.1993 -0.1390
   65CHL1   C15 7234   5.188   4.478   9.584 -0.7267 -0.2419  0.0663
   65CHL1  H15A 7235   5.153   4.373   9.575 -0.4821 -0.1362 -2.9539
   65CHL1  H15B 7236   5.108   4.543   9.625 -0.4218  0.0996  0.1342
   65CHL1   C16 7237   5.223   4.519   9.440  0.0607  0.3420 -0.6760
   65CHL1  H16A 7238   5.166   4.463   9.362  0.8811 -0.6765 -0.5668
   65CHL1  H16B 7239   5.207   4.628   9.429 -3.4076  0.0078 -0.0512
   65CHL1   C17 7240   5.382   4.499   9.417 -0.8190 -0.3894  0.4275
   65CHL1   H17 7241   5.437   4.593   9.442 -0.0174 -0.6169 -0.4247
   65CHL1   C13 7242   5.422   4.401   9.524  0.3868 -0.4272  0.5792
   65CHL1   C18 7243   5.373   4.266   9.471 -0.3038 -0.1285  0.4652
   65CHL1  H18A 7244   5.366   4.189   9.551 -2.1734  0.5372  0.9871
   65CHL1  H18B 7245   5.270   4.267   9.429 -0.6456  0.0303  1.2765
   65CHL1  H18C 7246   5.439   4.230   9.389 -1.1183 -3.2674  1.0408
   65CHL1   C12 7247   5.564   4.403   9.580 -0.4181  0.0458 -0.2230
   65CHL1  H12A 7248   5.654   4.382   9.518 -0.2750  3.1875 -1.2944
   65CHL1  H12B 7249   5.584   4.507   9.616  0.0437 -0.1367  0.0541
   65CHL1   C11 7250   5.583   4.313   9.707 -0.2858  0.4794 -0.0632
   65CHL1  H11A 7251   5.556   4.208   9.683 -0.7874  0.5418  0.2136
   65CHL1  H11B 7252   5.688   4.307   9.743 -0.3671  0.2792  0.1457
   65CHL1    C9 7253   5.489   4.364   9.817  0.1548 -0.8679  0.2759
   65CHL1    H9 7254   5.519   4.467   9.845  1.2619 -0.7986 -1.0367
   65CHL1   C10 7255   5.497   4.281   9.950  0.1514 -0.8273 -0.7961
   65CHL1   C19 7256   5.459   4.131   9.925  0.4365 -0.7032 -0.1178
   65CHL1  H19A 7257   5.479   4.076  10.020  4.7014  0.9795  0.1809
   65CHL1  H19B 7258   5.354   4.117   9.891  1.1959 -1.1547 -2.4382
   65CHL1  H19C 7259   5.516   4.074   9.849  0.5491  3.0515 -3.1537
   65CHL1    C1 7260   5.638   4.298  10.008 -0.4480 -0.0676 -0.2405
   65CHL1   H1A 7261   5.712   4.242   9.948  0.8603  0.5099  0.7727
   65CHL1   H1B 7262   5.664   4.406   9.997  0.3002 -0.3714 -1.6404
   65CHL1    C2 7263   5.650   4.263  10.160 -0.3299 -0.5824 -0.6223
   65CHL1   H2A 7264   5.749   4.302  10.190 -0.7236 -1.1282  1.5321
   65CHL1   H2B 7265   5.647   4.152  10.162  1.3129 -0.7105 -2.3201
   65CHL1   C20 7266   5.428   4.483   9.273  0.8412 -0.7536  0.6805
   65CHL1   H20 7267   5.393   4.389   9.225  0.3606  0.3628 -1.2611
   65CHL1   C21 7268   5.586   4.465   9.259  0.0516 -0.5353 -0.4398
   65CHL1  H21A 7269   5.626   4.373   9.307 -2.0748 -0.6657  1.2495
   65CHL1  H21B 7270   5.633   4.559   9.296 -2.2855 -0.3057  2.2617
   65CHL1  H21C 7271   5.612   4.465   9.151 -1.7930  0.8758 -0.9399
   65CHL1   C22 7272   5.379   4.608   9.174 -0.0027 -0.1773 -0.9133
   65CHL1  H22A 7273   5.268   4.616   9.176  0.0462  2.8745 -2.9310
   65CHL1  H22B 7274   5.422   4.700   9.217  0.4737 -0.8337  0.0480
   65CHL1   C23 7275   5.416   4.599   9.021  0.0933  0.0784  0.1407
   65CHL1  H23A 7276   5.526   4.610   9.006  0.2323 -2.9256 -1.9322
   65CHL1  H23B 7277   5.386   4.498   8.985  2.2636 -1.0181  1.1823
   65CHL1   C24 7278   5.346   4.711   8.941  0.1963  0.3914  0.0093
   65CHL1  H24A 7279   5.239   4.705   8.968 -0.2501 -0.9133 -1.8217
   65CHL1  H24B 7280   5.385   4.813   8.963  1.9661  0.1424 -1.6826
   65CHL1   C25 7281   5.341   4.682   8.792  0.8576  0.0463 -0.0040
   65CHL1   H25 7282   5.309   4.578   8.771  0.9793  0.1877 -0.9542
   65CHL1   C26 7283   5.247   4.774   8.717  0.2609  0.2460  0.0867
   65CHL1  H26A 7284   5.242   4.740   8.612 -1.6526  0.3353  0.1142
   65CHL1  H26B 7285   5.145   4.794   8.756  0.4439  0.2742  0.5685
   65CHL1  H26C 7286   5.296   4.874   8.718 -2.0590  1.4980  2.6337
   65CHL1   C27 7287   5.486   4.709   8.741 -0.2336 -0.0184 -0.0307
   65CHL1  H27A 7288   5.509   4.817   8.755  2.1185 -0.6741  1.9877
   65CHL1  H27B 7289   5.566   4.654   8.796  1.2167  1.9815 -0.0608
   65CHL1  H27C 7290   5.495   4.684   8.633 -1.0365  1.8252 -0.5583
   66CHL1    C3 7291   2.946   2.606  10.467  0.3170  0.4168  0.1367
   66CHL1    H3 7292   3.053   2.637  10.463  1.2411 -2.2280  1.4607
   66CHL1    O3 7293   2.916   2.570  10.604 -0.5150 -0.8935  0.6715
   66CHL1   H3' 7294   2.821   2.583  10.607 -0.4795 -0.5060  0.2187
   66CHL1    C4 7295   2.846   2.720  10.425  0.3279 -0.2512  0.2237
   66CHL1   H4A 7296   2.746   2.685  10.457  0.9463 -3.0877 -0.6572
   66CHL1   H4B 7297   2.876   2.807  10.488  0.8437 -2.0401  2.6087
   66CHL1    C5 7298   2.844   2.745  10.275  0.4167  0.3632 -0.1839
   66CHL1    C6 7299   2.875   2.861  10.230  0.3438  0.4662 -0.1944
   66CHL1    H6 7300   2.899   2.935  10.308 -1.5102  0.5370  0.3819
   66CHL1    C7 7301   2.878   2.899  10.085 -0.1774  0.1242  0.8447
   66CHL1   H7A 7302   2.830   2.998  10.069  0.7198  0.4231 -0.1563
   66CHL1   H7B 7303   2.984   2.899  10.049 -0.2708 -2.9862  0.2914
   66CHL1    C8 7304   2.804   2.795  10.004  0.0042  0.4584 -0.6303
   66CHL1    H8 7305   2.694   2.813  10.010 -0.2979 -1.1449 -0.8438
   66CHL1   C14 7306   2.851   2.814   9.856 -0.4798 -0.0173  0.0172
   66CHL1   H14 7307   2.961   2.807   9.851 -0.4800  0.7474 -2.7397
   66CHL1   C15 7308   2.834   2.956   9.791 -0.6588 -0.7618 -0.2800
   66CHL1  H15A 7309   2.738   3.009   9.808  1.0210  1.7693  2.2072
   66CHL1  H15B 7310   2.916   3.025   9.820  0.9704 -2.0438 -1.5707
   66CHL1   C16 7311   2.852   2.930   9.640 -0.9752 -0.1098  0.0803
   66CHL1  H16A 7312   2.766   2.973   9.585 -1.6608 -0.2846  0.9941
   66CHL1  H16B 7313   2.941   2.983   9.600 -1.2162  1.0496  1.0298
   66CHL1   C17 7314   2.867   2.774   9.621 -0.3514 -0.2431 -0.6565
   66CHL1   H17 7315   2.975   2.765   9.646 -0.5464  0.4314  0.5245
   66CHL1   C13 7316   2.802   2.713   9.750 -0.7470  0.3864  0.3567
   66CHL1   C18 7317   2.653   2.729   9.730 -0.1479 -0.9963 -0.1375
   66CHL1  H18A 7318   2.602   2.681   9.643 -1.6422  0.4043 -0.0938
   66CHL1  H18B 7319   2.593   2.695   9.817  2.0503  5.5637  4.7045
   66CHL1  H18C 7320   2.628   2.838   9.734 -0.5204 -1.0411 -1.0018
   66CHL1   C12 7321   2.850   2.578   9.790 -0.3806  0.3901  0.5153
   66CHL1  H12A 7322   2.803   2.510   9.716  0.2736  1.6600 -1.1410
   66CHL1  H12B 7323   2.959   2.571   9.770 -0.3897 -0.2214  0.6725
   66CHL1   C11 7324   2.817   2.539   9.937 -0.1805 -0.1492  0.1674
   66CHL1  H11A 7325   2.706   2.531   9.939 -0.2176  0.2756  0.0770
   66CHL1  H11B 7326   2.870   2.442   9.936 -0.7849 -0.5268  1.7344
   66CHL1    C9 7327   2.855   2.652  10.039 -0.2318 -0.3679  0.1620
   66CHL1    H9 7328   2.964   2.658  10.020 -0.1906 -1.4726 -0.0193
   66CHL1   C10 7329   2.824   2.620  10.182 -0.3785  0.3406 -0.0035
   66CHL1   C19 7330   2.681   2.574  10.193  0.4994  0.7814 -0.5604
   66CHL1  H19A 7331   2.610   2.647  10.149 -1.5236 -1.6166 -1.5784
   66CHL1  H19B 7332   2.650   2.482  10.139 -0.4723  0.9387 -0.2958
   66CHL1  H19C 7333   2.647   2.564  10.299 -0.7055  1.7430 -0.8355
   66CHL1    C1 7334   2.928   2.517  10.235 -0.2912  0.4582 -0.1262
   66CHL1   H1A 7335   2.903   2.429  10.173 -1.9284  1.6343 -1.2056
   66CHL1   H1B 7336   3.032   2.553  10.219  0.0916 -0.8579 -0.7162
   66CHL1    C2 7337   2.916   2.479  10.385  0.1396  0.9138  0.2029
   66CHL1   H2A 7338   2.987   2.401  10.418  2.2768  2.6316 -0.1116
   66CHL1   H2B 7339   2.810   2.447  10.400 -0.0727  1.7163  0.5034
   66CHL1   C20 7340   2.839   2.715   9.485 -0.5337  0.3126 -0.2851
   66CHL1   H20 7341   2.731   2.691   9.477 -1.0638  2.2130  0.7327
   66CHL1   C21 7342   2.923   2.583   9.463  0.7327  0.1711 -0.0658
   66CHL1  H21A 7343   2.897   2.540   9.364  0.9517 -0.4472  0.1362
   66CHL1  H21B 7344   2.905   2.507   9.543 -0.1621 -0.0627 -0.4844
   66CHL1  H21C 7345   3.027   2.621   9.455  0.6073  0.4805 -0.2317
   66CHL1   C22 7346   2.865   2.823   9.370  0.1456 -0.5139 -0.0359
   66CHL1  H22A 7347   2.808   2.917   9.386  1.6734  0.3143  0.8091
   66CHL1  H22B 7348   2.972   2.852   9.369 -0.8307  4.1073 -3.4252
   66CHL1   C23 7349   2.819   2.769   9.235  0.3215 -0.2514  0.1919
   66CHL1  H23A 7350   2.870   2.674   9.211 -0.5334 -1.0750  1.5282
   66CHL1  H23B 7351   2.709   2.754   9.238  0.5877 -2.3162  1.0728
   66CHL1   C24 7352   2.850   2.865   9.119  0.1635 -1.1025 -0.2706
   66CHL1  H24A 7353   2.789   2.957   9.132 -0.8253 -1.6067 -1.1729
   66CHL1  H24B 7354   2.957   2.892   9.130  0.0523  0.6918 -2.7349
   66CHL1   C25 7355   2.837   2.808   8.982  0.1016 -0.1219  1.0802
   66CHL1   H25 7356   2.735   2.767   8.963  0.2759 -0.3670  0.6828
   66CHL1   C26 7357   2.855   2.924   8.882 -0.1916 -0.3655 -0.0522
   66CHL1  H26A 7358   2.948   2.978   8.909  0.1888  0.2588 -2.4243
   66CHL1  H26B 7359   2.873   2.878   8.783  1.7648 -1.4475  0.7470
   66CHL1  H26C 7360   2.765   2.989   8.878  1.5779  2.2004 -0.2847
   66CHL1   C27 7361   2.933   2.701   8.953 -0.1223  0.4525  0.1602
   66CHL1  H27A 7362   2.959   2.685   8.847 -2.1892 -4.0604  0.0772
   66CHL1  H27B 7363   3.023   2.709   9.017 -0.3527  0.2495  0.5212
   66CHL1  H27C 7364   2.885   2.607   8.989 -0.1341 -0.1342 -1.3504
   67CHL1    C3 7365   2.247   2.566  10.184  0.0416 -0.1073 -0.1953
   67CHL1    H3 7366   2.284   2.669  10.162  1.0021 -0.7611 -1.8247
   67CHL1    O3 7367   2.194   2.561  10.318  0.5013 -0.0037  0.0553
   67CHL1   H3' 7368   2.273   2.570  10.370  0.0614  0.2321  0.6912
   67CHL1    C4 7369   2.132   2.525  10.086 -0.3393 -0.5249 -0.5896
   67CHL1   H4A 7370   2.101   2.428  10.129  0.6222 -0.0389  1.2976
   67CHL1   H4B 7371   2.040   2.584  10.105  1.1495  1.3635  1.2449
   67CHL1    C5 7372   2.176   2.522   9.943 -0.6015  0.0873 -0.0014
   67CHL1    C6 7373   2.111   2.588   9.851  0.1901  0.5541 -0.1800
   67CHL1    H6 7374   2.023   2.640   9.892 -0.4302 -1.4700  1.1884
   67CHL1    C7 7375   2.139   2.583   9.705  0.1880  0.0107 -0.0810
   67CHL1   H7A 7376   2.049   2.567   9.642  1.1249 -2.4635 -0.9525
   67CHL1   H7B 7377   2.189   2.678   9.678  0.8444  0.2334  1.8174
   67CHL1    C8 7378   2.239   2.473   9.666  0.6689 -0.1726 -0.2422
   67CHL1    H8 7379   2.176   2.382   9.654  0.1416 -0.1114  1.6276
   67CHL1   C14 7380   2.317   2.509   9.536 -0.8382  0.2592 -0.0511
   67CHL1   H14 7381   2.394   2.584   9.564  2.5274 -2.1939 -2.1654
   67CHL1   C15 7382   2.239   2.574   9.421  0.3033  0.9018 -0.5836
   67CHL1  H15A 7383   2.137   2.531   9.411  0.6385 -0.5606  1.5612
   67CHL1  H15B 7384   2.227   2.680   9.453  1.7736  0.7508  0.5907
   67CHL1   C16 7385   2.326   2.541   9.304 -0.4548 -0.3664  0.4280
   67CHL1  H16A 7386   2.267   2.477   9.234  1.4884  0.0429 -1.7311
   67CHL1  H16B 7387   2.340   2.631   9.240 -0.6574 -0.0361  0.8459
   67CHL1   C17 7388   2.454   2.469   9.345 -0.4866 -0.4984 -0.6146
   67CHL1   H17 7389   2.527   2.548   9.372 -1.2844  0.5532 -1.4453
   67CHL1   C13 7390   2.410   2.398   9.480 -0.2037 -0.0955  0.1766
   67CHL1   C18 7391   2.332   2.270   9.440  0.2079 -0.2265  0.2747
   67CHL1  H18A 7392   2.407   2.198   9.400  0.1432  0.8028 -1.7842
   67CHL1  H18B 7393   2.284   2.219   9.527  2.4175 -4.2938 -0.6385
   67CHL1  H18C 7394   2.265   2.293   9.355  0.0060 -0.2656  0.4242
   67CHL1   C12 7395   2.517   2.375   9.590  0.5558 -0.2176 -0.0926
   67CHL1  H12A 7396   2.593   2.296   9.575  3.0887  2.1884 -0.9462
   67CHL1  H12B 7397   2.571   2.472   9.599  1.8054 -0.3964 -3.9227
   67CHL1   C11 7398   2.451   2.343   9.729 -0.3433 -0.4953 -0.1037
   67CHL1  H11A 7399   2.403   2.244   9.712  0.4129 -0.4783 -2.7154
   67CHL1  H11B 7400   2.530   2.330   9.806  1.0326 -0.6257 -1.4854
   67CHL1    C9 7401   2.344   2.449   9.777 -1.1599 -0.2005  1.0758
   67CHL1    H9 7402   2.411   2.538   9.776 -2.0620  0.5601 -1.8905
   67CHL1   C10 7403   2.298   2.425   9.919 -0.4965  0.6927  0.8213
   67CHL1   C19 7404   2.258   2.281   9.933  0.0690  0.5972  0.1087
   67CHL1  H19A 7405   2.201   2.261  10.026 -2.3389 -1.5677 -1.6696
   67CHL1  H19B 7406   2.185   2.252   9.854 -0.0952  0.6793  0.2283
   67CHL1  H19C 7407   2.347   2.216   9.934 -0.0530  0.3550  2.7438
   67CHL1    C1 7408   2.407   2.471  10.021  0.1045 -0.4018  1.0308
   67CHL1   H1A 7409   2.494   2.405  10.001 -0.5826 -0.4306 -2.4233
   67CHL1   H1B 7410   2.440   2.572   9.989  0.9562 -1.1479 -0.5732
   67CHL1    C2 7411   2.359   2.465  10.166  0.0048  0.0690 -0.0384
   67CHL1   H2A 7412   2.431   2.483  10.249 -0.4174  1.2710  0.0832
   67CHL1   H2B 7413   2.312   2.368  10.194  0.0221 -0.2112 -0.9501
   67CHL1   C20 7414   2.517   2.383   9.242 -0.0286 -0.2819  0.1766
   67CHL1   H20 7415   2.452   2.294   9.223  0.1665 -0.0006 -2.1455
   67CHL1   C21 7416   2.646   2.323   9.302  0.2040 -1.0375  0.4712
   67CHL1  H21A 7417   2.713   2.403   9.339  0.3577 -0.8852 -0.1306
   67CHL1  H21B 7418   2.697   2.272   9.217  0.0440  0.3968 -0.5196
   67CHL1  H21C 7419   2.630   2.250   9.384  1.2113  1.6784  3.2767
   67CHL1   C22 7420   2.534   2.452   9.103 -0.3198  0.0512  0.7450
   67CHL1  H22A 7421   2.433   2.494   9.087 -0.2460 -0.0966 -0.1748
   67CHL1  H22B 7422   2.607   2.534   9.120 -0.6339  0.0447  2.3019
   67CHL1   C23 7423   2.577   2.354   8.991  1.0240  0.2111 -0.0491
   67CHL1  H23A 7424   2.661   2.287   9.018  1.0868  0.0805 -0.5575
   67CHL1  H23B 7425   2.487   2.290   8.982 -1.1408  2.9647  0.4242
   67CHL1   C24 7426   2.604   2.438   8.862  0.5379 -0.0769  0.1548
   67CHL1  H24A 7427   2.513   2.494   8.833  1.5446  0.4034 -2.2179
   67CHL1  H24B 7428   2.689   2.505   8.885 -0.2000  1.2568 -0.9080
   67CHL1   C25 7429   2.669   2.358   8.751  0.5137  0.0637  0.8448
   67CHL1   H25 7430   2.754   2.302   8.795 -1.8086 -3.6701  1.0115
   67CHL1   C26 7431   2.571   2.250   8.696  0.5188  0.3239  0.0461
   67CHL1  H26A 7432   2.473   2.301   8.682  1.0566  1.7340  1.1111
   67CHL1  H26B 7433   2.599   2.204   8.599  0.8335  1.1319 -0.2514
   67CHL1  H26C 7434   2.565   2.165   8.767  0.5828 -1.5308 -2.0821
   67CHL1   C27 7435   2.719   2.459   8.634  0.2131  0.0427 -0.3112
   67CHL1  H27A 7436   2.769   2.404   8.552  0.0022 -1.2965  0.4365
   67CHL1  H27B 7437   2.626   2.512   8.603 -0.8197 -0.3562  1.8841
   67CHL1  H27C 7438   2.773   2.543   8.683 -1.2387  1.2639 -0.7210
   68CHL1    C3 7439   5.802   4.768  10.284  0.5433  0.4437 -0.6758
   68CHL1    H3 7440   5.773   4.875  10.290 -1.0136  0.0446 -0.4744
   68CHL1    O3 7441   5.797   4.702  10.414  0.1243 -0.2933 -0.1670
   68CHL1   H3' 7442   5.768   4.611  10.402 -1.7933  0.4122 -1.2872
   68CHL1    C4 7443   5.706   4.690  10.200 -0.3787  0.2798  0.4992
   68CHL1   H4A 7444   5.725   4.580  10.201 -1.2872  0.0259 -2.1842
   68CHL1   H4B 7445   5.612   4.705  10.256  0.3746  1.5044  1.4774
   68CHL1    C5 7446   5.705   4.727  10.050  0.8698  0.1281 -0.4552
   68CHL1    C6 7447   5.594   4.768   9.989  0.0232  0.3967  0.4773
   68CHL1    H6 7448   5.506   4.775  10.055  1.7256  1.4810  2.7469
   68CHL1    C7 7449   5.582   4.818   9.839  0.0674  0.1993  0.2261
   68CHL1   H7A 7450   5.502   4.763   9.786  0.8977 -0.3060 -0.5417
   68CHL1   H7B 7451   5.560   4.926   9.824 -0.5113  0.2251  1.1663
   68CHL1    C8 7452   5.714   4.781   9.761  0.0304 -0.0750  0.0245
   68CHL1    H8 7453   5.700   4.673   9.739  0.6538  0.0437 -1.0069
   68CHL1   C14 7454   5.728   4.855   9.632  0.4374  0.0817  0.0428
   68CHL1   H14 7455   5.753   4.959   9.659  3.2188  0.7379 -4.0714
   68CHL1   C15 7456   5.608   4.852   9.536 -0.3325 -0.4054 -0.4355
   68CHL1  H15A 7457   5.566   4.749   9.529 -0.4596 -0.2439 -3.5103
   68CHL1  H15B 7458   5.520   4.916   9.562 -0.8082 -1.1575 -0.1582
   68CHL1   C16 7459   5.671   4.893   9.400 -0.1036  0.6749 -0.3484
   68CHL1  H16A 7460   5.638   4.819   9.324  1.1951 -0.6219  0.2965
   68CHL1  H16B 7461   5.654   4.998   9.369 -0.8307  1.1345  1.4459
   68CHL1   C17 7462   5.829   4.896   9.424  0.3510 -0.4408  0.1978
   68CHL1   H17 7463   5.855   4.999   9.454 -0.0147  0.3612 -2.0869
   68CHL1   C13 7464   5.858   4.818   9.548 -0.1560 -0.5162 -0.0998
   68CHL1   C18 7465   5.878   4.671   9.518  0.6564  0.0126  0.6157
   68CHL1  H18A 7466   5.878   4.608   9.609  0.4229  0.2604  0.7914
   68CHL1  H18B 7467   5.798   4.628   9.455 -1.7311  0.6532  3.0012
   68CHL1  H18C 7468   5.966   4.652   9.454  0.4185 -2.2856  0.8982
   68CHL1   C12 7469   5.976   4.857   9.633  1.0613 -0.0351  0.9448
   68CHL1  H12A 7470   6.074   4.819   9.597  1.0490 -0.9645  1.8457
   68CHL1  H12B 7471   5.968   4.967   9.637 -1.1176  0.0274 -1.6967
   68CHL1   C11 7472   5.974   4.796   9.771 -0.4716 -0.4849  0.1765
   68CHL1  H11A 7473   6.000   4.690   9.748 -1.0653 -0.5084 -0.3954
   68CHL1  H11B 7474   6.055   4.850   9.826  0.2720  1.0132 -2.2371
   68CHL1    C9 7475   5.835   4.806   9.843  0.0419 -0.3094 -0.5563
   68CHL1    H9 7476   5.829   4.908   9.885  2.0122 -0.4424  0.1526
   68CHL1   C10 7477   5.841   4.735   9.981  0.4542 -0.7983  0.9063
   68CHL1   C19 7478   5.907   4.594   9.976  0.0169 -0.1280 -0.1803
   68CHL1  H19A 7479   5.869   4.532   9.893 -0.7246 -1.1013  0.8674
   68CHL1  H19B 7480   6.017   4.604   9.967 -0.1254  0.9103 -0.9692
   68CHL1  H19C 7481   5.903   4.546  10.076  3.1387 -0.0572  0.0877
   68CHL1    C1 7482   5.928   4.816  10.074  0.5114  0.0864  0.3394
   68CHL1   H1A 7483   6.029   4.823  10.028  0.9735 -0.7384  1.1916
   68CHL1   H1B 7484   5.899   4.923  10.082  1.5431  0.3488  0.7741
   68CHL1    C2 7485   5.942   4.767  10.219 -0.1532  0.9107 -0.5684
   68CHL1   H2A 7486   6.009   4.834  10.278  0.0298 -0.4163  0.8063
   68CHL1   H2B 7487   5.981   4.663  10.229  1.7431  1.5536 -0.8465
   68CHL1   C20 7488   5.906   4.866   9.294  0.1079  0.1870  0.4117
   68CHL1   H20 7489   5.888   4.758   9.272  3.1767 -0.2629 -0.3035
   68CHL1   C21 7490   6.058   4.881   9.311 -0.1464  0.8306 -0.5727
   68CHL1  H21A 7491   6.079   4.974   9.367  0.0285  0.0649  0.6688
   68CHL1  H21B 7492   6.111   4.863   9.214 -2.6190  0.9676 -2.0382
   68CHL1  H21C 7493   6.086   4.795   9.376  1.4677 -0.5715 -2.9568
   68CHL1   C22 7494   5.848   4.951   9.176  0.9014 -0.2135 -0.0845
   68CHL1  H22A 7495   5.737   4.947   9.174  0.7215  2.4336  0.6748
   68CHL1  H22B 7496   5.870   5.059   9.191 -1.5741  0.2644  0.5149
   68CHL1   C23 7497   5.904   4.905   9.038 -0.1998  1.0272  0.5995
   68CHL1  H23A 7498   5.855   4.963   8.957 -1.4207 -0.9556 -0.1460
   68CHL1  H23B 7499   6.013   4.927   9.043  0.3163 -1.0197 -0.5222
   68CHL1   C24 7500   5.872   4.755   8.996 -0.1441  0.0365  0.9807
   68CHL1  H24A 7501   5.936   4.689   9.058  0.7452  0.8275  0.9257
   68CHL1  H24B 7502   5.766   4.740   9.024 -0.3997  0.3575  0.2289
   68CHL1   C25 7503   5.896   4.734   8.850 -0.1956  0.1345  0.4933
   68CHL1   H25 7504   5.817   4.788   8.793 -0.6226 -0.1067  0.8505
   68CHL1   C26 7505   6.026   4.799   8.790 -0.7577  0.5753 -0.2370
   68CHL1  H26A 7506   6.116   4.753   8.836 -1.0460  0.9762  0.7627
   68CHL1  H26B 7507   6.027   4.769   8.683 -3.8885 -0.7949 -0.0076
   68CHL1  H26C 7508   6.029   4.910   8.795 -0.4387  0.5502  0.1555
   68CHL1   C27 7509   5.898   4.582   8.809 -0.2090 -1.1414 -0.0574
   68CHL1  H27A 7510   5.908   4.577   8.699 -2.3192 -0.4441 -0.3213
   68CHL1  H27B 7511   5.984   4.532   8.859  0.5562  1.5100  1.5028
   68CHL1  H27C 7512   5.803   4.532   8.836 -0.3566 -0.3082  1.0862
   69CHL1    C3 7513   2.817   4.672   6.847 -0.1806 -0.5199 -0.4997
   69CHL1    H3 7514   2.927   4.656   6.837 -0.0274 -0.6368  1.1159
   69CHL1    O3 7515   2.767   4.696   6.717 -0.1978 -0.5462 -0.3925
   69CHL1   H3' 7516   2.673   4.714   6.729 -0.4874 -1.7300 -0.7791
   69CHL1    C4 7517   2.748   4.552   6.909 -0.2351  0.8555  0.0146
   69CHL1   H4A 7518   2.641   4.574   6.890 -0.9923 -0.5092  2.2580
   69CHL1   H4B 7519   2.761   4.455   6.857  0.0897  0.7982  0.2024
   69CHL1    C5 7520   2.772   4.533   7.056 -0.6033 -0.8582  0.0101
   69CHL1    C6 7521   2.811   4.419   7.106  0.2319  0.0536  0.2624
   69CHL1    H6 7522   2.828   4.344   7.028 -2.1261  1.4040 -1.7175
   69CHL1    C7 7523   2.828   4.389   7.252  0.3493 -0.3079 -0.3816
   69CHL1   H7A 7524   2.773   4.298   7.283 -0.6502  0.4145  0.0311
   69CHL1   H7B 7525   2.934   4.375   7.279 -0.4068  0.7809  3.7821
   69CHL1    C8 7526   2.754   4.492   7.348  0.4414 -0.0119  0.1449
   69CHL1    H8 7527   2.644   4.481   7.336  0.0349  1.2623  2.2492
   69CHL1   C14 7528   2.797   4.475   7.493 -0.6476  0.1407  0.6146
   69CHL1   H14 7529   2.908   4.486   7.492 -0.4395 -1.5399  1.5600
   69CHL1   C15 7530   2.764   4.348   7.563 -0.2598  0.0904 -0.1905
   69CHL1  H15A 7531   2.663   4.312   7.534 -1.0094  0.4358  1.8930
   69CHL1  H15B 7532   2.845   4.279   7.530  1.0210  0.1084  2.6210
   69CHL1   C16 7533   2.776   4.379   7.710  0.6245 -0.2087  0.3807
   69CHL1  H16A 7534   2.688   4.340   7.766  2.0463  0.0680  2.9833
   69CHL1  H16B 7535   2.864   4.325   7.752  1.0718  0.6941  0.6339
   69CHL1   C17 7536   2.783   4.538   7.724  0.3079  0.2279 -0.2348
   69CHL1   H17 7537   2.891   4.562   7.727  0.6536 -1.3040  0.4281
   69CHL1   C13 7538   2.740   4.582   7.582 -0.0751  0.7469 -0.6677
   69CHL1   C18 7539   2.586   4.577   7.583  0.4828  0.2831  0.2432
   69CHL1  H18A 7540   2.554   4.678   7.616  0.9740  0.9690 -1.3038
   69CHL1  H18B 7541   2.543   4.581   7.481 -1.0014  1.1818  0.8605
   69CHL1  H18C 7542   2.538   4.487   7.628  0.4066  1.4495  2.6449
   69CHL1   C12 7543   2.805   4.716   7.535 -0.0388  0.8956 -0.4212
   69CHL1  H12A 7544   2.765   4.787   7.611 -2.2322  0.9883 -1.5871
   69CHL1  H12B 7545   2.915   4.709   7.545 -0.1077 -1.3261 -0.7146
   69CHL1   C11 7546   2.759   4.751   7.390  0.2712 -0.0267  0.5074
   69CHL1  H11A 7547   2.649   4.765   7.387  0.2132 -0.2004  1.3500
   69CHL1  H11B 7548   2.816   4.844   7.368  0.8432 -0.5182 -0.1199
   69CHL1    C9 7549   2.800   4.634   7.297  0.1982  0.2736 -0.3203
   69CHL1    H9 7550   2.911   4.634   7.288  0.5171  3.2718  2.1793
   69CHL1   C10 7551   2.763   4.655   7.155 -0.1971 -0.1462  0.9014
   69CHL1   C19 7552   2.608   4.683   7.145  0.6150 -0.4996  0.9113
   69CHL1  H19A 7553   2.556   4.680   7.046 -1.4030 -1.2368  1.9437
   69CHL1  H19B 7554   2.554   4.605   7.203 -1.3473  0.7167  0.8144
   69CHL1  H19C 7555   2.585   4.780   7.194  1.3117  0.4309 -0.5202
   69CHL1    C1 7556   2.845   4.767   7.085  0.0095 -0.2465 -0.2089
   69CHL1   H1A 7557   2.835   4.860   7.146  4.4546  0.4861 -0.3209
   69CHL1   H1B 7558   2.955   4.755   7.094  0.1516  0.3045 -1.0573
   69CHL1    C2 7559   2.813   4.795   6.942  0.1588  0.1086 -0.2467
   69CHL1   H2A 7560   2.895   4.856   6.900  0.7555  0.2055  1.0223
   69CHL1   H2B 7561   2.718   4.853   6.937  0.1333  0.0714 -0.1971
   69CHL1   C20 7562   2.724   4.601   7.852 -0.2031  1.1360  0.3880
   69CHL1   H20 7563   2.613   4.594   7.848 -0.4365  3.9253 -1.4674
   69CHL1   C21 7564   2.744   4.757   7.869 -0.1472 -0.1869  0.0491
   69CHL1  H21A 7565   2.726   4.793   7.973  2.7736  1.3180  0.1283
   69CHL1  H21B 7566   2.684   4.811   7.792 -0.0101 -0.1308 -0.0180
   69CHL1  H21C 7567   2.852   4.780   7.860 -0.2802  0.4406  0.0017
   69CHL1   C22 7568   2.764   4.528   7.985 -0.5351  0.0867 -0.4022
   69CHL1  H22A 7569   2.704   4.573   8.067 -0.9624  0.1802 -0.7641
   69CHL1  H22B 7570   2.739   4.420   7.978  0.2182 -0.1337  0.1934
   69CHL1   C23 7571   2.915   4.522   8.035 -0.3399 -0.5459 -0.4561
   69CHL1  H23A 7572   2.976   4.471   7.957 -0.0459 -0.2225 -0.4405
   69CHL1  H23B 7573   2.950   4.627   8.050  0.2599 -1.0930  2.6473
   69CHL1   C24 7574   2.929   4.437   8.156  0.1035 -0.9168 -1.6783
   69CHL1  H24A 7575   2.860   4.458   8.241  1.8738 -0.3722 -0.3001
   69CHL1  H24B 7576   2.898   4.335   8.126 -2.9236 -0.2725 -1.0416
   69CHL1   C25 7577   3.068   4.443   8.211 -1.1217  0.0943  0.1546
   69CHL1   H25 7578   3.143   4.401   8.141 -2.4209 -1.1310 -0.5633
   69CHL1   C26 7579   3.111   4.578   8.263  0.5085  0.2698  0.2223
   69CHL1  H26A 7580   3.037   4.600   8.343  1.1997 -0.8381  1.2041
   69CHL1  H26B 7581   3.210   4.574   8.314  1.3585 -0.7493 -1.4118
   69CHL1  H26C 7582   3.097   4.656   8.185 -3.0377 -1.8509 -1.5210
   69CHL1   C27 7583   3.064   4.341   8.328 -0.3057  0.5395  0.6334
   69CHL1  H27A 7584   3.168   4.324   8.364 -0.1269  1.3826  0.5414
   69CHL1  H27B 7585   3.008   4.392   8.409  1.9427  3.4026  0.5717
   69CHL1  H27C 7586   3.026   4.240   8.301 -0.9223  0.9695 -0.1516
   70CHL1    C3 7587   0.176   0.198   6.754  0.2980  1.1449 -0.0008
   70CHL1    H3 7588   0.099   0.277   6.743 -0.6625  0.3666  1.0020
   70CHL1    O3 7589   0.184   0.125   6.631 -0.4313 -0.0403 -0.7099
   70CHL1   H3' 7590   0.230   0.044   6.655 -3.5914 -1.4122  1.3268
   70CHL1    C4 7591   0.310   0.266   6.783  0.6376 -0.2124  0.1253
   70CHL1   H4A 7592   0.391   0.193   6.765  1.0936  0.1726  0.5948
   70CHL1   H4B 7593   0.314   0.333   6.695  0.1374 -1.8585 -1.2090
   70CHL1    C5 7594   0.331   0.327   6.918 -0.0584  0.4444 -1.0538
   70CHL1    C6 7595   0.376   0.452   6.936  0.3409  0.8772  0.9961
   70CHL1    H6 7596   0.405   0.496   6.840  0.4420  0.2434  0.7316
   70CHL1    C7 7597   0.391   0.522   7.067 -0.0203 -0.2449 -0.0791
   70CHL1   H7A 7598   0.481   0.586   7.077  0.0082 -0.5104  1.6487
   70CHL1   H7B 7599   0.305   0.592   7.080  0.9960  0.9123  0.6475
   70CHL1    C8 7600   0.383   0.415   7.178  0.3993 -0.0092  0.1322
   70CHL1    H8 7601   0.477   0.356   7.182  0.1793 -0.3212  0.9166
   70CHL1   C14 7602   0.381   0.493   7.306 -0.2304  0.1189 -0.5441
   70CHL1   H14 7603   0.295   0.562   7.302  1.1140  2.0152  1.1088
   70CHL1   C15 7604   0.498   0.591   7.340  0.2083 -0.2539 -0.4723
   70CHL1  H15A 7605   0.594   0.537   7.326  0.4916  0.1427 -0.0995
   70CHL1  H15B 7606   0.499   0.684   7.280 -2.6095  0.1174 -0.0850
   70CHL1   C16 7607   0.478   0.612   7.492 -0.4649  0.2174  0.3350
   70CHL1  H16A 7608   0.574   0.584   7.541 -0.8990  0.4696  1.3459
   70CHL1  H16B 7609   0.445   0.715   7.513 -0.1639  0.7445 -1.5641
   70CHL1   C17 7610   0.373   0.510   7.538 -0.4873 -0.4441 -0.6293
   70CHL1   H17 7611   0.278   0.568   7.535 -0.3378 -0.1997 -0.6854
   70CHL1   C13 7612   0.365   0.404   7.432 -0.6816  0.5356 -0.2128
   70CHL1   C18 7613   0.488   0.317   7.452  0.2761 -0.2128 -0.6790
   70CHL1  H18A 7614   0.478   0.260   7.546  2.6898  0.6077  0.1713
   70CHL1  H18B 7615   0.499   0.247   7.366  0.4049 -0.8554 -0.1475
   70CHL1  H18C 7616   0.576   0.386   7.455 -0.3747  0.5942  1.4801
   70CHL1   C12 7617   0.234   0.325   7.417 -0.0712 -0.0645 -1.0605
   70CHL1  H12A 7618   0.216   0.256   7.501  1.5013 -3.2373 -3.1424
   70CHL1  H12B 7619   0.147   0.394   7.417  0.7370  0.9990 -0.4217
   70CHL1   C11 7620   0.239   0.241   7.290  0.4543 -0.0010  0.3993
   70CHL1  H11A 7621   0.300   0.149   7.300  0.5438 -0.1217 -0.9614
   70CHL1  H11B 7622   0.139   0.197   7.274  0.7446  0.0242 -1.9316
   70CHL1    C9 7623   0.267   0.317   7.160 -0.3491 -0.2814 -0.6877
   70CHL1    H9 7624   0.179   0.384   7.157  1.6787  2.9717  2.7074
   70CHL1   C10 7625   0.285   0.232   7.034 -0.2485 -0.1348 -0.3754
   70CHL1   C19 7626   0.400   0.128   7.050  0.3783  0.6060 -0.8145
   70CHL1  H19A 7627   0.369   0.041   7.112 -2.8653  1.8511 -0.5202
   70CHL1  H19B 7628   0.445   0.084   6.959 -0.1205 -0.8889 -0.3641
   70CHL1  H19C 7629   0.480   0.177   7.110 -0.5316 -0.4715  1.4387
   70CHL1    C1 7630   0.152   0.166   7.003  0.8464  0.5672  0.2894
   70CHL1   H1A 7631   0.137   0.094   7.087 -2.1402  1.7649  0.8871
   70CHL1   H1B 7632   0.069   0.238   7.013  0.7003  1.0523 -3.2989
   70CHL1    C2 7633   0.148   0.100   6.869  0.8151 -0.0869 -0.6040
   70CHL1   H2A 7634   0.052   0.051   6.843  0.4979  1.0727 -1.7421
   70CHL1   H2B 7635   0.237   0.034   6.865  2.0309  1.4895 -0.7762
   70CHL1   C20 7636   0.393   0.467   7.694  0.5739  0.4005  0.2047
   70CHL1   H20 7637   0.496   0.426   7.697  1.8185  3.2737 -0.0332
   70CHL1   C21 7638   0.293   0.362   7.737 -0.0319 -0.1390 -0.5365
   70CHL1  H21A 7639   0.326   0.265   7.694 -0.4700 -0.7976  0.5776
   70CHL1  H21B 7640   0.189   0.373   7.698 -1.4276 -0.0732  2.8833
   70CHL1  H21C 7641   0.284   0.368   7.848 -1.3459 -1.1487 -0.5574
   70CHL1   C22 7642   0.386   0.590   7.787 -0.0560  0.4588 -0.0084
   70CHL1  H22A 7643   0.457   0.667   7.750 -1.5461  2.4969  1.2199
   70CHL1  H22B 7644   0.284   0.633   7.776 -0.3538  0.3376  1.9919
   70CHL1   C23 7645   0.404   0.575   7.942 -0.2082 -0.0538  0.6210
   70CHL1  H23A 7646   0.345   0.488   7.978  0.1137 -0.8911 -0.7960
   70CHL1  H23B 7647   0.508   0.557   7.977 -0.7149 -0.4448  2.0085
   70CHL1   C24 7648   0.335   0.696   8.015 -0.6447  0.0904 -0.7729
   70CHL1  H24A 7649   0.375   0.794   7.981  1.9282 -0.5272  0.2006
   70CHL1  H24B 7650   0.226   0.696   7.996 -0.9991  1.0924  1.0815
   70CHL1   C25 7651   0.358   0.707   8.175 -0.2349 -0.2088  0.8102
   70CHL1   H25 7652   0.315   0.808   8.195 -0.0694 -0.5627  3.1655
   70CHL1   C26 7653   0.284   0.592   8.244 -0.3132  0.2663 -0.2359
   70CHL1  H26A 7654   0.331   0.494   8.220 -0.8290  0.0957 -0.5634
   70CHL1  H26B 7655   0.297   0.594   8.354 -2.0323 -5.2868  0.3896
   70CHL1  H26C 7656   0.178   0.601   8.211  0.7434  1.6322 -3.7853
   70CHL1   C27 7657   0.505   0.701   8.217  1.2006 -0.7784  0.0165
   70CHL1  H27A 7658   0.555   0.602   8.211  1.5930 -0.6528  1.0060
   70CHL1  H27B 7659   0.565   0.786   8.179  0.8790 -1.0808 -1.2048
   70CHL1  H27C 7660   0.503   0.723   8.326 -0.4455 -1.4603  0.1496
   71CHL1    C3 7661   1.770   0.531   6.691  0.5013 -0.2063  0.2714
   71CHL1    H3 7662   1.865   0.571   6.651 -0.6871  0.4290 -2.1063
   71CHL1    O3 7663   1.702   0.497   6.571 -0.1166  0.6938  0.3129
   71CHL1   H3' 7664   1.692   0.578   6.520  2.3011  0.6447 -0.4039
   71CHL1    C4 7665   1.775   0.406   6.789 -0.3864 -0.3653  0.6269
   71CHL1   H4A 7666   1.671   0.370   6.805  0.1290 -2.2500  0.0708
   71CHL1   H4B 7667   1.825   0.328   6.728  2.0728  2.3873 -1.1439
   71CHL1    C5 7668   1.862   0.441   6.912 -0.1627  0.3242  0.3333
   71CHL1    C6 7669   1.974   0.377   6.941 -0.5632 -0.0218  0.1442
   71CHL1    H6 7670   2.003   0.293   6.876  1.6970  0.8322 -0.0447
   71CHL1    C7 7671   2.065   0.403   7.055  0.1668  0.3195 -0.3112
   71CHL1   H7A 7672   2.080   0.307   7.109 -1.3093  0.5537  0.5937
   71CHL1   H7B 7673   2.168   0.431   7.026  0.1273  2.9971  1.8055
   71CHL1    C8 7674   2.009   0.513   7.150 -0.4572  0.0184  0.4395
   71CHL1    H8 7675   1.931   0.465   7.214  1.2087  1.4444  3.7710
   71CHL1   C14 7676   2.125   0.570   7.236  0.5575 -1.0321 -0.2853
   71CHL1   H14 7677   2.192   0.624   7.166  1.9286  0.0681  1.7757
   71CHL1   C15 7678   2.218   0.477   7.320  0.0551 -0.4748 -0.0462
   71CHL1  H15A 7679   2.159   0.402   7.376  1.0073 -1.2356 -0.0252
   71CHL1  H15B 7680   2.288   0.423   7.252 -0.5418 -1.1250 -0.1497
   71CHL1   C16 7681   2.297   0.572   7.403  0.5373 -0.4753  0.2038
   71CHL1  H16A 7682   2.301   0.525   7.504  2.9633 -1.8970 -0.4748
   71CHL1  H16B 7683   2.399   0.588   7.363  1.1501 -1.3736  1.3329
   71CHL1   C17 7684   2.228   0.714   7.399 -0.1368 -0.1750 -0.0402
   71CHL1   H17 7685   2.284   0.778   7.326  2.3124 -1.8224  0.2737
   71CHL1   C13 7686   2.093   0.681   7.339  0.3495 -0.4569 -0.3695
   71CHL1   C18 7687   1.996   0.621   7.439  0.2917 -0.1907  0.5764
   71CHL1  H18A 7688   1.970   0.712   7.498  2.7679  1.5232 -0.8344
   71CHL1  H18B 7689   1.904   0.592   7.384  0.7926  1.2914 -1.1041
   71CHL1  H18C 7690   2.037   0.534   7.495  0.3903 -1.3153 -1.1608
   71CHL1   C12 7691   2.019   0.790   7.257  0.4214 -0.2432 -0.1618
   71CHL1  H12A 7692   1.974   0.861   7.329 -0.6484 -1.1788  0.1406
   71CHL1  H12B 7693   2.088   0.846   7.191 -0.5033  2.0505  0.7214
   71CHL1   C11 7694   1.907   0.744   7.158  0.3445 -0.2774 -0.0116
   71CHL1  H11A 7695   1.817   0.719   7.218  0.4603 -1.4982 -0.3126
   71CHL1  H11B 7696   1.880   0.828   7.091  1.5856  0.5807  0.5066
   71CHL1    C9 7697   1.940   0.623   7.068  0.4099 -0.0502 -0.0243
   71CHL1    H9 7698   2.017   0.647   6.992  0.4528  1.2310  0.3965
   71CHL1   C10 7699   1.817   0.573   6.986  0.6505  0.6089 -0.2364
   71CHL1   C19 7700   1.695   0.550   7.078  0.2386  0.1200 -0.2150
   71CHL1  H19A 7701   1.726   0.476   7.155  0.2886  1.5568  1.2052
   71CHL1  H19B 7702   1.664   0.641   7.134  0.0843 -0.1587  0.1598
   71CHL1  H19C 7703   1.606   0.516   7.022  0.1218 -1.8717  1.0783
   71CHL1    C1 7704   1.770   0.694   6.887 -0.3970 -0.1864 -0.1985
   71CHL1   H1A 7705   1.718   0.769   6.950  0.9557  0.0079  0.7305
   71CHL1   H1B 7706   1.862   0.740   6.846 -1.2847  0.5754 -1.3907
   71CHL1    C2 7707   1.693   0.645   6.763 -0.3962  0.8114  0.0585
   71CHL1   H2A 7708   1.679   0.730   6.693  1.4695  1.3665  0.3188
   71CHL1   H2B 7709   1.595   0.605   6.798  0.1841 -1.1185 -0.4485
   71CHL1   C20 7710   2.228   0.786   7.534  0.3660  0.2366 -0.2864
   71CHL1   H20 7711   2.156   0.727   7.595 -0.4156 -1.5165 -2.7805
   71CHL1   C21 7712   2.169   0.933   7.521  0.4756 -0.3411 -0.0878
   71CHL1  H21A 7713   2.197   0.983   7.616  1.1906 -2.7861  1.0614
   71CHL1  H21B 7714   2.059   0.927   7.508  0.5613 -4.0984 -0.2595
   71CHL1  H21C 7715   2.212   0.997   7.440 -1.3663 -0.2969 -1.0913
   71CHL1   C22 7716   2.359   0.793   7.618  0.8909 -0.4682  0.6604
   71CHL1  H22A 7717   2.333   0.834   7.718 -3.2277  1.2338 -0.8867
   71CHL1  H22B 7718   2.410   0.696   7.637  2.1024 -0.1825 -0.8981
   71CHL1   C23 7719   2.478   0.878   7.569  0.9348 -0.7991 -0.1458
   71CHL1  H23A 7720   2.489   0.851   7.462 -3.3956 -0.4010 -0.8844
   71CHL1  H23B 7721   2.461   0.988   7.573  3.0667 -0.4453  1.2432
   71CHL1   C24 7722   2.607   0.856   7.651 -0.4807  0.6056  0.1868
   71CHL1  H24A 7723   2.576   0.875   7.756 -0.7265 -2.5461  0.8112
   71CHL1  H24B 7724   2.637   0.749   7.642  0.3561  0.6757  1.8100
   71CHL1   C25 7725   2.729   0.940   7.602 -0.2631  0.4052 -0.2541
   71CHL1   H25 7726   2.709   1.042   7.642 -0.8358 -0.8090  2.8259
   71CHL1   C26 7727   2.860   0.887   7.644  0.0120  0.5751  0.3886
   71CHL1  H26A 7728   2.946   0.946   7.606 -0.3567  1.4900  0.9336
   71CHL1  H26B 7729   2.866   0.895   7.754  0.4591 -2.4041  0.6585
   71CHL1  H26C 7730   2.862   0.779   7.620 -2.9728  0.0175  2.0835
   71CHL1   C27 7731   2.722   0.955   7.447  0.7441 -0.7035  0.0185
   71CHL1  H27A 7732   2.802   1.016   7.399 -1.7318  0.5550 -2.8042
   71CHL1  H27B 7733   2.729   0.856   7.397  0.0243  0.0747 -1.6828
   71CHL1  H27C 7734   2.626   1.005   7.423  0.8152  0.7023  2.3137
   72CHL1    C3 7735   3.313   5.681   6.952  0.1735  0.0603 -0.3041
   72CHL1    H3 7736   3.219   5.625   6.969 -1.5260  2.1109 -2.2206
   72CHL1    O3 7737   3.340   5.664   6.817  0.0078 -0.4570  0.5525
   72CHL1   H3' 7738   3.419   5.716   6.802 -1.4547  1.7624  0.0740
   72CHL1    C4 7739   3.288   5.833   6.990 -0.1429 -0.4169  0.8750
   72CHL1   H4A 7740   3.364   5.899   6.943 -0.5751 -0.4020  0.1749
   72CHL1   H4B 7741   3.194   5.853   6.934  0.6990 -2.0528 -1.2513
   72CHL1    C5 7742   3.271   5.857   7.138 -0.2989 -0.7551 -0.0180
   72CHL1    C6 7743   3.180   5.928   7.195  0.1073 -0.2034  0.0694
   72CHL1    H6 7744   3.107   5.984   7.135  1.2914 -0.2906 -1.4964
   72CHL1    C7 7745   3.163   5.945   7.345  0.2891 -0.4021  0.0497
   72CHL1   H7A 7746   3.127   6.044   7.380 -0.3326 -0.7024  0.2794
   72CHL1   H7B 7747   3.083   5.874   7.373 -1.3905  2.2528  2.5588
   72CHL1    C8 7748   3.289   5.906   7.425  0.2836 -0.0175 -0.1773
   72CHL1    H8 7749   3.356   5.994   7.418 -1.6693  1.6305  0.5219
   72CHL1   C14 7750   3.250   5.887   7.571  0.2277  0.5323 -0.8383
   72CHL1   H14 7751   3.176   5.805   7.583  1.8516 -0.7444  0.9578
   72CHL1   C15 7752   3.192   6.008   7.643 -0.6313  0.2863 -0.0325
   72CHL1  H15A 7753   3.245   6.101   7.614  1.9750 -1.2424 -0.4429
   72CHL1  H15B 7754   3.085   6.027   7.617 -1.2567 -2.5379  0.1563
   72CHL1   C16 7755   3.207   5.976   7.796 -0.3294 -0.2990 -0.2881
   72CHL1  H16A 7756   3.260   6.056   7.853 -0.8982 -0.0094 -0.1565
   72CHL1  H16B 7757   3.106   5.955   7.836 -1.2729  2.0005 -1.2786
   72CHL1   C17 7758   3.306   5.858   7.797  0.1565 -0.3535 -1.0309
   72CHL1   H17 7759   3.252   5.765   7.825 -1.4200  0.6737 -0.5358
   72CHL1   C13 7760   3.368   5.844   7.660  0.3561  0.0981 -0.3558
   72CHL1   C18 7761   3.489   5.943   7.648  0.8802  0.2480  0.9069
   72CHL1  H18A 7762   3.470   6.049   7.676  3.5439  1.0189  0.1150
   72CHL1  H18B 7763   3.569   5.898   7.710  0.8483 -0.2682  0.5824
   72CHL1  H18C 7764   3.533   5.949   7.546  2.2512 -1.0116  1.3829
   72CHL1   C12 7765   3.405   5.699   7.615 -0.4900 -0.3284  0.1282
   72CHL1  H12A 7766   3.504   5.675   7.659  1.8574  1.4872 -3.6328
   72CHL1  H12B 7767   3.318   5.631   7.632 -1.1790  0.5533  0.2149
   72CHL1   C11 7768   3.448   5.695   7.460 -0.4459  0.0853 -0.7309
   72CHL1  H11A 7769   3.548   5.743   7.454 -0.2645 -0.1914 -0.0807
   72CHL1  H11B 7770   3.449   5.586   7.440 -0.1564  0.3246 -2.0650
   72CHL1    C9 7771   3.341   5.770   7.377  0.2034 -0.7476  1.0672
   72CHL1    H9 7772   3.250   5.707   7.388  0.8150 -1.6286  1.1857
   72CHL1   C10 7773   3.376   5.784   7.226  0.8576  0.8078  0.8668
   72CHL1   C19 7774   3.513   5.868   7.219 -0.6385  0.2736  0.5028
   72CHL1  H19A 7775   3.514   5.963   7.277  1.4750 -0.2595  1.4322
   72CHL1  H19B 7776   3.589   5.798   7.259 -0.1503  1.4270  1.6898
   72CHL1  H19C 7777   3.529   5.885   7.111 -1.1769 -0.9461  0.2101
   72CHL1    C1 7778   3.403   5.635   7.178 -0.0188 -0.1968 -0.0416
   72CHL1   H1A 7779   3.498   5.610   7.230  1.0104  5.0052  1.0863
   72CHL1   H1B 7780   3.313   5.575   7.206 -2.4027  2.8200 -0.7178
   72CHL1    C2 7781   3.427   5.623   7.033 -0.5329 -0.2168 -0.3997
   72CHL1   H2A 7782   3.449   5.523   6.990 -0.6568 -0.4331  0.0327
   72CHL1   H2B 7783   3.515   5.688   7.018 -1.4035  1.3211  0.7714
   72CHL1   C20 7784   3.398   5.864   7.922  0.1694 -0.6984  0.5874
   72CHL1   H20 7785   3.475   5.943   7.910  0.7794 -1.3266  0.3358
   72CHL1   C21 7786   3.473   5.730   7.944 -0.0393 -0.0854 -0.4444
   72CHL1  H21A 7787   3.411   5.646   7.983 -0.8254  0.2014 -1.0531
   72CHL1  H21B 7788   3.553   5.753   8.018  0.1235  1.4900 -1.0747
   72CHL1  H21C 7789   3.524   5.702   7.850  0.2990 -1.6380  0.1734
   72CHL1   C22 7790   3.325   5.900   8.058  0.3539 -0.3705 -0.0304
   72CHL1  H22A 7791   3.263   5.991   8.045  0.5212 -0.2855 -0.2391
   72CHL1  H22B 7792   3.244   5.830   8.088 -1.2251  1.8002  1.1023
   72CHL1   C23 7793   3.421   5.935   8.174 -0.1050  0.4825  0.0325
   72CHL1  H23A 7794   3.492   5.853   8.198 -0.8378  0.4304  2.1616
   72CHL1  H23B 7795   3.472   6.030   8.145 -1.4837  0.4047 -2.9505
   72CHL1   C24 7796   3.342   5.959   8.311  0.2325  0.1428  0.6468
   72CHL1  H24A 7797   3.293   5.864   8.341  1.3335 -0.1248  1.6816
   72CHL1  H24B 7798   3.410   5.976   8.397 -0.5005  2.1760  0.8734
   72CHL1   C25 7799   3.241   6.079   8.313 -0.2467 -0.1712  0.1414
   72CHL1   H25 7800   3.158   6.061   8.241 -0.4141 -0.6435  0.4486
   72CHL1   C26 7801   3.183   6.091   8.450  0.3030 -0.1607  0.9178
   72CHL1  H26A 7802   3.107   6.172   8.449  0.1018 -0.3431  0.1248
   72CHL1  H26B 7803   3.150   5.995   8.495 -1.6588  0.6718  1.3705
   72CHL1  H26C 7804   3.264   6.120   8.519  1.4491 -4.6788  1.8167
   72CHL1   C27 7805   3.321   6.205   8.276  0.1458  0.1542 -0.3538
   72CHL1  H27A 7806   3.427   6.199   8.309  0.0545  1.7181  0.3140
   72CHL1  H27B 7807   3.323   6.229   8.168  1.8703 -1.9283 -0.8494
   72CHL1  H27C 7808   3.282   6.296   8.326 -2.3705 -1.5181  0.9420
   73CHL1    C3 7809   3.181   5.196   6.877  0.7284 -0.7070 -0.2300
   73CHL1    H3 7810   3.164   5.304   6.894  0.0905 -0.5396 -1.7220
   73CHL1    O3 7811   3.196   5.174   6.735  0.0964  0.2887 -0.4481
   73CHL1   H3' 7812   3.250   5.094   6.735 -0.9799 -0.4514 -0.0760
   73CHL1    C4 7813   3.321   5.171   6.947  0.2455 -0.4281  0.2486
   73CHL1   H4A 7814   3.363   5.073   6.917 -1.1396 -1.3017  1.1076
   73CHL1   H4B 7815   3.391   5.249   6.908  0.2245  0.8638  2.6043
   73CHL1    C5 7816   3.308   5.183   7.096  0.3094  1.1037  0.4436
   73CHL1    C6 7817   3.382   5.268   7.164 -0.2792  0.6785  0.0722
   73CHL1    H6 7818   3.449   5.332   7.105  2.1863 -0.0915  1.8481
   73CHL1    C7 7819   3.382   5.273   7.315  0.3645  0.4564 -0.3073
   73CHL1   H7A 7820   3.484   5.288   7.355 -0.3140 -0.4056  1.8650
   73CHL1   H7B 7821   3.316   5.354   7.354 -1.0093 -0.3095 -0.9357
   73CHL1    C8 7822   3.321   5.143   7.374 -0.5705 -1.1892  0.0714
   73CHL1    H8 7823   3.397   5.063   7.364 -0.8236 -1.8404  2.6056
   73CHL1   C14 7824   3.308   5.161   7.523  0.1372  0.1068  0.1797
   73CHL1   H14 7825   3.231   5.236   7.550  1.0655  0.5948  1.6180
   73CHL1   C15 7826   3.423   5.210   7.608 -0.1727 -0.1875 -0.4403
   73CHL1  H15A 7827   3.525   5.170   7.588  0.5076 -1.0424  3.7539
   73CHL1  H15B 7828   3.439   5.319   7.600  3.3986 -0.4644  1.1192
   73CHL1   C16 7829   3.387   5.167   7.747  0.3630 -0.0437 -0.4437
   73CHL1  H16A 7830   3.473   5.117   7.796  1.0972  0.3416 -1.3016
   73CHL1  H16B 7831   3.370   5.252   7.817 -0.3402 -1.6255  1.3966
   73CHL1   C17 7832   3.253   5.081   7.737  0.8480  0.2886  0.3892
   73CHL1   H17 7833   3.169   5.153   7.749  0.1604 -0.3987 -0.2270
   73CHL1   C13 7834   3.244   5.034   7.594  0.1638  0.7785 -0.2086
   73CHL1   C18 7835   3.332   4.909   7.578  0.3151  0.0151 -0.1829
   73CHL1  H18A 7836   3.425   4.911   7.639  0.4250  0.4874 -0.3610
   73CHL1  H18B 7837   3.275   4.817   7.602  0.6329 -0.6319 -1.8518
   73CHL1  H18C 7838   3.365   4.899   7.473 -2.5716  0.3617 -1.1961
   73CHL1   C12 7839   3.097   5.026   7.533 -0.0904 -0.1209 -0.0410
   73CHL1  H12A 7840   3.061   4.936   7.588 -0.3961  0.4578  0.7194
   73CHL1  H12B 7841   3.045   5.118   7.566 -0.9922 -1.1792  1.6152
   73CHL1   C11 7842   3.097   5.004   7.386  0.0398 -0.2736 -0.1021
   73CHL1  H11A 7843   3.133   4.901   7.365  0.0545 -0.5219  1.0677
   73CHL1  H11B 7844   2.993   5.018   7.349 -0.7228 -0.1593  1.9674
   73CHL1    C9 7845   3.187   5.110   7.310  0.2945 -0.2294 -0.6493
   73CHL1    H9 7846   3.121   5.199   7.321 -0.4784 -1.0160  1.6633
   73CHL1   C10 7847   3.196   5.090   7.156 -0.0153  0.1982  0.2456
   73CHL1   C19 7848   3.226   4.937   7.121  1.2464 -0.0154  0.2663
   73CHL1  H19A 7849   3.319   4.914   7.177  2.0496  0.7882 -0.6854
   73CHL1  H19B 7850   3.136   4.882   7.157  2.9228 -1.3455  2.6870
   73CHL1  H19C 7851   3.240   4.920   7.012 -0.1123 -2.2499  0.3813
   73CHL1    C1 7852   3.060   5.128   7.084  0.0331 -0.0295  0.6628
   73CHL1   H1A 7853   2.972   5.071   7.122 -0.2268 -0.4097 -0.4840
   73CHL1   H1B 7854   3.041   5.235   7.108  1.0763  0.3823 -0.2857
   73CHL1    C2 7855   3.061   5.118   6.932 -0.4318  0.0146 -0.1009
   73CHL1   H2A 7856   2.967   5.161   6.892  1.1889  3.3249 -0.6893
   73CHL1   H2B 7857   3.061   5.011   6.904 -0.8769 -1.2928  4.1228
   73CHL1   C20 7858   3.244   4.981   7.858  0.0773 -0.5120  0.1497
   73CHL1   H20 7859   3.315   4.895   7.855  0.6247 -0.0621 -0.0219
   73CHL1   C21 7860   3.103   4.914   7.861  0.0574 -0.9436 -0.2200
   73CHL1  H21A 7861   3.088   4.840   7.943 -0.5617  0.5132  1.0311
   73CHL1  H21B 7862   3.101   4.855   7.767 -2.5273 -0.8671 -0.2811
   73CHL1  H21C 7863   3.023   4.991   7.857  0.1458 -0.9040 -1.5679
   73CHL1   C22 7864   3.269   5.058   7.992 -0.5769 -0.1109 -0.4778
   73CHL1  H22A 7865   3.374   5.095   7.997 -0.3250 -0.7290 -0.9475
   73CHL1  H22B 7866   3.210   5.151   7.980 -1.2007 -0.6948 -2.4682
   73CHL1   C23 7867   3.226   4.972   8.115 -0.7147 -0.3417  0.2071
   73CHL1  H23A 7868   3.115   4.972   8.116 -0.7240 -0.9977 -0.4177
   73CHL1  H23B 7869   3.254   4.866   8.099 -1.9387 -0.8787  1.4228
   73CHL1   C24 7870   3.276   5.022   8.255 -0.0092  0.4523  0.4528
   73CHL1  H24A 7871   3.372   5.077   8.250 -0.1481  0.5536 -1.5882
   73CHL1  H24B 7872   3.209   5.107   8.280 -0.7975  0.2887 -1.0016
   73CHL1   C25 7873   3.264   4.920   8.372 -0.1651 -0.1957  0.1623
   73CHL1   H25 7874   3.297   4.823   8.329 -1.5665 -0.0657 -1.3024
   73CHL1   C26 7875   3.352   4.963   8.490 -0.5166 -0.3554  0.4746
   73CHL1  H26A 7876   3.377   4.869   8.544 -1.8230 -0.6620  0.6007
   73CHL1  H26B 7877   3.450   5.003   8.457  0.3684 -1.8823  1.1564
   73CHL1  H26C 7878   3.307   5.042   8.553  2.3532  1.5918  0.2363
   73CHL1   C27 7879   3.123   4.903   8.423 -0.3574  0.2707 -0.4234
   73CHL1  H27A 7880   3.120   4.821   8.498 -2.1767 -0.9621 -1.7453
   73CHL1  H27B 7881   3.088   4.993   8.477  0.4486  1.0999 -1.2539
   73CHL1  H27C 7882   3.049   4.882   8.343 -0.5521 -1.4501  0.1462
   74CHL1    C3 7883   5.983   0.485   6.994  0.1473 -0.0207 -0.2366
   74CHL1    H3 7884   6.068   0.416   7.012  0.7773  0.7888 -0.0615
   74CHL1    O3 7885   5.985   0.520   6.864  0.4839  0.4956  0.9336
   74CHL1   H3' 7886   5.924   0.592   6.849 -2.7072 -2.1345  0.0799
   74CHL1    C4 7887   5.850   0.412   7.027  0.2405 -0.6588 -0.0053
   74CHL1   H4A 7888   5.769   0.478   6.987  0.5232 -1.7537 -2.6415
   74CHL1   H4B 7889   5.854   0.322   6.962  1.7528 -0.6414  0.0467
   74CHL1    C5 7890   5.824   0.380   7.172 -0.1344  0.2640  0.5069
   74CHL1    C6 7891   5.794   0.255   7.206 -0.2063 -0.9316  1.2399
   74CHL1    H6 7892   5.779   0.177   7.130 -0.3920 -0.7063  1.0422
   74CHL1    C7 7893   5.763   0.208   7.348 -0.3249  0.4188 -0.0538
   74CHL1   H7A 7894   5.680   0.136   7.358  0.7194 -1.0172 -1.2999
   74CHL1   H7B 7895   5.847   0.142   7.379 -1.9270 -3.8931 -3.8109
   74CHL1    C8 7896   5.766   0.323   7.459 -0.5355 -0.3244 -0.0243
   74CHL1    H8 7897   5.664   0.365   7.458 -0.4079  0.2302 -3.4783
   74CHL1   C14 7898   5.795   0.277   7.599  0.3268 -0.3109 -0.4470
   74CHL1   H14 7899   5.899   0.240   7.608  0.7331  0.5286 -1.4232
   74CHL1   C15 7900   5.714   0.164   7.657 -0.3169 -0.4036  0.6822
   74CHL1  H15A 7901   5.607   0.181   7.635 -1.1523 -1.4647  3.5625
   74CHL1  H15B 7902   5.744   0.068   7.609 -0.0717 -0.6399  1.3037
   74CHL1   C16 7903   5.735   0.176   7.814 -0.0079  0.1863 -0.1344
   74CHL1  H16A 7904   5.639   0.182   7.870  0.6573  1.1480  0.9552
   74CHL1  H16B 7905   5.793   0.092   7.858 -1.1023  0.4417  1.9184
   74CHL1   C17 7906   5.818   0.302   7.839  0.3325 -0.1511  0.3157
   74CHL1   H17 7907   5.923   0.266   7.836  0.3249 -0.1173 -1.3695
   74CHL1   C13 7908   5.794   0.389   7.711  0.1554 -0.2769  0.3279
   74CHL1   C18 7909   5.649   0.449   7.714 -0.1802 -0.0221  0.3321
   74CHL1  H18A 7910   5.652   0.523   7.797 -0.1674  0.0178  0.2960
   74CHL1  H18B 7911   5.619   0.500   7.620  1.4556  2.1544  0.8824
   74CHL1  H18C 7912   5.571   0.375   7.741  2.5476 -2.9033  0.9373
   74CHL1   C12 7913   5.899   0.489   7.671  0.6358 -0.2408  0.0173
   74CHL1  H12A 7914   5.892   0.573   7.744 -2.4139  2.1991 -2.7920
   74CHL1  H12B 7915   5.998   0.441   7.688  0.7425 -1.4350 -3.3209
   74CHL1   C11 7916   5.880   0.549   7.529  0.6596  0.7506  0.5789
   74CHL1  H11A 7917   5.792   0.616   7.521  0.3901  0.1604 -3.1828
   74CHL1  H11B 7918   5.975   0.603   7.510  1.3999 -0.5290  0.5509
   74CHL1    C9 7919   5.860   0.439   7.422 -0.0999  0.1651  0.0775
   74CHL1    H9 7920   5.960   0.391   7.417  0.3624  1.1586 -0.7820
   74CHL1   C10 7921   5.847   0.495   7.278  0.1381 -0.0327 -0.8003
   74CHL1   C19 7922   5.722   0.592   7.272  0.1092 -0.4824  0.4205
   74CHL1  H19A 7923   5.740   0.683   7.334  0.0848 -0.8446  0.9736
   74CHL1  H19B 7924   5.680   0.613   7.172 -0.0255 -0.2001  0.5332
   74CHL1  H19C 7925   5.631   0.547   7.317 -0.5078  0.8058  0.5221
   74CHL1    C1 7926   5.985   0.571   7.239  0.1808  0.2513  0.0758
   74CHL1   H1A 7927   5.991   0.665   7.297 -0.1849  1.0543 -1.1538
   74CHL1   H1B 7928   6.076   0.510   7.256 -0.1611 -0.2581  0.1013
   74CHL1    C2 7929   5.989   0.610   7.086 -0.2483 -0.0038 -0.3158
   74CHL1   H2A 7930   6.087   0.657   7.062  0.0675 -0.8172 -0.6645
   74CHL1   H2B 7931   5.910   0.685   7.064  3.1266  3.3583 -2.0993
   74CHL1   C20 7932   5.814   0.345   7.986  0.1769 -0.1819  0.3158
   74CHL1   H20 7933   5.714   0.391   8.003 -0.6477 -1.3504 -1.1609
   74CHL1   C21 7934   5.917   0.454   8.015 -0.3995  0.5237  0.0107
   74CHL1  H21A 7935   5.931   0.481   8.122  3.8927 -0.9854  0.0079
   74CHL1  H21B 7936   5.886   0.547   7.961  0.5497  0.3739 -0.8214
   74CHL1  H21C 7937   6.021   0.426   7.986  0.3627  2.4570  0.6997
   74CHL1   C22 7938   5.839   0.231   8.091 -0.2623  0.7374 -0.4159
   74CHL1  H22A 7939   5.790   0.134   8.069 -0.1012  0.3338  0.9044
   74CHL1  H22B 7940   5.948   0.210   8.085 -0.2169  0.8377  0.0116
   74CHL1   C23 7941   5.783   0.259   8.233 -0.3517  0.8322  0.8758
   74CHL1  H23A 7942   5.817   0.357   8.274  2.0574  0.4219  0.0321
   74CHL1  H23B 7943   5.674   0.261   8.217 -0.8416 -1.2885  3.2917
   74CHL1   C24 7944   5.829   0.155   8.335  0.1937 -0.7995  0.0172
   74CHL1  H24A 7945   5.793   0.053   8.308 -0.8541 -0.9428  1.7689
   74CHL1  H24B 7946   5.939   0.155   8.321 -0.0326  0.8333 -2.3887
   74CHL1   C25 7947   5.806   0.192   8.484 -0.3363 -0.1228  0.1949
   74CHL1   H25 7948   5.886   0.260   8.521  1.8370 -2.3681 -0.1409
   74CHL1   C26 7949   5.677   0.266   8.498  0.1070 -0.4005 -0.0338
   74CHL1  H26A 7950   5.639   0.277   8.601  0.4509 -1.2008  0.1866
   74CHL1  H26B 7951   5.672   0.369   8.456  0.2884 -0.6384 -0.6659
   74CHL1  H26C 7952   5.603   0.203   8.444  1.1277 -2.2697  0.6409
   74CHL1   C27 7953   5.810   0.069   8.578 -0.1464 -0.3688  0.3701
   74CHL1  H27A 7954   5.913   0.030   8.585  0.9540  2.6205  3.3119
   74CHL1  H27B 7955   5.781   0.087   8.684  1.9498 -1.8671  1.2617
   74CHL1  H27C 7956   5.742  -0.005   8.529  1.2630 -1.3608 -0.1454
   75CHL1    C3 7957   4.118   4.500   6.526 -0.1925  0.1615 -0.2082
   75CHL1    H3 7958   4.083   4.399   6.555  2.6130 -0.2483  2.1455
   75CHL1    O3 7959   4.145   4.517   6.388  0.1558  0.2257 -0.0511
   75CHL1   H3' 7960   4.195   4.599   6.384 -2.0223  1.5941 -0.9020
   75CHL1    C4 7961   4.023   4.610   6.584 -0.2885  0.0546 -0.5507
   75CHL1   H4A 7962   4.059   4.712   6.556 -0.8223 -0.2878 -2.6570
   75CHL1   H4B 7963   3.919   4.608   6.546 -0.2105  4.6849 -1.6607
   75CHL1    C5 7964   4.024   4.591   6.738 -0.4477  0.3220 -0.2682
   75CHL1    C6 7965   3.902   4.580   6.802  0.7307 -0.2402 -0.3547
   75CHL1    H6 7966   3.808   4.586   6.745  0.6620 -0.8977 -0.3159
   75CHL1    C7 7967   3.899   4.570   6.951 -0.3902 -0.1661  1.0166
   75CHL1   H7A 7968   3.817   4.639   6.979  1.1755  1.6573  1.3263
   75CHL1   H7B 7969   3.883   4.466   6.986  1.7646 -0.7667  0.3692
   75CHL1    C8 7970   4.036   4.612   7.027 -0.1886 -0.4796  0.6302
   75CHL1    H8 7971   4.039   4.722   7.012  0.4630 -0.5865 -0.1463
   75CHL1   C14 7972   4.025   4.562   7.168 -0.2803 -0.2076 -0.1807
   75CHL1   H14 7973   4.023   4.451   7.164  3.4582 -0.3864 -0.6115
   75CHL1   C15 7974   3.896   4.585   7.248  0.4099 -0.2822  0.0652
   75CHL1  H15A 7975   3.869   4.692   7.237 -0.7148 -0.4881  0.6622
   75CHL1  H15B 7976   3.804   4.526   7.231  0.9850 -2.2923  3.0763
   75CHL1   C16 7977   3.934   4.553   7.393 -0.0557 -0.2897 -0.6228
   75CHL1  H16A 7978   3.909   4.634   7.465  0.1912 -1.4853  0.8805
   75CHL1  H16B 7979   3.895   4.455   7.429 -1.8383  0.1191 -1.3529
   75CHL1   C17 7980   4.091   4.534   7.396 -0.3884  0.1782 -0.6948
   75CHL1   H17 7981   4.107   4.424   7.401  1.5015  0.3596 -1.6766
   75CHL1   C13 7982   4.140   4.593   7.262 -0.8279 -0.4826  0.0557
   75CHL1   C18 7983   4.154   4.750   7.280 -0.2878  0.3644 -0.0636
   75CHL1  H18A 7984   4.070   4.779   7.347  0.7631 -1.0993  1.9805
   75CHL1  H18B 7985   4.244   4.781   7.338 -1.9999  1.5725  2.0835
   75CHL1  H18C 7986   4.140   4.808   7.187 -0.7015  0.4515  0.0515
   75CHL1   C12 7987   4.261   4.527   7.198  0.0966 -0.2599 -0.3106
   75CHL1  H12A 7988   4.347   4.556   7.262 -2.4402  1.2889  2.6407
   75CHL1  H12B 7989   4.244   4.418   7.181 -1.9797 -0.0210  0.0035
   75CHL1   C11 7990   4.287   4.575   7.054 -0.3414 -0.6751 -0.3864
   75CHL1  H11A 7991   4.317   4.682   7.062  3.6496 -1.6596 -0.3862
   75CHL1  H11B 7992   4.381   4.529   7.016  1.7334  0.7344  2.6319
   75CHL1    C9 7993   4.159   4.552   6.962 -0.1502  0.1241 -0.2652
   75CHL1    H9 7994   4.141   4.442   6.958  1.6666 -0.2000 -0.2790
   75CHL1   C10 7995   4.163   4.594   6.816 -0.1557  0.6872  0.0152
   75CHL1   C19 7996   4.225   4.737   6.811 -0.1443 -0.4390  1.2029
   75CHL1  H19A 7997   4.219   4.778   6.708 -0.3403 -0.2747  1.2773
   75CHL1  H19B 7998   4.168   4.810   6.873 -0.3753 -0.3846  0.9313
   75CHL1  H19C 7999   4.331   4.732   6.842  0.1980  0.4961  0.2400
   75CHL1    C1 8000   4.246   4.484   6.746  0.0345  0.2869 -0.1003
   75CHL1   H1A 8001   4.350   4.488   6.784  0.4860 -0.7930 -1.1472
   75CHL1   H1B 8002   4.201   4.386   6.768 -1.0020  0.3946 -1.5688
   75CHL1    C2 8003   4.255   4.506   6.592  0.5852  0.2182 -0.1972
   75CHL1   H2A 8004   4.313   4.418   6.557 -0.0615 -0.0733 -0.5539
   75CHL1   H2B 8005   4.302   4.603   6.564 -0.1765  0.6852  0.1078
   75CHL1   C20 8006   4.150   4.572   7.528 -0.4544 -0.3402 -0.0857
   75CHL1   H20 8007   4.122   4.678   7.549 -0.9478 -0.1857 -1.4411
   75CHL1   C21 8008   4.303   4.553   7.529  0.3022  0.0141  1.0096
   75CHL1  H21A 8009   4.339   4.551   7.634  1.6999  0.5088  0.5571
   75CHL1  H21B 8010   4.354   4.641   7.486 -1.4952  0.7754  0.3112
   75CHL1  H21C 8011   4.324   4.460   7.471 -1.9482  0.1196 -0.1025
   75CHL1   C22 8012   4.092   4.486   7.650  0.2706  0.4431  0.3326
   75CHL1  H22A 8013   3.984   4.467   7.633  0.3379 -0.0657  0.4697
   75CHL1  H22B 8014   4.145   4.389   7.638 -0.5136  0.1975 -1.6631
   75CHL1   C23 8015   4.112   4.545   7.786  0.0291 -0.1089 -0.1781
   75CHL1  H23A 8016   4.219   4.547   7.818 -0.5248  1.6537  1.8214
   75CHL1  H23B 8017   4.079   4.651   7.786  1.5195  0.3968  0.8706
   75CHL1   C24 8018   4.023   4.475   7.889 -0.0630  0.3270  0.8087
   75CHL1  H24A 8019   3.918   4.479   7.852  0.4818  3.4351 -0.7227
   75CHL1  H24B 8020   4.051   4.368   7.900 -0.1538  0.1017 -0.9707
   75CHL1   C25 8021   4.048   4.539   8.026  0.3416  0.2818 -0.5092
   75CHL1   H25 8022   4.045   4.648   8.006  0.7569  0.2751 -0.6284
   75CHL1   C26 8023   3.932   4.492   8.121  0.1984  0.4590 -0.1017
   75CHL1  H26A 8024   3.836   4.528   8.079  0.0708 -0.7100 -0.8500
   75CHL1  H26B 8025   3.933   4.382   8.114  0.1543  0.4973 -0.7320
   75CHL1  H26C 8026   3.956   4.533   8.222  0.9195  3.0699 -1.2408
   75CHL1   C27 8027   4.193   4.501   8.084 -0.0463  0.1380 -0.0761
   75CHL1  H27A 8028   4.208   4.548   8.183  3.0694 -0.4949 -0.1503
   75CHL1  H27B 8029   4.221   4.394   8.090  1.6336  0.3706 -2.3192
   75CHL1  H27C 8030   4.273   4.549   8.023 -1.8767  1.8862 -1.2343
   76CHL1    C3 8031   0.575   4.200   7.221 -0.5940 -1.4612 -0.0995
   76CHL1    H3 8032   0.510   4.161   7.302 -0.1190 -1.0689  0.4832
   76CHL1    O3 8033   0.581   4.120   7.109 -0.4848 -0.0468  0.5593
   76CHL1   H3' 8034   0.620   4.187   7.051  0.4745  0.0164  1.2633
   76CHL1    C4 8035   0.497   4.331   7.183  0.1080  0.8609  0.2359
   76CHL1   H4A 8036   0.550   4.381   7.099  0.3952 -0.6797 -0.5515
   76CHL1   H4B 8037   0.395   4.307   7.145  0.9016  1.7827 -2.7505
   76CHL1    C5 8038   0.492   4.433   7.294 -0.1878 -0.3676 -0.2353
   76CHL1    C6 8039   0.378   4.465   7.349 -0.1298  0.1674  0.0335
   76CHL1    H6 8040   0.287   4.422   7.305 -0.7924  0.6616  0.8711
   76CHL1    C7 8041   0.360   4.570   7.455  0.2648  0.2434  0.5138
   76CHL1   H7A 8042   0.284   4.640   7.414  1.4379  0.7193 -0.9543
   76CHL1   H7B 8043   0.325   4.529   7.552 -1.0144  1.0835  0.4297
   76CHL1    C8 8044   0.487   4.654   7.482 -0.2769 -1.2316 -0.5351
   76CHL1    H8 8045   0.500   4.733   7.404 -0.4275  0.6669  1.2944
   76CHL1   C14 8046   0.467   4.704   7.627  0.1301  0.2816 -0.5971
   76CHL1   H14 8047   0.459   4.611   7.687 -2.0785  1.7828  1.6724
   76CHL1   C15 8048   0.339   4.787   7.658  0.4404 -0.0812 -0.2320
   76CHL1  H15A 8049   0.329   4.870   7.584  0.4372  0.6369  0.5551
   76CHL1  H15B 8050   0.244   4.731   7.668  0.4673  0.1277  1.4463
   76CHL1   C16 8051   0.376   4.862   7.787  0.0677  0.7083 -0.6066
   76CHL1  H16A 8052   0.360   4.971   7.771 -2.2961  0.6004  0.6010
   76CHL1  H16B 8053   0.306   4.839   7.870 -0.4640  5.3062  0.4884
   76CHL1   C17 8054   0.529   4.820   7.823 -0.5653  1.3666  0.7340
   76CHL1   H17 8055   0.517   4.724   7.876  1.6513 -0.4911 -1.8514
   76CHL1   C13 8056   0.583   4.785   7.682  0.0355  0.3398 -0.2296
   76CHL1   C18 8057   0.603   4.908   7.597 -0.9712  0.1011 -0.5521
   76CHL1  H18A 8058   0.523   4.985   7.605 -1.5434 -0.3721 -1.5013
   76CHL1  H18B 8059   0.691   4.953   7.648 -1.2425  0.3073 -0.2629
   76CHL1  H18C 8060   0.624   4.887   7.490 -0.0649  0.8732 -0.5315
   76CHL1   C12 8061   0.720   4.711   7.674 -0.0482  0.7674  0.2854
   76CHL1  H12A 8062   0.804   4.780   7.696  0.3724  0.1130  0.7717
   76CHL1  H12B 8063   0.716   4.624   7.743  2.5803  0.3503  0.0214
   76CHL1   C11 8064   0.737   4.650   7.532 -0.2977  0.2939 -0.8895
   76CHL1  H11A 8065   0.770   4.726   7.457 -1.0079  2.0852  0.5480
   76CHL1  H11B 8066   0.821   4.578   7.543 -1.1018 -0.8255 -1.7905
   76CHL1    C9 8067   0.613   4.570   7.485  0.7344  0.0150  0.1993
   76CHL1    H9 8068   0.595   4.497   7.567 -1.3048  1.7043  1.3405
   76CHL1   C10 8069   0.632   4.479   7.351  0.1029 -0.2884  0.7688
   76CHL1   C19 8070   0.702   4.570   7.243 -0.0913 -0.3066  0.0668
   76CHL1  H19A 8071   0.741   4.513   7.156  1.2801  0.6594  0.0093
   76CHL1  H19B 8072   0.632   4.650   7.212 -0.1799  0.6494  2.5319
   76CHL1  H19C 8073   0.798   4.614   7.277  0.1798 -0.1890 -0.8100
   76CHL1    C1 8074   0.702   4.346   7.384 -0.4315  0.0192  0.6206
   76CHL1   H1A 8075   0.801   4.367   7.429 -1.6660 -0.5496  3.8580
   76CHL1   H1B 8076   0.639   4.291   7.456  0.4417 -2.6197 -0.4952
   76CHL1    C2 8077   0.719   4.240   7.273 -0.0975 -0.6015  0.4173
   76CHL1   H2A 8078   0.771   4.147   7.306  0.6909 -0.7994 -1.2757
   76CHL1   H2B 8079   0.782   4.287   7.194 -1.3080  0.0953 -0.1649
   76CHL1   C20 8080   0.603   4.922   7.913 -0.0990 -0.3466  0.3633
   76CHL1   H20 8081   0.623   5.015   7.855  0.7332  0.1400  1.4108
   76CHL1   C21 8082   0.738   4.873   7.976 -0.1564 -0.4536  0.2975
   76CHL1  H21A 8083   0.782   4.954   8.037  0.2746  0.4081 -1.0939
   76CHL1  H21B 8084   0.816   4.853   7.899 -2.1276  0.4518 -2.0974
   76CHL1  H21C 8085   0.724   4.782   8.039  2.7341 -1.7187 -0.6905
   76CHL1   C22 8086   0.507   4.969   8.028  0.2258 -0.2280  0.2422
   76CHL1  H22A 8087   0.417   5.025   7.993 -0.3229  1.1194  3.5209
   76CHL1  H22B 8088   0.470   4.880   8.083  0.7789 -0.1174  0.8008
   76CHL1   C23 8089   0.571   5.071   8.123 -0.0736  0.0707 -0.3735
   76CHL1  H23A 8090   0.655   5.027   8.180 -1.8192  1.5765  3.6868
   76CHL1  H23B 8091   0.621   5.146   8.058  0.4727  0.5303  0.5533
   76CHL1   C24 8092   0.473   5.150   8.214 -1.2918  0.1755  0.7724
   76CHL1  H24A 8093   0.440   5.229   8.143  2.1182  0.2286 -1.0058
   76CHL1  H24B 8094   0.384   5.090   8.241 -2.0264  0.8338 -0.1033
   76CHL1   C25 8095   0.541   5.217   8.342  0.1257 -0.0148 -0.2024
   76CHL1   H25 8096   0.610   5.137   8.375 -1.3002 -1.0206  0.4597
   76CHL1   C26 8097   0.631   5.343   8.312  0.2169  0.5393  0.5445
   76CHL1  H26A 8098   0.582   5.428   8.260  1.4366  1.6504  1.1588
   76CHL1  H26B 8099   0.682   5.388   8.400  1.9521  0.1322 -0.2200
   76CHL1  H26C 8100   0.708   5.303   8.242  0.7663  0.0419  1.4227
   76CHL1   C27 8101   0.431   5.255   8.441  0.2056  0.4916  0.1014
   76CHL1  H27A 8102   0.386   5.169   8.494 -1.3823  1.5896  0.6061
   76CHL1  H27B 8103   0.490   5.301   8.523  1.1090  1.0690 -0.8496
   76CHL1  H27C 8104   0.354   5.327   8.404 -0.8925 -0.9163 -0.4285
   77CHL1    C3 8105   3.383   4.542   6.882  0.0296  0.1059 -0.0982
   77CHL1    H3 8106   3.343   4.438   6.887  3.3623 -1.2608  2.4354
   77CHL1    O3 8107   3.376   4.584   6.746 -0.3413  0.1409  0.2988
   77CHL1   H3' 8108   3.412   4.673   6.740 -0.3361  0.0647 -3.4409
   77CHL1    C4 8109   3.295   4.622   6.981 -0.0189  0.4905 -0.0598
   77CHL1   H4A 8110   3.330   4.727   6.978  0.1459  0.4406  0.0977
   77CHL1   H4B 8111   3.191   4.606   6.946  0.2155  0.3696 -0.7248
   77CHL1    C5 8112   3.295   4.573   7.122 -0.2453 -0.2699  0.0846
   77CHL1    C6 8113   3.185   4.555   7.198  0.6098  0.2977 -0.4093
   77CHL1    H6 8114   3.087   4.561   7.148  0.1094  1.5676  0.6908
   77CHL1    C7 8115   3.184   4.520   7.343 -0.3258 -0.3051  0.3412
   77CHL1   H7A 8116   3.117   4.589   7.399 -0.7659  1.3093 -2.0621
   77CHL1   H7B 8117   3.137   4.421   7.358  0.4689 -0.3542  3.1934
   77CHL1    C8 8118   3.326   4.522   7.412 -0.7566  0.2848 -0.2167
   77CHL1    H8 8119   3.350   4.629   7.429 -0.3304  0.2400 -0.5166
   77CHL1   C14 8120   3.338   4.453   7.539 -0.2054  1.4081 -0.3707
   77CHL1   H14 8121   3.314   4.349   7.509 -0.8920  0.7828  2.1856
   77CHL1   C15 8122   3.233   4.485   7.650 -1.0668  0.5853  0.2421
   77CHL1  H15A 8123   3.215   4.592   7.625 -3.0327  0.2148 -0.0366
   77CHL1  H15B 8124   3.136   4.440   7.621  0.0221 -1.7894  0.0521
   77CHL1   C16 8125   3.296   4.433   7.782  0.3293 -0.5751 -0.2883
   77CHL1  H16A 8126   3.329   4.520   7.842  0.0639 -1.0658  0.5737
   77CHL1  H16B 8127   3.228   4.365   7.837 -0.2429 -2.1071 -2.6988
   77CHL1   C17 8128   3.435   4.370   7.740  0.0337  0.0121  0.6189
   77CHL1   H17 8129   3.411   4.265   7.712  0.6453 -0.1806  0.7887
   77CHL1   C13 8130   3.470   4.441   7.609 -0.1244 -0.0799  1.7255
   77CHL1   C18 8131   3.512   4.588   7.633 -0.3480  0.6825  0.2070
   77CHL1  H18A 8132   3.439   4.649   7.690 -1.7037  0.1907 -0.9697
   77CHL1  H18B 8133   3.597   4.581   7.705 -1.2067 -0.7318  1.1308
   77CHL1  H18C 8134   3.539   4.638   7.538 -0.2458 -1.4059 -0.9002
   77CHL1   C12 8135   3.571   4.371   7.511 -0.0945 -0.1598  0.0235
   77CHL1  H12A 8136   3.676   4.371   7.548 -0.0212  0.0122 -0.1779
   77CHL1  H12B 8137   3.531   4.268   7.500 -0.5740 -0.2213  1.9767
   77CHL1   C11 8138   3.569   4.435   7.370  0.1139 -0.0986 -0.0723
   77CHL1  H11A 8139   3.629   4.528   7.380 -0.8950  0.4660  0.9532
   77CHL1  H11B 8140   3.625   4.366   7.304 -1.7379 -1.3478 -0.4039
   77CHL1    C9 8141   3.430   4.468   7.311  0.0493  0.4226 -0.4337
   77CHL1    H9 8142   3.379   4.373   7.284 -1.9022  1.5477 -0.9785
   77CHL1   C10 8143   3.434   4.556   7.184 -1.0206  0.0641  0.1806
   77CHL1   C19 8144   3.494   4.692   7.213  0.2415 -0.1823 -0.1228
   77CHL1  H19A 8145   3.415   4.746   7.271  0.0067  2.2616 -2.5024
   77CHL1  H19B 8146   3.589   4.687   7.271  0.1977 -0.0306 -0.0369
   77CHL1  H19C 8147   3.503   4.759   7.125 -1.1451  0.8580  0.4870
   77CHL1    C1 8148   3.519   4.481   7.078  0.1100  0.5629  0.1888
   77CHL1   H1A 8149   3.625   4.472   7.110  0.6630  4.9191  0.2039
   77CHL1   H1B 8150   3.490   4.374   7.075  4.0829 -0.6856 -0.6644
   77CHL1    C2 8151   3.530   4.541   6.936  0.7402  0.1121 -0.0508
   77CHL1   H2A 8152   3.586   4.478   6.864 -0.2850  0.1724 -0.9258
   77CHL1   H2B 8153   3.567   4.645   6.940  0.5765  0.2226 -1.1495
   77CHL1   C20 8154   3.533   4.362   7.858  0.1274 -0.4524  0.1719
   77CHL1   H20 8155   3.533   4.464   7.903 -2.4345  0.0965 -0.9397
   77CHL1   C21 8156   3.670   4.311   7.816 -0.4099  0.4444  0.2500
   77CHL1  H21A 8157   3.729   4.395   7.772 -0.2745  0.9564  1.3800
   77CHL1  H21B 8158   3.654   4.236   7.736  1.1741 -0.8940  1.1380
   77CHL1  H21C 8159   3.728   4.265   7.898  1.8562  0.5627 -1.1848
   77CHL1   C22 8160   3.472   4.272   7.970 -0.2781 -0.3778 -0.1156
   77CHL1  H22A 8161   3.367   4.295   7.997  0.5267  1.1476  1.9019
   77CHL1  H22B 8162   3.487   4.166   7.939  0.8314  0.2221 -1.7694
   77CHL1   C23 8163   3.542   4.278   8.109  0.8218  0.1600 -0.2602
   77CHL1  H23A 8164   3.518   4.181   8.156  1.2794  0.0994 -0.1449
   77CHL1  H23B 8165   3.653   4.293   8.111  0.7915  0.2664  1.1234
   77CHL1   C24 8166   3.485   4.387   8.200  0.2685  0.4212 -0.3836
   77CHL1  H24A 8167   3.517   4.479   8.148 -1.2423  1.0981 -0.1435
   77CHL1  H24B 8168   3.375   4.375   8.199  0.3560 -1.0493  1.5119
   77CHL1   C25 8169   3.538   4.381   8.350  0.4188  0.4318  0.7275
   77CHL1   H25 8170   3.523   4.274   8.378  1.2955  0.3158  0.7831
   77CHL1   C26 8171   3.681   4.423   8.371 -0.2348  0.1746 -0.5905
   77CHL1  H26A 8172   3.702   4.531   8.358 -0.5824  0.6023  1.8836
   77CHL1  H26B 8173   3.711   4.407   8.477  1.0629  0.9753 -0.8186
   77CHL1  H26C 8174   3.746   4.357   8.309 -0.2352 -0.5731  0.1769
   77CHL1   C27 8175   3.439   4.458   8.442  0.0954  0.1353 -0.7371
   77CHL1  H27A 8176   3.445   4.433   8.550  2.0485 -2.1107 -1.2989
   77CHL1  H27B 8177   3.470   4.564   8.431  1.8647 -0.1857  0.7912
   77CHL1  H27C 8178   3.334   4.432   8.415  0.5284 -1.5649 -0.8603
   78CHL1    C3 8179   3.871   4.091   6.701  0.9536  1.1252 -0.3112
   78CHL1    H3 8180   3.951   4.014   6.695  0.5961  0.7549 -0.4447
   78CHL1    O3 8181   3.839   4.119   6.571 -0.7890  0.2035  0.1858
   78CHL1   H3' 8182   3.830   4.033   6.529 -1.1264  1.1423 -1.7651
   78CHL1    C4 8183   3.758   4.015   6.780  0.2597 -0.1323 -0.6495
   78CHL1   H4A 8184   3.664   4.074   6.778 -0.0836 -0.6755 -0.5257
   78CHL1   H4B 8185   3.736   3.925   6.719 -1.0446 -0.3131  0.0638
   78CHL1    C5 8186   3.801   3.974   6.922 -0.2302  0.6985 -0.0849
   78CHL1    C6 8187   3.795   3.845   6.973  0.2691 -0.1824 -0.0427
   78CHL1    H6 8188   3.761   3.766   6.904  0.3246 -0.0805 -0.1861
   78CHL1    C7 8189   3.843   3.806   7.107  0.1021 -0.2829 -0.4287
   78CHL1   H7A 8190   3.777   3.728   7.152  1.7865 -0.8116  1.2744
   78CHL1   H7B 8191   3.943   3.758   7.105 -0.1173 -0.7394 -1.0453
   78CHL1    C8 8192   3.858   3.928   7.200 -0.1462 -0.1342  0.2811
   78CHL1    H8 8193   3.753   3.955   7.224 -0.7532 -1.9190 -0.2602
   78CHL1   C14 8194   3.942   3.900   7.325  0.5157 -0.3409  0.0090
   78CHL1   H14 8195   4.043   3.876   7.288  0.8949 -1.3437  1.5998
   78CHL1   C15 8196   3.899   3.778   7.404  0.4127 -0.0546  0.2247
   78CHL1  H15A 8197   3.788   3.779   7.403  0.3696  0.2495  1.8849
   78CHL1  H15B 8198   3.937   3.684   7.358  1.4478  0.0695  0.8106
   78CHL1   C16 8199   3.945   3.801   7.544 -0.2482 -0.4033 -0.0603
   78CHL1  H16A 8200   3.860   3.829   7.609 -0.9140 -0.4933 -0.8724
   78CHL1  H16B 8201   4.001   3.716   7.590  1.5745  1.9034  2.2488
   78CHL1   C17 8202   4.034   3.933   7.538 -0.2932 -0.7147 -0.3264
   78CHL1   H17 8203   4.133   3.907   7.494  0.2206  0.7565 -0.0827
   78CHL1   C13 8204   3.963   4.011   7.429  0.4930 -0.0553  0.0335
   78CHL1   C18 8205   3.834   4.082   7.483  0.1632  0.3765 -0.5381
   78CHL1  H18A 8206   3.775   4.005   7.537  0.7585 -0.5293 -1.1711
   78CHL1  H18B 8207   3.844   4.174   7.545  0.2641  0.0685 -0.0923
   78CHL1  H18C 8208   3.780   4.103   7.388  3.2421 -2.7645 -3.2215
   78CHL1   C12 8209   4.056   4.120   7.359 -0.6182  0.5297 -0.2623
   78CHL1  H12A 8210   4.065   4.215   7.416  1.1910 -0.6993  1.6123
   78CHL1  H12B 8211   4.156   4.072   7.351 -1.3053 -0.8604 -0.9177
   78CHL1   C11 8212   3.991   4.158   7.224  0.0661 -0.2422 -0.3234
   78CHL1  H11A 8213   3.907   4.224   7.254  0.3985  0.1259 -0.1988
   78CHL1  H11B 8214   4.060   4.229   7.175  0.1553  0.8121  1.2308
   78CHL1    C9 8215   3.928   4.048   7.132  0.5057  0.3474  0.0345
   78CHL1    H9 8216   4.018   3.992   7.099 -0.6384 -0.0478 -2.6387
   78CHL1   C10 8217   3.853   4.095   7.001  0.0814 -1.1486  0.3787
   78CHL1   C19 8218   3.740   4.193   7.041  0.6183  0.2280 -0.1395
   78CHL1  H19A 8219   3.677   4.222   6.954  0.6969  0.7843 -0.0138
   78CHL1  H19B 8220   3.670   4.158   7.120 -1.5219  1.4258 -1.3990
   78CHL1  H19C 8221   3.789   4.287   7.074 -0.1676  2.1361 -3.8164
   78CHL1    C1 8222   3.959   4.173   6.921  0.2570 -0.2050 -0.5790
   78CHL1   H1A 8223   3.997   4.263   6.974 -1.4870  0.2515 -0.0132
   78CHL1   H1B 8224   4.049   4.109   6.911 -1.5726 -3.3539  1.3894
   78CHL1    C2 8225   3.910   4.215   6.782 -0.0824  0.2600  0.5565
   78CHL1   H2A 8226   3.997   4.258   6.727  0.2319 -0.9808  0.0495
   78CHL1   H2B 8227   3.831   4.292   6.776  0.3418  0.8890  2.4446
   78CHL1   C20 8228   4.057   4.001   7.673 -0.3357  0.2251  0.4475
   78CHL1   H20 8229   3.956   4.035   7.706 -0.2588  0.8290  0.0709
   78CHL1   C21 8230   4.153   4.114   7.671  0.7707  0.2936  0.3789
   78CHL1  H21A 8231   4.249   4.093   7.619 -0.0583  0.3426 -1.2526
   78CHL1  H21B 8232   4.175   4.141   7.776 -0.0481 -1.2141  0.9679
   78CHL1  H21C 8233   4.108   4.202   7.619  0.7775  0.6943  1.0388
   78CHL1   C22 8234   4.106   3.897   7.772  0.0428  0.0350 -0.4472
   78CHL1  H22A 8235   4.119   3.956   7.865  4.2446 -0.3112 -0.6360
   78CHL1  H22B 8236   4.021   3.826   7.784 -0.3912  0.6647  0.3159
   78CHL1   C23 8237   4.243   3.836   7.744  0.2877 -0.0519 -0.1524
   78CHL1  H23A 8238   4.237   3.796   7.640 -0.6518 -0.5479  0.0744
   78CHL1  H23B 8239   4.333   3.900   7.752  1.1120 -1.1654 -0.3309
   78CHL1   C24 8240   4.274   3.719   7.848 -0.9710  0.8038  0.2862
   78CHL1  H24A 8241   4.204   3.633   7.841  0.7131 -0.7845  1.7813
   78CHL1  H24B 8242   4.375   3.682   7.822 -1.2941 -0.2993  0.5438
   78CHL1   C25 8243   4.285   3.763   8.005  0.5183  0.1338  0.4952
   78CHL1   H25 8244   4.187   3.813   8.024  0.8616  1.2436 -0.5149
   78CHL1   C26 8245   4.296   3.626   8.072 -0.0713  0.0125 -0.8836
   78CHL1  H26A 8246   4.316   3.615   8.180  1.8511 -1.1934 -1.3153
   78CHL1  H26B 8247   4.198   3.578   8.048 -0.2640  0.3723 -0.8215
   78CHL1  H26C 8248   4.375   3.564   8.025 -0.4874 -1.7613  0.6484
   78CHL1   C27 8249   4.401   3.862   8.033  1.2133 -0.3157 -0.1004
   78CHL1  H27A 8250   4.388   3.947   7.963  0.9711 -0.9290 -0.8066
   78CHL1  H27B 8251   4.401   3.883   8.142  0.5594 -3.3943  0.5757
   78CHL1  H27C 8252   4.491   3.799   8.016 -0.3930 -3.0062  0.8074
   79CHL1    C3 8253   1.764   4.138   7.047  0.6852  0.1104 -0.5119
   79CHL1    H3 8254   1.801   4.043   7.093  1.2942  0.6733  0.1844
   79CHL1    O3 8255   1.762   4.132   6.908  0.4501 -0.1330  0.1085
   79CHL1   H3' 8256   1.836   4.187   6.881  1.3075  0.3897  3.1883
   79CHL1    C4 8257   1.618   4.161   7.095 -0.1751  0.4409  0.1360
   79CHL1   H4A 8258   1.579   4.243   7.031  0.0270 -2.0220 -3.4622
   79CHL1   H4B 8259   1.539   4.089   7.064 -0.5087  0.6192  0.5754
   79CHL1    C5 8260   1.614   4.196   7.245  0.3713 -0.0297  0.3442
   79CHL1    C6 8261   1.534   4.129   7.327  0.0003  0.4013 -0.3124
   79CHL1    H6 8262   1.472   4.047   7.288 -0.4709  0.2757  0.6730
   79CHL1    C7 8263   1.511   4.165   7.474 -0.9429 -0.3806  0.0775
   79CHL1   H7A 8264   1.403   4.179   7.495 -0.7368  0.6576  0.5142
   79CHL1   H7B 8265   1.552   4.078   7.531 -0.2712  0.2135  0.5325
   79CHL1    C8 8266   1.581   4.297   7.510  0.2710 -0.0160  0.2622
   79CHL1    H8 8267   1.519   4.379   7.467  1.6545  0.6003 -0.6444
   79CHL1   C14 8268   1.587   4.307   7.663  0.3510 -0.4065  0.4703
   79CHL1   H14 8269   1.641   4.216   7.699  0.9632 -0.3148 -0.1928
   79CHL1   C15 8270   1.451   4.292   7.744  0.5670 -0.2216  0.3988
   79CHL1  H15A 8271   1.376   4.350   7.687 -0.0060 -1.3339 -0.0114
   79CHL1  H15B 8272   1.430   4.183   7.752  1.7920 -0.4453  0.8621
   79CHL1   C16 8273   1.484   4.364   7.876  0.1838 -0.4663  0.1959
   79CHL1  H16A 8274   1.405   4.441   7.888  1.7785  1.3216 -0.1563
   79CHL1  H16B 8275   1.465   4.300   7.964 -0.2840  2.1205  2.1003
   79CHL1   C17 8276   1.626   4.427   7.865 -0.1917 -0.4112  0.1494
   79CHL1   H17 8277   1.693   4.349   7.908 -0.6206 -2.7734 -3.1288
   79CHL1   C13 8278   1.655   4.436   7.714 -0.5143  0.6870  0.0044
   79CHL1   C18 8279   1.576   4.559   7.658  0.1032  1.0295 -1.0096
   79CHL1  H18A 8280   1.542   4.545   7.553 -2.0286  0.2764 -0.2670
   79CHL1  H18B 8281   1.492   4.590   7.724 -1.1019 -1.3809 -1.3167
   79CHL1  H18C 8282   1.641   4.649   7.667  0.3512  0.8378 -0.8541
   79CHL1   C12 8283   1.797   4.436   7.669 -0.2713  0.0885 -0.5001
   79CHL1  H12A 8284   1.858   4.523   7.702 -1.1097  0.3275  0.4650
   79CHL1  H12B 8285   1.850   4.348   7.712  0.4876  0.2989 -0.9704
   79CHL1   C11 8286   1.798   4.429   7.511 -0.1122 -0.1921 -0.1236
   79CHL1  H11A 8287   1.766   4.533   7.489 -1.8435 -0.5643  0.4994
   79CHL1  H11B 8288   1.908   4.429   7.494  0.2083  0.8411  1.6643
   79CHL1    C9 8289   1.722   4.306   7.448 -0.1863  0.4419 -0.5988
   79CHL1    H9 8290   1.772   4.212   7.480 -1.1317 -0.2254 -1.0400
   79CHL1   C10 8291   1.721   4.296   7.293  0.4052 -0.0647 -0.8832
   79CHL1   C19 8292   1.680   4.439   7.244  0.1849 -0.1991  0.2473
   79CHL1  H19A 8293   1.651   4.438   7.136  2.8274 -1.7574 -0.5370
   79CHL1  H19B 8294   1.592   4.484   7.295  1.7008 -0.2035  3.0497
   79CHL1  H19C 8295   1.759   4.515   7.263 -0.6024  0.5586  0.5990
   79CHL1    C1 8296   1.858   4.261   7.237  0.3076 -0.1238  0.0680
   79CHL1   H1A 8297   1.937   4.328   7.278 -0.4821  1.9023 -1.5619
   79CHL1   H1B 8298   1.881   4.159   7.275  4.2620  0.3798 -0.5877
   79CHL1    C2 8299   1.857   4.255   7.084  0.4156  0.5471 -0.2738
   79CHL1   H2A 8300   1.961   4.237   7.051  1.0947  0.7808  1.5856
   79CHL1   H2B 8301   1.818   4.347   7.036 -0.5184  0.0622 -0.4600
   79CHL1   C20 8302   1.636   4.549   7.956  0.2948  0.3030 -1.0344
   79CHL1   H20 8303   1.572   4.629   7.915  0.1215  1.2665  0.9848
   79CHL1   C21 8304   1.776   4.622   7.950 -0.2091  0.0012 -0.2164
   79CHL1  H21A 8305   1.800   4.658   7.847  1.1689 -0.4744 -0.0830
   79CHL1  H21B 8306   1.859   4.561   7.989 -0.4714 -0.4580 -0.3655
   79CHL1  H21C 8307   1.771   4.712   8.015 -1.6803 -0.9926  1.1056
   79CHL1   C22 8308   1.586   4.525   8.102 -0.1767  0.6917 -0.3500
   79CHL1  H22A 8309   1.476   4.507   8.093  0.2495 -1.6995 -2.0707
   79CHL1  H22B 8310   1.641   4.438   8.144  0.2945  0.9465 -0.4402
   79CHL1   C23 8311   1.611   4.648   8.195 -0.3889  0.2531 -0.1654
   79CHL1  H23A 8312   1.717   4.651   8.230 -0.6604  0.9068  0.6463
   79CHL1  H23B 8313   1.596   4.738   8.133  1.0571  0.6388 -0.0077
   79CHL1   C24 8314   1.530   4.642   8.317 -0.0965  0.2570 -0.6146
   79CHL1  H24A 8315   1.537   4.741   8.366 -2.1709  0.3088 -0.3013
   79CHL1  H24B 8316   1.424   4.638   8.283 -0.5389  2.1671  0.3851
   79CHL1   C25 8317   1.563   4.528   8.421 -0.0642 -0.5104  0.0922
   79CHL1   H25 8318   1.566   4.431   8.368  0.4752 -0.9070  0.8331
   79CHL1   C26 8319   1.695   4.543   8.500 -0.6403 -0.5323  0.3940
   79CHL1  H26A 8320   1.706   4.464   8.578  2.3320 -0.2299  0.4082
   79CHL1  H26B 8321   1.786   4.530   8.438  0.2227  0.0695  1.4818
   79CHL1  H26C 8322   1.705   4.645   8.543  1.6699 -0.5723  0.0935
   79CHL1   C27 8323   1.446   4.511   8.526 -0.5243  0.6025 -0.5031
   79CHL1  H27A 8324   1.429   4.600   8.590  0.0342  0.9012 -0.7682
   79CHL1  H27B 8325   1.358   4.491   8.461  0.1771 -0.8272 -1.0548
   79CHL1  H27C 8326   1.463   4.422   8.590 -0.2670  0.8179 -0.2716
   80CHL1    C3 8327   6.386   6.245   6.959  0.3925  0.0094  0.2246
   80CHL1    H3 8328   6.366   6.354   6.965 -2.5196 -0.4900  0.9533
   80CHL1    O3 8329   6.366   6.192   6.828 -0.2327  0.0950  0.1395
   80CHL1   H3' 8330   6.370   6.096   6.830 -2.1463 -0.0692 -1.0198
   80CHL1    C4 8331   6.531   6.222   7.007  0.4388 -1.0155 -0.0934
   80CHL1   H4A 8332   6.558   6.114   7.006 -0.5020 -1.3014  1.6572
   80CHL1   H4B 8333   6.597   6.270   6.931  0.7553  0.2784  0.9733
   80CHL1    C5 8334   6.541   6.266   7.153  0.0840  0.1426  0.3328
   80CHL1    C6 8335   6.624   6.364   7.184  1.0525  0.1516  0.6889
   80CHL1    H6 8336   6.689   6.409   7.108  1.1177  1.0715  1.2691
   80CHL1    C7 8337   6.637   6.417   7.324 -0.7109 -0.4142  0.5099
   80CHL1   H7A 8338   6.747   6.432   7.336 -0.1700 -3.2109 -0.2443
   80CHL1   H7B 8339   6.602   6.520   7.344  0.7324  0.4420 -1.0476
   80CHL1    C8 8340   6.592   6.313   7.437  0.3095  0.6183 -0.5860
   80CHL1    H8 8341   6.674   6.239   7.433 -0.5370 -0.2939 -1.5936
   80CHL1   C14 8342   6.601   6.368   7.578 -0.1841 -0.0316  0.3438
   80CHL1   H14 8343   6.521   6.445   7.583  1.4890  1.7096  1.3466
   80CHL1   C15 8344   6.728   6.438   7.615 -0.3760  0.2667 -0.2181
   80CHL1  H15A 8345   6.812   6.378   7.576 -0.4986 -0.3296  0.4120
   80CHL1  H15B 8346   6.747   6.534   7.563 -2.1143  1.6137  1.4312
   80CHL1   C16 8347   6.719   6.448   7.770  0.0104 -0.2672  0.3495
   80CHL1  H16A 8348   6.810   6.400   7.812 -0.1685 -0.7940  0.1482
   80CHL1  H16B 8349   6.712   6.557   7.791 -1.0385  0.4121 -2.9278
   80CHL1   C17 8350   6.591   6.372   7.810  0.4516  0.6016  0.0429
   80CHL1   H17 8351   6.515   6.453   7.809  2.1009  2.3860  3.2749
   80CHL1   C13 8352   6.565   6.277   7.690  0.7909  0.7569  0.3034
   80CHL1   C18 8353   6.660   6.156   7.705 -0.5904 -0.3984  0.3552
   80CHL1  H18A 8354   6.625   6.100   7.794 -1.9454 -0.3848 -0.1526
   80CHL1  H18B 8355   6.659   6.089   7.617 -0.0123  0.0508 -0.0078
   80CHL1  H18C 8356   6.765   6.186   7.727 -0.8330  0.9511 -0.1823
   80CHL1   C12 8357   6.421   6.223   7.665 -0.2431 -0.0780 -0.0419
   80CHL1  H12A 8358   6.394   6.150   7.743 -0.5255  0.5605  0.4683
   80CHL1  H12B 8359   6.345   6.304   7.673 -0.1364  0.3390 -2.3118
   80CHL1   C11 8360   6.409   6.158   7.521 -0.1266  0.6043 -0.6171
   80CHL1  H11A 8361   6.464   6.063   7.531 -0.1092  0.4502 -1.9353
   80CHL1  H11B 8362   6.300   6.135   7.509  0.0859 -0.0352 -1.4049
   80CHL1    C9 8363   6.458   6.251   7.405  0.2149 -0.2490  1.1579
   80CHL1    H9 8364   6.384   6.333   7.395  0.9602  0.2233 -0.9498
   80CHL1   C10 8365   6.455   6.187   7.259 -0.4429 -0.1022 -0.4017
   80CHL1   C19 8366   6.502   6.037   7.257  0.1635 -0.1596 -0.7492
   80CHL1  H19A 8367   6.604   6.032   7.300  0.9639 -0.3671 -2.6222
   80CHL1  H19B 8368   6.425   5.979   7.312 -1.6077  2.0241 -0.7772
   80CHL1  H19C 8369   6.508   5.990   7.157 -0.0866 -1.0884 -0.3368
   80CHL1    C1 8370   6.313   6.207   7.202  0.0964  0.0315 -0.4163
   80CHL1   H1A 8371   6.238   6.159   7.268  0.2840  1.5300  0.9396
   80CHL1   H1B 8372   6.283   6.314   7.202  3.2703  1.0360 -0.0367
   80CHL1    C2 8373   6.290   6.176   7.050 -0.6543 -0.1728  0.2869
   80CHL1   H2A 8374   6.185   6.200   7.024 -0.0078  0.4067 -1.9701
   80CHL1   H2B 8375   6.313   6.067   7.048  0.9625  0.1449 -1.6053
   80CHL1   C20 8376   6.597   6.311   7.949 -0.5306 -0.2133  0.1504
   80CHL1   H20 8377   6.685   6.244   7.949  0.5766  1.2084  0.3339
   80CHL1   C21 8378   6.468   6.225   8.000 -0.3505 -0.7992  0.3640
   80CHL1  H21A 8379   6.501   6.177   8.094  0.8839  0.0515  0.3916
   80CHL1  H21B 8380   6.439   6.138   7.937  2.6275 -2.1478  0.6411
   80CHL1  H21C 8381   6.386   6.295   8.023  0.4219  0.6840 -1.1708
   80CHL1   C22 8382   6.640   6.423   8.055 -0.2337 -0.0302 -0.2962
   80CHL1  H22A 8383   6.651   6.379   8.157 -1.1198  1.3770  0.4458
   80CHL1  H22B 8384   6.737   6.466   8.023 -0.7110  1.4206  0.1196
   80CHL1   C23 8385   6.534   6.531   8.071  1.1204  0.4808  0.2841
   80CHL1  H23A 8386   6.487   6.553   7.972 -2.7712 -4.5494  0.5936
   80CHL1  H23B 8387   6.446   6.482   8.118 -0.2841 -0.3401 -2.8778
   80CHL1   C24 8388   6.570   6.649   8.166 -0.7469 -0.2820 -0.1261
   80CHL1  H24A 8389   6.563   6.600   8.265  0.5836 -2.3871 -1.0125
   80CHL1  H24B 8390   6.671   6.691   8.150 -0.0552 -1.0323  1.9916
   80CHL1   C25 8391   6.473   6.764   8.179 -0.3223  0.7554  0.5830
   80CHL1   H25 8392   6.474   6.816   8.081  0.3105 -2.4879 -1.2737
   80CHL1   C26 8393   6.337   6.731   8.225  0.3668 -0.9014 -0.1722
   80CHL1  H26A 8394   6.337   6.670   8.318 -0.9607  0.8328  1.0158
   80CHL1  H26B 8395   6.278   6.824   8.239 -2.8425 -2.9652  1.2412
   80CHL1  H26C 8396   6.281   6.677   8.146 -0.6048 -1.1066  0.6262
   80CHL1   C27 8397   6.528   6.859   8.286 -0.2459 -0.3379 -0.1649
   80CHL1  H27A 8398   6.552   6.815   8.385 -1.6804 -1.0389 -0.1107
   80CHL1  H27B 8399   6.608   6.929   8.253  0.6433 -0.4571  1.5846
   80CHL1  H27C 8400   6.450   6.933   8.316  0.9151  0.5188  0.8501
   81CHL1    C3 8401   4.225   1.438   6.837  0.1665 -0.3561 -0.3544
   81CHL1    H3 8402   4.332   1.447   6.867 -0.0613  1.7339 -0.0448
   81CHL1    O3 8403   4.215   1.451   6.700 -0.1580 -0.3509  0.6034
   81CHL1   H3' 8404   4.277   1.519   6.672  1.5381 -1.6644  0.9751
   81CHL1    C4 8405   4.176   1.297   6.873  0.6705 -1.0454  0.3424
   81CHL1   H4A 8406   4.076   1.281   6.827  0.6039 -3.1360  1.1219
   81CHL1   H4B 8407   4.247   1.233   6.818  3.2128  2.6603 -1.1306
   81CHL1    C5 8408   4.182   1.280   7.025  0.4994  0.0110 -0.1459
   81CHL1    C6 8409   4.260   1.191   7.087  0.8670 -0.3141 -0.3622
   81CHL1    H6 8410   4.301   1.110   7.025 -2.3644 -1.7263 -0.8520
   81CHL1    C7 8411   4.290   1.170   7.235 -0.5052  0.3010  0.9624
   81CHL1   H7A 8412   4.309   1.063   7.260 -0.7990 -0.0395 -0.1708
   81CHL1   H7B 8413   4.385   1.220   7.262  1.0304 -1.0944 -1.4454
   81CHL1    C8 8414   4.177   1.235   7.314  0.5441  0.5701  0.1388
   81CHL1    H8 8415   4.083   1.178   7.300  0.7979  0.1027  0.3331
   81CHL1   C14 8416   4.202   1.233   7.463  0.7085 -0.7393  0.5928
   81CHL1   H14 8417   4.295   1.294   7.466  0.5175  0.1735 -4.1355
   81CHL1   C15 8418   4.241   1.092   7.523 -0.5883  0.6239  0.1002
   81CHL1  H15A 8419   4.168   1.015   7.490  0.5550 -0.0365 -0.9377
   81CHL1  H15B 8420   4.345   1.070   7.492  0.1159  1.3099  1.8449
   81CHL1   C16 8421   4.241   1.123   7.669  0.2821 -0.1076 -0.1093
   81CHL1  H16A 8422   4.192   1.039   7.722 -1.7563  1.2323  0.2615
   81CHL1  H16B 8423   4.346   1.143   7.699 -0.0137  4.4207 -1.3313
   81CHL1   C17 8424   4.157   1.261   7.689 -0.8936 -0.9141 -0.4153
   81CHL1   H17 8425   4.232   1.340   7.712 -1.0969 -1.0441  0.7953
   81CHL1   C13 8426   4.099   1.295   7.555  0.2380 -0.4584  0.2795
   81CHL1   C18 8427   3.970   1.222   7.535  0.3521  0.6903  0.0798
   81CHL1  H18A 8428   3.882   1.266   7.588 -0.0936 -1.6127  1.3940
   81CHL1  H18B 8429   3.925   1.224   7.433 -1.9401  1.9662  1.0320
   81CHL1  H18C 8430   3.989   1.115   7.560 -1.5240  0.5955  1.2709
   81CHL1   C12 8431   4.098   1.443   7.520  0.0663 -0.0266 -0.8287
   81CHL1  H12A 8432   4.029   1.492   7.592  1.5213 -1.8079  1.9926
   81CHL1  H12B 8433   4.193   1.494   7.545 -0.4383  1.4061 -1.7244
   81CHL1   C11 8434   4.068   1.466   7.369  0.9874 -0.2092  0.3798
   81CHL1  H11A 8435   3.964   1.429   7.356  1.3042 -1.6709  1.7582
   81CHL1  H11B 8436   4.072   1.576   7.351  0.0085 -0.2391 -0.1161
   81CHL1    C9 8437   4.160   1.384   7.266  0.6036 -0.4030  0.4471
   81CHL1    H9 8438   4.266   1.410   7.287  1.2491 -1.5263 -1.1813
   81CHL1   C10 8439   4.120   1.398   7.112  0.0518 -0.0288 -0.2061
   81CHL1   C19 8440   3.967   1.378   7.102 -0.4914 -0.2423  0.3167
   81CHL1  H19A 8441   3.938   1.271   7.116  0.1145 -0.3632  0.6617
   81CHL1  H19B 8442   3.909   1.443   7.170 -0.8393 -0.7060  0.4723
   81CHL1  H19C 8443   3.930   1.417   7.005 -0.7463 -1.8193 -0.2573
   81CHL1    C1 8444   4.171   1.540   7.056 -0.4620  0.5052 -0.1633
   81CHL1   H1A 8445   4.119   1.623   7.109  0.8179  1.2050  0.0375
   81CHL1   H1B 8446   4.274   1.545   7.098 -0.6087  1.0292  0.1514
   81CHL1    C2 8447   4.153   1.549   6.906 -0.6184  0.3018  0.4499
   81CHL1   H2A 8448   4.198   1.643   6.869  0.4978 -0.9056 -1.4514
   81CHL1   H2B 8449   4.044   1.546   6.888 -1.0079  0.2009  2.6054
   81CHL1   C20 8450   4.065   1.246   7.815 -0.0850  0.3751  0.0829
   81CHL1   H20 8451   3.977   1.179   7.803 -1.0852  0.7988  3.7655
   81CHL1   C21 8452   4.008   1.385   7.843 -0.1132  0.3660  0.1099
   81CHL1  H21A 8453   3.962   1.380   7.944  0.1548  0.9203  0.2636
   81CHL1  H21B 8454   3.920   1.406   7.778 -1.8730 -1.2844  1.8433
   81CHL1  H21C 8455   4.089   1.461   7.844  2.7708 -2.4350  2.0899
   81CHL1   C22 8456   4.144   1.195   7.945  0.2947 -0.0671  0.2240
   81CHL1  H22A 8457   4.205   1.111   7.905  3.5701  2.8894 -1.4862
   81CHL1  H22B 8458   4.216   1.276   7.967 -1.1348  0.8363  1.8327
   81CHL1   C23 8459   4.065   1.161   8.069 -0.0993  0.7309 -0.2679
   81CHL1  H23A 8460   3.994   1.240   8.103 -0.2321  0.4242  0.1787
   81CHL1  H23B 8461   3.996   1.074   8.073 -0.6524  1.1451 -0.5765
   81CHL1   C24 8462   4.164   1.129   8.182 -0.6517 -0.1414 -0.1849
   81CHL1  H24A 8463   4.183   1.020   8.184  1.9707  0.2723  0.4714
   81CHL1  H24B 8464   4.261   1.171   8.148 -1.2652 -0.5801 -2.6984
   81CHL1   C25 8465   4.107   1.176   8.316  0.7091 -0.1530 -0.3009
   81CHL1   H25 8466   4.082   1.283   8.303  0.6308 -0.1101  0.1796
   81CHL1   C26 8467   3.986   1.101   8.365  0.1166 -0.0253 -0.3279
   81CHL1  H26A 8468   3.956   1.117   8.471  0.7460  1.0339 -0.3029
   81CHL1  H26B 8469   3.897   1.108   8.299 -1.0643  0.2124  1.2345
   81CHL1  H26C 8470   4.029   0.998   8.361 -0.5098 -0.2504 -1.5694
   81CHL1   C27 8471   4.223   1.181   8.428  0.1919 -0.0964  0.1344
   81CHL1  H27A 8472   4.172   1.213   8.521  2.0964  0.4097  1.0509
   81CHL1  H27B 8473   4.276   1.086   8.451  1.0230  0.5149  0.8278
   81CHL1  H27C 8474   4.294   1.263   8.404 -0.8022  0.4091 -1.1742
   82CHL1    C3 8475   5.349   5.248   6.903  0.1126  0.2448 -0.1825
   82CHL1    H3 8476   5.242   5.255   6.872  0.3964 -0.7856 -1.4557
   82CHL1    O3 8477   5.422   5.166   6.813  0.6294 -0.2137 -0.2127
   82CHL1   H3' 8478   5.461   5.233   6.757  0.5557  0.0609  0.0598
   82CHL1    C4 8479   5.417   5.386   6.918 -0.1628  0.4292  0.9757
   82CHL1   H4A 8480   5.517   5.362   6.960 -0.8372 -2.3143  1.2212
   82CHL1   H4B 8481   5.440   5.454   6.834  0.8802  1.2061  1.8499
   82CHL1    C5 8482   5.345   5.484   7.018  0.4868  0.5760  0.6940
   82CHL1    C6 8483   5.286   5.604   6.983 -0.1410 -0.2145 -0.0092
   82CHL1    H6 8484   5.292   5.641   6.879 -0.4102  1.3035  0.4920
   82CHL1    C7 8485   5.209   5.690   7.081 -0.0391  0.4210  0.0444
   82CHL1   H7A 8486   5.227   5.800   7.079 -2.3872  0.8617  0.8482
   82CHL1   H7B 8487   5.104   5.668   7.055 -0.4119 -0.4947  2.1781
   82CHL1    C8 8488   5.220   5.640   7.228 -0.0486 -0.5499 -0.0981
   82CHL1    H8 8489   5.314   5.686   7.265 -0.0617 -0.1301 -0.5821
   82CHL1   C14 8490   5.106   5.702   7.305  0.4270 -0.1890 -0.6239
   82CHL1   H14 8491   5.008   5.678   7.259 -0.3537  2.1007 -0.2609
   82CHL1   C15 8492   5.112   5.859   7.316  0.4799  0.0841 -0.6497
   82CHL1  H15A 8493   5.210   5.908   7.329 -0.2389  1.0688  1.5148
   82CHL1  H15B 8494   5.077   5.895   7.217 -1.7309  0.1910  0.0981
   82CHL1   C16 8495   5.018   5.892   7.425  0.2980  0.6162  0.2017
   82CHL1  H16A 8496   5.063   5.952   7.506  0.5064 -1.9109  2.0857
   82CHL1  H16B 8497   4.924   5.941   7.394  0.1961 -0.4119 -1.2635
   82CHL1   C17 8498   4.987   5.753   7.501 -0.0720  0.6433  0.8726
   82CHL1   H17 8499   4.899   5.710   7.448 -0.3745  1.7579  0.4376
   82CHL1   C13 8500   5.103   5.661   7.455  1.2545  0.1798 -0.6768
   82CHL1   C18 8501   5.232   5.708   7.530 -0.0539 -0.3467  0.0385
   82CHL1  H18A 8502   5.236   5.671   7.634  0.0738  1.4783  0.7236
   82CHL1  H18B 8503   5.318   5.665   7.475  0.2838  1.4421 -0.9339
   82CHL1  H18C 8504   5.250   5.817   7.538 -0.1933 -0.4222  1.7123
   82CHL1   C12 8505   5.092   5.508   7.469  0.5585 -0.0113  0.2953
   82CHL1  H12A 8506   5.092   5.464   7.571 -0.8338 -0.1381  0.2601
   82CHL1  H12B 8507   4.993   5.475   7.430 -0.0008 -0.2403  1.8575
   82CHL1   C11 8508   5.195   5.430   7.380 -0.1483  0.3210  0.0486
   82CHL1  H11A 8509   5.289   5.436   7.439 -1.3638 -3.9485  2.8659
   82CHL1  H11B 8510   5.154   5.328   7.373 -1.4191  0.8696 -0.6973
   82CHL1    C9 8511   5.215   5.490   7.239 -0.2730 -0.1405  1.1768
   82CHL1    H9 8512   5.119   5.465   7.188 -0.2898  1.7772  0.1508
   82CHL1   C10 8513   5.320   5.423   7.156 -0.0503  0.4840 -0.3137
   82CHL1   C19 8514   5.452   5.426   7.235 -0.0050  0.0938  0.3726
   82CHL1  H19A 8515   5.530   5.378   7.173  1.1975  0.3253  1.6501
   82CHL1  H19B 8516   5.487   5.530   7.250  1.7818 -0.4864  0.4103
   82CHL1  H19C 8517   5.461   5.363   7.326 -2.2592 -1.1204 -0.1770
   82CHL1    C1 8518   5.274   5.273   7.143 -0.8802  0.1732 -0.0555
   82CHL1   H1A 8519   5.293   5.220   7.239  0.6842 -1.7967 -1.3717
   82CHL1   H1B 8520   5.177   5.263   7.090  1.4114 -0.5406 -4.5612
   82CHL1    C2 8521   5.357   5.191   7.047 -0.0167  0.2017  0.7212
   82CHL1   H2A 8522   5.316   5.088   7.039  1.2751 -0.3159  0.4422
   82CHL1   H2B 8523   5.465   5.184   7.075 -0.0552 -1.9389  0.4595
   82CHL1   C20 8524   4.953   5.755   7.646 -0.5071  0.3325 -0.2428
   82CHL1   H20 8525   4.979   5.659   7.696  0.2240  0.9272  0.5441
   82CHL1   C21 8526   4.799   5.770   7.645 -0.2430 -0.4930  0.0466
   82CHL1  H21A 8527   4.743   5.780   7.740 -0.9117  3.3222 -0.5973
   82CHL1  H21B 8528   4.760   5.680   7.593  0.5844 -0.7957 -0.0646
   82CHL1  H21C 8529   4.796   5.859   7.578  3.5611  0.0241  0.3352
   82CHL1   C22 8530   5.024   5.855   7.738 -0.5453 -0.5909 -0.6954
   82CHL1  H22A 8531   5.133   5.837   7.751 -0.3334  0.8718 -0.1888
   82CHL1  H22B 8532   5.005   5.958   7.701 -1.1096 -0.3312  0.2788
   82CHL1   C23 8533   4.970   5.857   7.877 -0.6852 -0.6310 -0.5169
   82CHL1  H23A 8534   4.869   5.900   7.862  0.1202  0.9514 -1.5913
   82CHL1  H23B 8535   4.953   5.754   7.915 -0.9585 -0.4907 -0.2546
   82CHL1   C24 8536   5.051   5.945   7.977  0.5587  0.1195 -0.1851
   82CHL1  H24A 8537   5.157   5.910   7.972  0.7678  0.8808 -2.9680
   82CHL1  H24B 8538   5.044   6.050   7.940 -0.6283 -0.4673 -1.7301
   82CHL1   C25 8539   5.025   5.928   8.130  0.4223 -0.1709  0.1573
   82CHL1   H25 8540   5.034   5.819   8.152  2.8573  0.3657  2.2401
   82CHL1   C26 8541   5.124   6.002   8.223 -0.4678 -0.3784  0.2822
   82CHL1  H26A 8542   5.102   6.111   8.213  0.4672 -0.2785 -0.9544
   82CHL1  H26B 8543   5.094   5.975   8.326  1.8825 -0.3137  1.0478
   82CHL1  H26C 8544   5.230   5.982   8.194 -0.6563  1.2812 -1.8545
   82CHL1   C27 8545   4.875   5.976   8.161 -0.5369  0.1809  0.1647
   82CHL1  H27A 8546   4.858   6.079   8.126 -2.2160 -0.0908  0.1037
   82CHL1  H27B 8547   4.804   5.921   8.096  0.2555  0.3387 -0.8511
   82CHL1  H27C 8548   4.840   5.962   8.266 -0.5439 -4.4740 -0.2208
   83CHL1    C3 8549   1.233   1.990   6.671  0.2466 -0.5868  0.0734
   83CHL1    H3 8550   1.158   1.909   6.658  1.4042 -1.4534 -1.5621
   83CHL1    O3 8551   1.265   2.036   6.542  0.8431 -0.2085 -0.3711
   83CHL1   H3' 8552   1.302   1.954   6.508 -0.7232 -0.5327 -1.3843
   83CHL1    C4 8553   1.162   2.107   6.748  0.2116 -0.1638  0.1667
   83CHL1   H4A 8554   1.216   2.203   6.727 -1.8197  0.6077 -1.9465
   83CHL1   H4B 8555   1.065   2.129   6.700  1.0732 -0.0712 -1.6033
   83CHL1    C5 8556   1.131   2.075   6.890 -0.0102  0.6208 -0.5627
   83CHL1    C6 8557   1.005   2.081   6.948 -0.9740  0.0063  0.6838
   83CHL1    H6 8558   0.928   2.124   6.882 -0.9680 -0.0086  0.6668
   83CHL1    C7 8559   0.976   2.066   7.088 -0.3647  0.5028 -0.6944
   83CHL1   H7A 8560   0.925   2.152   7.134  1.4389  0.9652  0.5431
   83CHL1   H7B 8561   0.907   1.979   7.096 -0.8855  0.9966  0.3994
   83CHL1    C8 8562   1.099   2.053   7.185 -0.6362  0.5473  0.1588
   83CHL1    H8 8563   1.146   2.149   7.213  2.1820 -1.2195  1.8821
   83CHL1   C14 8564   1.065   1.984   7.307  0.0799  0.2963 -0.3496
   83CHL1   H14 8565   1.041   1.878   7.285  0.1766  0.4422 -1.1622
   83CHL1   C15 8566   0.944   2.029   7.379  0.1443  0.6839 -0.1835
   83CHL1  H15A 8567   0.941   2.139   7.367 -2.6580  0.5815 -1.1166
   83CHL1  H15B 8568   0.848   1.990   7.340  0.5192  0.4685 -0.9004
   83CHL1   C16 8569   0.966   2.000   7.533 -0.4541  0.0289 -0.1346
   83CHL1  H16A 8570   0.978   2.092   7.594  2.7816 -0.1813 -0.2614
   83CHL1  H16B 8571   0.879   1.943   7.572  0.4349 -1.8383 -0.7248
   83CHL1   C17 8572   1.105   1.912   7.528  0.5039 -0.1015 -0.9703
   83CHL1   H17 8573   1.070   1.811   7.498  1.7647 -0.8222 -0.1085
   83CHL1   C13 8574   1.181   1.966   7.408  0.0322 -0.8783 -0.4479
   83CHL1   C18 8575   1.233   2.103   7.458  0.4668  0.0420  0.6811
   83CHL1  H18A 8576   1.152   2.164   7.503  0.4856 -0.6192  1.6477
   83CHL1  H18B 8577   1.324   2.095   7.523  1.2376  0.9920 -0.2367
   83CHL1  H18C 8578   1.277   2.156   7.371 -1.3719  1.4612  0.5775
   83CHL1   C12 8579   1.286   1.869   7.334 -0.5256  0.0667  0.3313
   83CHL1  H12A 8580   1.378   1.855   7.395  0.4048 -0.6778 -1.1854
   83CHL1  H12B 8581   1.235   1.770   7.321 -0.9153 -0.0715  2.4841
   83CHL1   C11 8582   1.327   1.925   7.203 -0.1411 -0.2409 -0.1097
   83CHL1  H11A 8583   1.382   2.018   7.227 -2.3883  0.2734  3.7959
   83CHL1  H11B 8584   1.399   1.860   7.149 -0.6815  0.0472 -1.2126
   83CHL1    C9 8585   1.212   1.969   7.113  0.4573  0.8079  0.0176
   83CHL1    H9 8586   1.167   1.870   7.087 -0.3760  0.8153  1.3456
   83CHL1   C10 8587   1.253   2.029   6.975  0.1158 -0.1923  0.1566
   83CHL1   C19 8588   1.360   2.148   6.995  0.5432  0.5594 -0.5894
   83CHL1  H19A 8589   1.317   2.228   7.058 -2.0033 -0.0026 -1.4518
   83CHL1  H19B 8590   1.453   2.110   7.042 -0.0905  0.6166  0.7371
   83CHL1  H19C 8591   1.376   2.199   6.898 -1.4749 -0.4583 -1.5323
   83CHL1    C1 8592   1.325   1.920   6.891 -0.3174 -0.4108 -0.4735
   83CHL1   H1A 8593   1.421   1.897   6.941 -0.3073 -3.2723 -1.5957
   83CHL1   H1B 8594   1.257   1.832   6.899 -0.8072  0.0849  1.0003
   83CHL1    C2 8595   1.359   1.948   6.742  0.4516  0.1857  0.2293
   83CHL1   H2A 8596   1.398   1.854   6.696  1.4262  0.5351  0.3143
   83CHL1   H2B 8597   1.433   2.031   6.735  1.1104 -0.4725 -1.1661
   83CHL1   C20 8598   1.173   1.892   7.668  0.4283 -0.4432 -0.3892
   83CHL1   H20 8599   1.219   1.990   7.693 -2.6460  2.2170 -3.9578
   83CHL1   C21 8600   1.275   1.785   7.659 -0.2050 -0.6575 -0.6419
   83CHL1  H21A 8601   1.233   1.689   7.623 -0.3964 -1.4562  1.5658
   83CHL1  H21B 8602   1.329   1.766   7.754 -0.5741  0.7811 -0.1177
   83CHL1  H21C 8603   1.355   1.814   7.587  1.7068  0.1890  1.6932
   83CHL1   C22 8604   1.080   1.867   7.788  0.2478 -0.4554 -1.0956
   83CHL1  H22A 8605   0.990   1.932   7.784  1.8254  1.9087 -0.7205
   83CHL1  H22B 8606   1.063   1.758   7.788 -0.7742 -0.3000 -1.2328
   83CHL1   C23 8607   1.151   1.905   7.924 -0.1941 -0.2119  0.7155
   83CHL1  H23A 8608   1.253   1.864   7.941  0.6907  1.8118  0.4674
   83CHL1  H23B 8609   1.163   2.015   7.921  1.2881 -0.3505  0.7032
   83CHL1   C24 8610   1.060   1.869   8.038 -0.7468 -0.5266 -0.1388
   83CHL1  H24A 8611   0.965   1.928   8.035 -1.0981 -0.9215  2.0157
   83CHL1  H24B 8612   1.022   1.766   8.020 -2.6429  0.0444  0.3403
   83CHL1   C25 8613   1.125   1.885   8.178  0.4096  0.2161 -0.0959
   83CHL1   H25 8614   1.054   1.851   8.257  0.6386 -2.4998 -0.9751
   83CHL1   C26 8615   1.243   1.788   8.190 -0.9883  0.2466  0.7484
   83CHL1  H26A 8616   1.278   1.786   8.296 -0.0170  0.1944  0.4283
   83CHL1  H26B 8617   1.214   1.684   8.161  0.2187  0.4944 -1.4718
   83CHL1  H26C 8618   1.338   1.813   8.139 -0.8153  0.6521  1.2599
   83CHL1   C27 8619   1.161   2.034   8.209 -0.1345 -0.0313  0.4384
   83CHL1  H27A 8620   1.210   2.038   8.309 -0.8705 -0.5460  0.8277
   83CHL1  H27B 8621   1.240   2.067   8.138  2.0053 -0.5943  2.4188
   83CHL1  H27C 8622   1.066   2.090   8.203 -0.5865 -0.8067  0.1828
   84CHL1    C3 8623   2.636   5.107   7.057  0.3643  0.4129 -0.0327
   84CHL1    H3 8624   2.707   5.029   7.091  1.2012  0.6600 -1.1473
   84CHL1    O3 8625   2.616   5.106   6.918 -0.4500 -0.4486  1.0406
   84CHL1   H3' 8626   2.520   5.102   6.913 -0.4442  0.5434 -0.3558
   84CHL1    C4 8627   2.505   5.069   7.129 -0.1394  0.1485  0.3426
   84CHL1   H4A 8628   2.430   5.145   7.099 -1.9167 -1.5606  0.2369
   84CHL1   H4B 8629   2.458   4.979   7.084  0.1373 -1.0042  2.2505
   84CHL1    C5 8630   2.504   5.085   7.278 -0.4341  0.3918 -0.0782
   84CHL1    C6 8631   2.450   4.992   7.355 -0.8292 -0.8206 -0.7044
   84CHL1    H6 8632   2.398   4.906   7.310  0.3743 -2.8078  1.4697
   84CHL1    C7 8633   2.458   5.007   7.506 -0.5211  0.4164  0.2715
   84CHL1   H7A 8634   2.361   4.983   7.554 -0.6212  0.7215  0.2263
   84CHL1   H7B 8635   2.537   4.935   7.536  2.1317  2.8257 -0.4348
   84CHL1    C8 8636   2.519   5.138   7.564  0.2092 -0.2297 -0.4798
   84CHL1    H8 8637   2.436   5.210   7.583 -1.0651 -2.4943  3.7357
   84CHL1   C14 8638   2.581   5.113   7.710  0.0156  0.2071 -0.0531
   84CHL1   H14 8639   2.670   5.048   7.694 -0.4591 -0.9728  1.8724
   84CHL1   C15 8640   2.487   5.038   7.811  0.1325 -0.3451  0.2975
   84CHL1  H15A 8641   2.387   5.086   7.805  0.6614  0.5925 -2.5041
   84CHL1  H15B 8642   2.488   4.930   7.785  1.4676 -0.1765 -0.4148
   84CHL1   C16 8643   2.560   5.067   7.944  0.1426 -0.5603  0.3661
   84CHL1  H16A 8644   2.485   5.107   8.015 -0.5988  0.1442 -0.7938
   84CHL1  H16B 8645   2.616   4.981   7.988  1.8631 -1.6993 -3.6017
   84CHL1   C17 8646   2.668   5.180   7.921 -0.3939 -0.1426  0.0953
   84CHL1   H17 8647   2.762   5.121   7.920  1.5373  2.5501  3.1582
   84CHL1   C13 8648   2.637   5.238   7.778 -0.3241  0.1489 -0.1025
   84CHL1   C18 8649   2.513   5.341   7.801  0.0177  0.4080 -0.1864
   84CHL1  H18A 8650   2.450   5.283   7.873  1.3095  0.1759  0.8011
   84CHL1  H18B 8651   2.540   5.438   7.848  1.0956  0.5282 -1.0102
   84CHL1  H18C 8652   2.452   5.361   7.711 -2.2198 -2.0797  0.6650
   84CHL1   C12 8653   2.740   5.303   7.688  0.0788 -0.4090 -0.4531
   84CHL1  H12A 8654   2.766   5.409   7.707 -1.6356 -0.1882  0.8702
   84CHL1  H12B 8655   2.831   5.240   7.692 -2.2126 -3.9728  4.3090
   84CHL1   C11 8656   2.691   5.318   7.539  0.7323  0.1263 -0.5320
   84CHL1  H11A 8657   2.614   5.396   7.524 -1.9388 -2.4990 -1.4266
   84CHL1  H11B 8658   2.784   5.340   7.481  1.4997 -3.1063 -0.7128
   84CHL1    C9 8659   2.625   5.196   7.476 -0.7244 -0.6662  0.3348
   84CHL1    H9 8660   2.704   5.119   7.484  1.0660  1.1504  1.1941
   84CHL1   C10 8661   2.579   5.213   7.327  0.6267 -0.6792 -0.6053
   84CHL1   C19 8662   2.470   5.318   7.316  0.0728  0.2486  0.1339
   84CHL1  H19A 8663   2.515   5.420   7.313  1.4847 -0.3668 -1.7645
   84CHL1  H19B 8664   2.415   5.308   7.220  2.1048 -2.0580 -0.8954
   84CHL1  H19C 8665   2.398   5.314   7.400  0.3990 -1.4663  0.3552
   84CHL1    C1 8666   2.707   5.250   7.248 -0.2711 -0.2635 -0.5695
   84CHL1   H1A 8667   2.733   5.354   7.278  1.3432 -0.2207 -1.9362
   84CHL1   H1B 8668   2.794   5.189   7.278 -0.4891 -1.0893 -1.5723
   84CHL1    C2 8669   2.682   5.242   7.100  0.2823 -0.0972 -0.4078
   84CHL1   H2A 8670   2.775   5.274   7.049 -1.1620  1.0193 -2.4841
   84CHL1   H2B 8671   2.612   5.319   7.062 -0.1222 -1.3190 -2.2829
   84CHL1   C20 8672   2.688   5.278   8.040  0.4900  0.0615  0.4402
   84CHL1   H20 8673   2.601   5.346   8.053 -1.3179 -1.6719 -1.7702
   84CHL1   C21 8674   2.816   5.366   8.010  0.1547  1.0814 -0.1166
   84CHL1  H21A 8675   2.849   5.433   8.092 -0.4397  1.6448 -0.3247
   84CHL1  H21B 8676   2.789   5.433   7.926 -0.6231 -0.4410 -1.1353
   84CHL1  H21C 8677   2.888   5.287   7.980 -2.5037 -1.8903  0.7425
   84CHL1   C22 8678   2.723   5.209   8.177 -0.0095 -0.0010  0.6368
   84CHL1  H22A 8679   2.651   5.135   8.218  1.6621 -0.5304  2.8101
   84CHL1  H22B 8680   2.823   5.161   8.171  0.6184  0.7573  3.4251
   84CHL1   C23 8681   2.737   5.311   8.294  0.5928 -0.0477  0.1202
   84CHL1  H23A 8682   2.826   5.375   8.275  0.2337 -0.3469 -3.2084
   84CHL1  H23B 8683   2.642   5.368   8.291 -0.5312 -1.8599  0.1464
   84CHL1   C24 8684   2.763   5.243   8.429  1.0874  0.1758  0.5146
   84CHL1  H24A 8685   2.691   5.162   8.452 -0.3977  1.2880 -0.0300
   84CHL1  H24B 8686   2.861   5.191   8.420 -0.0623 -2.0461  0.1657
   84CHL1   C25 8687   2.785   5.347   8.537  0.0057  0.1038 -0.3689
   84CHL1   H25 8688   2.844   5.428   8.488  1.8907 -0.1343  1.3948
   84CHL1   C26 8689   2.649   5.401   8.589 -0.0239 -0.1673 -0.0227
   84CHL1  H26A 8690   2.671   5.490   8.653 -3.6697  0.0058  1.2025
   84CHL1  H26B 8691   2.588   5.442   8.506  1.3286  1.2547 -0.3800
   84CHL1  H26C 8692   2.596   5.323   8.647  0.3378  0.1678  0.7816
   84CHL1   C27 8693   2.855   5.283   8.661 -0.1371 -0.4442 -0.8192
   84CHL1  H27A 8694   2.889   5.360   8.733  0.9406 -0.0840 -1.6751
   84CHL1  H27B 8695   2.782   5.220   8.715  2.0221 -1.1799  1.4146
   84CHL1  H27C 8696   2.942   5.226   8.621  0.6688 -0.7716  1.2969
   85CHL1    C3 8697   5.543   1.905   6.746  0.3005 -0.3192 -0.5560
   85CHL1    H3 8698   5.440   1.880   6.712 -0.1210 -0.2893  0.6433
   85CHL1    O3 8699   5.629   1.911   6.637  0.3379  0.3163 -0.0794
   85CHL1   H3' 8700   5.615   1.826   6.595 -1.9004 -0.3384  1.8038
   85CHL1    C4 8701   5.538   2.033   6.838 -0.2303 -0.0703  0.8996
   85CHL1   H4A 8702   5.644   2.067   6.837  0.3973 -1.9279  0.4440
   85CHL1   H4B 8703   5.482   2.103   6.772  1.5673 -1.3980 -2.2793
   85CHL1    C5 8704   5.484   2.025   6.978  0.0006 -0.6095 -0.1838
   85CHL1    C6 8705   5.394   2.112   7.025  0.3631  0.1788 -0.2074
   85CHL1    H6 8706   5.348   2.188   6.960 -1.4249 -1.4096 -0.9015
   85CHL1    C7 8707   5.335   2.104   7.165 -0.0510  0.2107 -0.3674
   85CHL1   H7A 8708   5.311   2.203   7.208 -1.9311  0.6081 -2.1441
   85CHL1   H7B 8709   5.236   2.057   7.146  1.0459 -1.1270 -3.4112
   85CHL1    C8 8710   5.426   2.023   7.258  0.3142 -0.2419  1.1333
   85CHL1    H8 8711   5.513   2.088   7.281 -1.7688  2.6167  1.5751
   85CHL1   C14 8712   5.358   1.993   7.393 -0.5084  0.2057 -0.0727
   85CHL1   H14 8713   5.282   1.917   7.362  0.9608 -2.2206  1.9051
   85CHL1   C15 8714   5.286   2.104   7.466  0.0044  0.2527 -0.1052
   85CHL1  H15A 8715   5.349   2.195   7.460 -1.9356  1.8028  1.7007
   85CHL1  H15B 8716   5.179   2.107   7.438 -0.1832 -1.5802  0.2932
   85CHL1   C16 8717   5.288   2.062   7.612  0.4114 -0.2486 -0.0909
   85CHL1  H16A 8718   5.347   2.131   7.676 -0.4685  0.1984  0.2567
   85CHL1  H16B 8719   5.189   2.076   7.661  0.8596  0.2026  0.6840
   85CHL1   C17 8720   5.357   1.917   7.618  0.0482 -0.9413 -0.2926
   85CHL1   H17 8721   5.270   1.848   7.606 -1.0003  0.6024 -2.2448
   85CHL1   C13 8722   5.451   1.930   7.495 -0.7308  0.8717 -0.3817
   85CHL1   C18 8723   5.583   2.015   7.528 -0.0248  0.3051 -0.5325
   85CHL1  H18A 8724   5.648   1.955   7.595  0.7165 -1.2289 -2.5405
   85CHL1  H18B 8725   5.643   2.021   7.435  1.8906 -2.0690  0.4438
   85CHL1  H18C 8726   5.553   2.106   7.585 -1.5508 -0.1394 -0.5751
   85CHL1   C12 8727   5.492   1.795   7.438  0.3431  0.2734  0.1533
   85CHL1  H12A 8728   5.568   1.744   7.501 -0.2347 -0.7099  0.0826
   85CHL1  H12B 8729   5.405   1.726   7.438 -1.1117  2.0225 -0.7189
   85CHL1   C11 8730   5.547   1.795   7.288  0.6773 -0.8030 -0.4484
   85CHL1  H11A 8731   5.646   1.845   7.297  0.3498  0.2478 -2.2661
   85CHL1  H11B 8732   5.566   1.690   7.260  0.2170 -1.0391  0.0898
   85CHL1    C9 8733   5.469   1.887   7.187  0.4424  0.0641 -0.0024
   85CHL1    H9 8734   5.370   1.841   7.166  0.4946  0.0619 -0.2414
   85CHL1   C10 8735   5.542   1.909   7.053 -0.3511 -0.1397 -0.2171
   85CHL1   C19 8736   5.695   1.929   7.076 -0.2121 -0.4066 -0.4002
   85CHL1  H19A 8737   5.746   1.957   6.981  0.5763  0.4358  0.2601
   85CHL1  H19B 8738   5.707   2.007   7.154 -2.0776 -0.2764 -0.1935
   85CHL1  H19C 8739   5.737   1.832   7.109 -3.1002 -2.5811 -2.5664
   85CHL1    C1 8740   5.516   1.780   6.973  0.0922 -0.2333 -0.2968
   85CHL1   H1A 8741   5.549   1.694   7.036 -0.4808  0.4005  0.9047
   85CHL1   H1B 8742   5.408   1.766   6.953  0.0311 -0.9029  0.4351
   85CHL1    C2 8743   5.586   1.782   6.836 -0.3326  0.1892 -0.1032
   85CHL1   H2A 8744   5.575   1.692   6.772 -0.7264  0.1450  0.0243
   85CHL1   H2B 8745   5.695   1.781   6.856 -0.6330 -1.3870  1.6671
   85CHL1   C20 8746   5.417   1.891   7.754 -0.7903 -0.3210  0.6759
   85CHL1   H20 8747   5.500   1.963   7.770 -0.7741  0.1742 -1.3824
   85CHL1   C21 8748   5.477   1.745   7.752  0.4602 -0.9021 -0.6983
   85CHL1  H21A 8749   5.399   1.685   7.701 -1.7875  0.1320  1.2604
   85CHL1  H21B 8750   5.483   1.702   7.855 -0.3349  0.4618 -0.0396
   85CHL1  H21C 8751   5.579   1.742   7.710  0.7052  1.9918 -0.5116
   85CHL1   C22 8752   5.314   1.918   7.868  0.0027 -0.1556 -0.0948
   85CHL1  H22A 8753   5.280   2.024   7.870 -0.1628 -0.2131  1.1428
   85CHL1  H22B 8754   5.235   1.850   7.831  2.2849 -4.2661  1.9415
   85CHL1   C23 8755   5.352   1.898   8.008 -0.5031  0.1245 -0.0528
   85CHL1  H23A 8756   5.399   1.798   8.017  0.1559  0.5738  2.0523
   85CHL1  H23B 8757   5.427   1.979   8.027 -1.4875  1.7309 -2.5152
   85CHL1   C24 8758   5.239   1.900   8.108  0.3354  0.8721 -0.2649
   85CHL1  H24A 8759   5.199   2.004   8.111 -0.3750  0.5950  0.1152
   85CHL1  H24B 8760   5.151   1.838   8.082  0.4648  0.9455 -0.9002
   85CHL1   C25 8761   5.283   1.844   8.253 -0.0433 -1.0786  0.6175
   85CHL1   H25 8762   5.203   1.876   8.323  0.2188 -1.9976  1.3482
   85CHL1   C26 8763   5.289   1.693   8.250  0.8773 -0.5892  0.2853
   85CHL1  H26A 8764   5.185   1.666   8.222  0.3482  1.7691 -0.1778
   85CHL1  H26B 8765   5.363   1.652   8.178  1.0261  2.5309 -1.5225
   85CHL1  H26C 8766   5.307   1.665   8.356 -0.2372  0.9113  0.8994
   85CHL1   C27 8767   5.412   1.904   8.306 -0.2304 -0.6212 -0.7237
   85CHL1  H27A 8768   5.388   2.001   8.354 -1.3777 -1.8482  1.3520
   85CHL1  H27B 8769   5.455   1.847   8.391 -0.7684  0.1037  0.0563
   85CHL1  H27C 8770   5.490   1.917   8.228  1.6980 -1.9876  0.8568
   86CHL1    C3 8771   5.735   5.763   6.879  0.0793  0.0370  0.2153
   86CHL1    H3 8772   5.718   5.871   6.864  0.7426  0.2966  1.2113
   86CHL1    O3 8773   5.742   5.689   6.758  0.4532 -0.1305  0.8487
   86CHL1   H3' 8774   5.816   5.717   6.704  1.0927 -0.1386  1.6978
   86CHL1    C4 8775   5.869   5.752   6.950 -0.2509 -0.3846 -0.1381
   86CHL1   H4A 8776   5.900   5.647   6.962 -0.5224 -0.4375  0.1389
   86CHL1   H4B 8777   5.945   5.803   6.886  0.9333  0.8668  2.1153
   86CHL1    C5 8778   5.879   5.816   7.086 -0.1025 -0.3165 -0.4775
   86CHL1    C6 8779   5.973   5.900   7.125 -0.4200 -0.2842  0.0043
   86CHL1    H6 8780   6.056   5.930   7.059 -1.7776  3.4937 -0.2572
   86CHL1    C7 8781   5.980   5.971   7.253  0.3008 -0.1593 -0.3691
   86CHL1   H7A 8782   6.086   5.979   7.284  1.7631 -2.5206 -4.0504
   86CHL1   H7B 8783   5.939   6.073   7.237 -1.5151 -1.1036 -2.2658
   86CHL1    C8 8784   5.894   5.901   7.361  0.0456  0.2258 -0.3473
   86CHL1    H8 8785   5.931   5.799   7.387 -2.0490 -0.5419 -0.1466
   86CHL1   C14 8786   5.892   5.993   7.482  0.1056  0.3804 -0.6440
   86CHL1   H14 8787   5.865   6.094   7.444 -1.0083  0.3608  0.0445
   86CHL1   C15 8788   6.027   6.014   7.552 -0.7300 -0.5053 -0.6012
   86CHL1  H15A 8789   6.091   5.923   7.553  0.3696  0.2534 -0.3416
   86CHL1  H15B 8790   6.079   6.101   7.505  0.0140 -0.7658 -0.2796
   86CHL1   C16 8791   5.992   6.046   7.694  0.8869  0.3935  0.2733
   86CHL1  H16A 8792   6.033   5.961   7.754  0.0408  0.1007  0.4655
   86CHL1  H16B 8793   6.034   6.140   7.736 -0.9962  1.2080  0.4378
   86CHL1   C17 8794   5.836   6.066   7.697  0.0064  0.1352 -0.1696
   86CHL1   H17 8795   5.817   6.164   7.650  1.5241  0.5087 -0.0780
   86CHL1   C13 8796   5.789   5.956   7.593  0.0341 -0.1966  0.7112
   86CHL1   C18 8797   5.821   5.812   7.636  0.1317 -0.0137  0.3695
   86CHL1  H18A 8798   5.914   5.800   7.696 -0.0599  0.0493  0.6781
   86CHL1  H18B 8799   5.747   5.764   7.702  1.0327 -0.3512  1.1613
   86CHL1  H18C 8800   5.828   5.735   7.556  1.0800 -0.9306  1.2970
   86CHL1   C12 8801   5.649   5.959   7.528 -0.4833  0.5562  0.4456
   86CHL1  H12A 8802   5.586   5.923   7.612  0.6345 -0.3952  0.9008
   86CHL1  H12B 8803   5.614   6.058   7.491 -2.0484  0.1227  0.7080
   86CHL1   C11 8804   5.639   5.862   7.400  0.1540  0.2581  0.8409
   86CHL1  H11A 8805   5.640   5.762   7.447  1.9092  0.0698  0.4835
   86CHL1  H11B 8806   5.540   5.876   7.353 -1.2542 -0.4718  3.4025
   86CHL1    C9 8807   5.751   5.881   7.295  0.9079  0.1758 -0.8271
   86CHL1    H9 8808   5.725   5.976   7.243  2.0983  0.2257 -1.3765
   86CHL1   C10 8809   5.761   5.778   7.183  0.1620  0.5083 -0.2650
   86CHL1   C19 8810   5.771   5.635   7.240 -0.1277  0.1751 -0.0396
   86CHL1  H19A 8811   5.862   5.626   7.304 -0.4056  2.6127  0.7920
   86CHL1  H19B 8812   5.685   5.610   7.306  0.9073 -1.9519  0.5818
   86CHL1  H19C 8813   5.782   5.553   7.166 -1.8971 -2.4175  2.3820
   86CHL1    C1 8814   5.626   5.784   7.098 -0.3350 -0.4083  0.9001
   86CHL1   H1A 8815   5.547   5.738   7.162 -0.7398 -1.2160 -0.1583
   86CHL1   H1B 8816   5.596   5.890   7.083  1.0993  0.2427  2.3002
   86CHL1    C2 8817   5.623   5.709   6.964  0.5050 -0.4704 -0.1586
   86CHL1   H2A 8818   5.531   5.706   6.903  0.9894  0.1224 -0.9273
   86CHL1   H2B 8819   5.641   5.601   6.988 -0.3804 -1.4520 -3.4509
   86CHL1   C20 8820   5.769   6.064   7.830 -0.0334  0.4599  0.2711
   86CHL1   H20 8821   5.663   6.030   7.827  0.0942 -0.4468  2.9213
   86CHL1   C21 8822   5.765   6.210   7.875 -0.7336  0.8701 -0.1146
   86CHL1  H21A 8823   5.714   6.275   7.800  0.2229  0.5347 -1.0780
   86CHL1  H21B 8824   5.856   6.260   7.915 -0.2204  1.4799 -1.9411
   86CHL1  H21C 8825   5.696   6.206   7.962 -2.8188 -0.9087 -1.7350
   86CHL1   C22 8826   5.841   5.969   7.930  0.3698 -0.3987 -0.3237
   86CHL1  H22A 8827   5.847   5.866   7.888  1.0487 -0.4970  0.0102
   86CHL1  H22B 8828   5.942   6.001   7.963  0.2465 -0.3978  0.0592
   86CHL1   C23 8829   5.761   5.954   8.058 -0.3384 -0.0664 -0.2668
   86CHL1  H23A 8830   5.751   6.056   8.101 -1.9989 -0.5294  0.4925
   86CHL1  H23B 8831   5.659   5.910   8.054  0.2571 -1.4487 -1.5343
   86CHL1   C24 8832   5.852   5.864   8.159  0.0266  0.0982  0.2224
   86CHL1  H24A 8833   5.872   5.759   8.130  0.7272 -1.3915  5.1661
   86CHL1  H24B 8834   5.953   5.909   8.167  1.2596 -2.6120  1.0361
   86CHL1   C25 8835   5.813   5.866   8.304 -0.5251  0.2891  0.2763
   86CHL1   H25 8836   5.812   5.971   8.340 -0.1006 -0.2685  1.9657
   86CHL1   C26 8837   5.672   5.809   8.328  0.1941  0.0501 -1.3907
   86CHL1  H26A 8838   5.656   5.805   8.438  0.6159  2.1506 -1.2069
   86CHL1  H26B 8839   5.591   5.875   8.291 -1.3558 -0.1886  1.3028
   86CHL1  H26C 8840   5.654   5.708   8.287  1.9860 -0.7724 -0.2909
   86CHL1   C27 8841   5.915   5.787   8.387 -0.2634  0.4090 -0.0769
   86CHL1  H27A 8842   5.875   5.807   8.488 -0.5961  0.5743 -0.2389
   86CHL1  H27B 8843   5.915   5.678   8.364  1.0622  0.9004 -2.8311
   86CHL1  H27C 8844   6.021   5.821   8.390 -0.0776 -0.0452 -0.9732
   87CHL1    C3 8845   1.385   5.417   6.888  0.7295  0.4613  0.6954
   87CHL1    H3 8846   1.365   5.525   6.903  1.1184  0.8093 -1.1092
   87CHL1    O3 8847   1.360   5.390   6.752  0.2849 -0.9050 -0.3124
   87CHL1   H3' 8848   1.276   5.433   6.734  0.8929 -0.8265 -3.5706
   87CHL1    C4 8849   1.539   5.402   6.913 -0.1512  0.3546  0.4806
   87CHL1   H4A 8850   1.565   5.298   6.886 -0.0867  0.6352 -0.5684
   87CHL1   H4B 8851   1.597   5.459   6.837 -0.5611  0.0906 -0.0374
   87CHL1    C5 8852   1.575   5.431   7.059  0.2212  0.0196 -0.1974
   87CHL1    C6 8853   1.673   5.511   7.099 -0.0555  0.2565  0.0931
   87CHL1    H6 8854   1.740   5.555   7.024  0.1950  0.0248  0.1797
   87CHL1    C7 8855   1.708   5.539   7.242  0.5326  0.4592 -0.1644
   87CHL1   H7A 8856   1.815   5.551   7.270  0.8629 -0.1208 -1.1376
   87CHL1   H7B 8857   1.674   5.644   7.255  3.7348  1.8308 -1.8911
   87CHL1    C8 8858   1.641   5.449   7.345 -0.0073 -0.1940  0.2056
   87CHL1    H8 8859   1.702   5.356   7.341  3.1183  1.6576  1.6173
   87CHL1   C14 8860   1.660   5.503   7.488 -0.0070 -0.5839  0.3765
   87CHL1   H14 8861   1.614   5.604   7.497 -2.1692 -1.5037  0.4530
   87CHL1   C15 8862   1.803   5.533   7.530 -0.3062 -0.1660 -0.5515
   87CHL1  H15A 8863   1.879   5.453   7.521  1.0823  1.0563 -0.2012
   87CHL1  H15B 8864   1.853   5.626   7.495 -0.4700  0.8270  1.6560
   87CHL1   C16 8865   1.783   5.570   7.676 -0.1604  0.8362  0.0686
   87CHL1  H16A 8866   1.859   5.505   7.726 -1.2417  0.0596  0.7367
   87CHL1  H16B 8867   1.798   5.679   7.691 -2.0945  1.3099 -1.1881
   87CHL1   C17 8868   1.636   5.527   7.717  0.1348  0.0618 -0.1414
   87CHL1   H17 8869   1.575   5.620   7.719  1.5496  1.0179  0.6004
   87CHL1   C13 8870   1.592   5.428   7.598 -0.1876 -1.1138 -0.5603
   87CHL1   C18 8871   1.648   5.288   7.617 -0.1945  0.3878 -0.2008
   87CHL1  H18A 8872   1.592   5.231   7.694 -0.0898  1.9039  1.0400
   87CHL1  H18B 8873   1.657   5.245   7.514  1.9380  0.8080 -0.2570
   87CHL1  H18C 8874   1.754   5.298   7.651 -0.5382  0.8043  0.7700
   87CHL1   C12 8875   1.447   5.432   7.566  0.1413  0.4740  0.2415
   87CHL1  H12A 8876   1.393   5.367   7.638  0.8409  1.7523  1.9735
   87CHL1  H12B 8877   1.418   5.539   7.560  0.6125  0.5929  0.0371
   87CHL1   C11 8878   1.417   5.366   7.428  0.0906  0.1258  0.9641
   87CHL1  H11A 8879   1.445   5.259   7.440  0.9479  0.2156 -0.0942
   87CHL1  H11B 8880   1.308   5.368   7.411  0.1191  0.7692  0.8534
   87CHL1    C9 8881   1.496   5.432   7.310 -0.4204  0.0073 -0.0505
   87CHL1    H9 8882   1.444   5.530   7.305  0.4971  0.4679 -0.7546
   87CHL1   C10 8883   1.478   5.368   7.168 -0.6453 -0.5514 -0.1429
   87CHL1   C19 8884   1.502   5.212   7.173  0.0755 -0.5170  0.0412
   87CHL1  H19A 8885   1.424   5.172   7.242 -1.2953 -0.1710 -1.2721
   87CHL1  H19B 8886   1.488   5.159   7.077  1.4560 -1.9073  0.5502
   87CHL1  H19C 8887   1.601   5.187   7.217  1.1416 -0.7285 -2.3622
   87CHL1    C1 8888   1.326   5.389   7.129 -0.3456  0.0511 -0.2855
   87CHL1   H1A 8889   1.264   5.330   7.199  0.8176 -1.0024 -0.0988
   87CHL1   H1B 8890   1.289   5.494   7.133 -1.7234 -0.4713  1.6311
   87CHL1    C2 8891   1.294   5.337   6.983  0.1573 -0.5092  0.0484
   87CHL1   H2A 8892   1.183   5.341   6.975  0.0082 -1.5999  1.1971
   87CHL1   H2B 8893   1.319   5.229   6.976  0.2318 -0.4133 -1.3516
   87CHL1   C20 8894   1.618   5.483   7.860  0.1514 -0.0925 -1.1357
   87CHL1   H20 8895   1.652   5.378   7.874 -1.5676 -0.6806 -1.2106
   87CHL1   C21 8896   1.467   5.462   7.888 -0.5591  0.1585 -0.3831
   87CHL1  H21A 8897   1.393   5.536   7.850 -0.1330  0.2448 -1.0608
   87CHL1  H21B 8898   1.456   5.443   7.997 -1.3915  3.6193  0.2770
   87CHL1  H21C 8899   1.444   5.372   7.827 -1.5865 -0.6667  1.1249
   87CHL1   C22 8900   1.686   5.576   7.980 -0.2432 -0.0440  0.5271
   87CHL1  H22A 8901   1.789   5.578   7.940 -0.6255 -2.1340 -0.7556
   87CHL1  H22B 8902   1.652   5.681   7.988  2.0174  0.6110  2.4713
   87CHL1   C23 8903   1.693   5.509   8.125 -0.1615 -0.1956  0.6774
   87CHL1  H23A 8904   1.590   5.478   8.153 -0.1178 -1.8912 -0.8651
   87CHL1  H23B 8905   1.755   5.418   8.110 -0.8966 -0.5956 -0.0129
   87CHL1   C24 8906   1.763   5.592   8.230  0.4140 -0.0233 -0.2692
   87CHL1  H24A 8907   1.869   5.608   8.199  0.0886  0.3983 -1.2186
   87CHL1  H24B 8908   1.714   5.692   8.229  1.3750  0.4606 -1.1533
   87CHL1   C25 8909   1.750   5.552   8.376  0.2839  0.0487  0.3777
   87CHL1   H25 8910   1.656   5.494   8.386 -0.0131  0.4781  0.1286
   87CHL1   C26 8911   1.870   5.466   8.423  0.2186  0.2100  0.2213
   87CHL1  H26A 8912   1.966   5.518   8.401 -0.5602  2.8036  2.4037
   87CHL1  H26B 8913   1.872   5.467   8.534 -0.5897  3.4005  0.3007
   87CHL1  H26C 8914   1.869   5.363   8.382 -0.0266  1.1398 -2.2858
   87CHL1   C27 8915   1.743   5.679   8.467 -0.3668 -0.3030 -0.6849
   87CHL1  H27A 8916   1.664   5.741   8.420 -0.2610 -0.3897 -0.9813
   87CHL1  H27B 8917   1.723   5.662   8.575 -0.3508  2.1391 -0.2492
   87CHL1  H27C 8918   1.833   5.745   8.464 -0.6114  0.0069 -2.5453
   88CHL1    C3 8919   5.493   3.182   6.783 -0.5090 -0.3292 -0.0812
   88CHL1    H3 8920   5.534   3.285   6.791 -0.2166 -0.3799 -0.8019
   88CHL1    O3 8921   5.526   3.146   6.643 -0.0572 -0.8880 -0.3916
   88CHL1   H3' 8922   5.620   3.129   6.638  0.2161  0.5869 -0.7009
   88CHL1    C4 8923   5.556   3.076   6.873 -0.6901 -0.2387 -0.3751
   88CHL1   H4A 8924   5.522   2.983   6.824 -0.7629 -0.0259 -0.7295
   88CHL1   H4B 8925   5.666   3.074   6.863 -0.3981  0.3064  2.0752
   88CHL1    C5 8926   5.508   3.077   7.021  0.0099 -0.1447  0.5025
   88CHL1    C6 8927   5.597   3.072   7.124 -0.5626  0.3897  0.1389
   88CHL1    H6 8928   5.703   3.058   7.096 -1.0506 -1.9418 -0.8362
   88CHL1    C7 8929   5.558   3.043   7.272 -0.5986 -0.3831 -0.3279
   88CHL1   H7A 8930   5.612   2.963   7.327 -0.8465  0.7467  1.6503
   88CHL1   H7B 8931   5.574   3.133   7.336  4.7706 -1.0413 -0.3069
   88CHL1    C8 8932   5.411   2.997   7.289 -0.4564 -1.1443 -0.3561
   88CHL1    H8 8933   5.393   2.895   7.250 -0.8431 -1.6358  1.0305
   88CHL1   C14 8934   5.367   3.012   7.435  0.3734  0.1915  0.1737
   88CHL1   H14 8935   5.384   3.117   7.466  1.8065 -0.3777  1.4717
   88CHL1   C15 8936   5.453   2.924   7.537  0.6813  0.5130 -0.5050
   88CHL1  H15A 8937   5.484   2.833   7.482 -1.6195 -0.7185  0.1495
   88CHL1  H15B 8938   5.545   2.984   7.558  1.7052 -0.8657 -0.8903
   88CHL1   C16 8939   5.360   2.913   7.658  0.1255 -0.7566  0.5560
   88CHL1  H16A 8940   5.347   2.808   7.690  2.2014 -0.6559  1.9122
   88CHL1  H16B 8941   5.409   2.956   7.748 -0.7270  1.6552 -0.0384
   88CHL1   C17 8942   5.230   2.986   7.618  0.5957 -0.2354 -0.1612
   88CHL1   H17 8943   5.238   3.097   7.629  0.0260 -0.3010  1.1615
   88CHL1   C13 8944   5.222   2.978   7.463  0.1428  0.0883  0.2523
   88CHL1   C18 8945   5.189   2.835   7.418 -0.2796  0.0722 -0.5695
   88CHL1  H18A 8946   5.081   2.813   7.433 -0.2626  1.1024  1.4046
   88CHL1  H18B 8947   5.215   2.814   7.312 -0.8694  1.0773 -0.9220
   88CHL1  H18C 8948   5.244   2.764   7.484 -0.2933  1.5247  1.1019
   88CHL1   C12 8949   5.136   3.079   7.376 -0.3310  0.3683  0.1308
   88CHL1  H12A 8950   5.032   3.041   7.380  0.1857 -1.1259  0.0120
   88CHL1  H12B 8951   5.133   3.187   7.404 -1.2047  0.7746 -1.4022
   88CHL1   C11 8952   5.173   3.072   7.231  0.8837  0.4452 -0.4415
   88CHL1  H11A 8953   5.141   2.975   7.187 -1.3494  0.8316  0.2235
   88CHL1  H11B 8954   5.124   3.150   7.168  4.0719  0.8365 -2.7090
   88CHL1    C9 8955   5.326   3.093   7.196 -0.3634 -0.3320  0.0810
   88CHL1    H9 8956   5.352   3.197   7.225  2.4934 -0.3439 -2.0919
   88CHL1   C10 8957   5.359   3.068   7.043 -1.1386 -0.6279 -0.0838
   88CHL1   C19 8958   5.306   2.933   6.997 -0.0029  0.2674  0.4855
   88CHL1  H19A 8959   5.349   2.894   6.902  0.9215  1.0296  0.5656
   88CHL1  H19B 8960   5.328   2.854   7.072  0.8528  0.7064  0.7153
   88CHL1  H19C 8961   5.196   2.942   6.989 -0.1198 -1.5069 -0.3200
   88CHL1    C1 8962   5.300   3.183   6.948 -0.5121 -0.4448 -0.1003
   88CHL1   H1A 8963   5.189   3.176   6.950 -0.6779  1.4895 -0.1705
   88CHL1   H1B 8964   5.330   3.279   6.996  0.2859 -0.1034 -1.2291
   88CHL1    C2 8965   5.348   3.183   6.802 -0.3982  1.0984  0.1548
   88CHL1   H2A 8966   5.300   3.266   6.745  1.3041  1.2765 -1.0969
   88CHL1   H2B 8967   5.308   3.089   6.758 -1.1315 -0.2279  3.3576
   88CHL1   C20 8968   5.110   2.927   7.690 -0.1591 -0.1216 -0.0785
   88CHL1   H20 8969   5.101   2.819   7.667  1.5407 -0.5957  1.2609
   88CHL1   C21 8970   4.980   2.987   7.640  0.4399 -0.6383 -0.7818
   88CHL1  H21A 8971   4.944   2.940   7.546  0.9887 -1.8768 -0.3865
   88CHL1  H21B 8972   4.992   3.097   7.628 -3.0320  0.3199  2.5952
   88CHL1  H21C 8973   4.901   2.969   7.717  0.8486 -0.3149 -0.2851
   88CHL1   C22 8974   5.117   2.934   7.850 -0.9103 -0.3348 -0.4317
   88CHL1  H22A 8975   5.224   2.952   7.871 -0.8464  0.8306 -1.6692
   88CHL1  H22B 8976   5.060   3.023   7.883 -0.2820  0.6930 -2.0186
   88CHL1   C23 8977   5.085   2.806   7.936  0.1061 -0.2695 -0.1608
   88CHL1  H23A 8978   4.975   2.791   7.931 -0.0054  0.1277  0.8366
   88CHL1  H23B 8979   5.147   2.726   7.891 -2.0646 -0.7581 -2.5158
   88CHL1   C24 8980   5.128   2.825   8.084 -0.8073  0.4462 -0.1845
   88CHL1  H24A 8981   5.238   2.839   8.091 -0.5831  0.2785 -2.5971
   88CHL1  H24B 8982   5.081   2.911   8.136 -0.3894  0.4774  0.1452
   88CHL1   C25 8983   5.098   2.694   8.161 -0.5546 -0.2166  0.1407
   88CHL1   H25 8984   5.133   2.609   8.098  0.3890  0.6657 -0.5413
   88CHL1   C26 8985   5.173   2.690   8.289  0.3852 -0.3663 -0.2380
   88CHL1  H26A 8986   5.164   2.595   8.347 -2.6877  2.0758  3.8135
   88CHL1  H26B 8987   5.284   2.697   8.279  0.1909  0.1901 -2.3579
   88CHL1  H26C 8988   5.151   2.772   8.360 -1.9490  0.0944 -1.4124
   88CHL1   C27 8989   4.945   2.669   8.179  0.3198 -0.3252 -0.2882
   88CHL1  H27A 8990   4.911   2.572   8.224 -0.2981 -0.7077 -1.5308
   88CHL1  H27B 8991   4.900   2.741   8.251  0.6675 -0.8889  0.5023
   88CHL1  H27C 8992   4.895   2.659   8.081 -0.3410 -1.8969  0.1677
   89CHL1    C3 8993   3.073   2.189   6.923 -0.7906  0.2219  0.4511
   89CHL1    H3 8994   3.183   2.189   6.916 -0.7877 -1.3662 -0.0321
   89CHL1    O3 8995   3.020   2.204   6.797  0.1979  0.1420  0.1193
   89CHL1   H3' 8996   3.058   2.282   6.756  1.0114  0.3803  1.2784
   89CHL1    C4 8997   3.023   2.061   6.985  0.3065  0.5292 -0.3670
   89CHL1   H4A 8998   2.914   2.057   6.961  0.6298 -0.2353 -1.8020
   89CHL1   H4B 8999   3.062   1.969   6.937  0.4907 -0.5358  1.7196
   89CHL1    C5 9000   3.055   2.047   7.137  0.0329 -0.0992  0.2655
   89CHL1    C6 9001   3.105   1.935   7.187 -0.4358 -1.0678  0.3576
   89CHL1    H6 9002   3.114   1.849   7.120 -1.2101  0.1206 -1.3452
   89CHL1    C7 9003   3.150   1.920   7.328  0.3098 -0.3977 -0.4756
   89CHL1   H7A 9004   3.122   1.819   7.366  0.4379 -0.3847 -0.3458
   89CHL1   H7B 9005   3.260   1.922   7.343  0.3651 -0.4341 -0.8690
   89CHL1    C8 9006   3.089   2.029   7.422 -0.7027 -0.5717 -0.5807
   89CHL1    H8 9007   2.982   2.005   7.443 -1.0214  1.2494  0.0667
   89CHL1   C14 9008   3.158   2.032   7.552 -0.1818 -1.2128  0.5327
   89CHL1   H14 9009   3.259   2.069   7.523 -0.9008 -0.0867 -0.5970
   89CHL1   C15 9010   3.171   1.902   7.623 -0.3512 -0.6498 -0.1780
   89CHL1  H15A 9011   3.082   1.836   7.636  0.0057 -1.1968 -0.4640
   89CHL1  H15B 9012   3.258   1.849   7.578  0.4490  1.3726 -1.1025
   89CHL1   C16 9013   3.225   1.945   7.762 -0.2053 -0.1631 -0.1661
   89CHL1  H16A 9014   3.177   1.894   7.849 -0.5644 -0.6196 -0.6226
   89CHL1  H16B 9015   3.335   1.933   7.763 -0.0620  0.9272 -1.0446
   89CHL1   C17 9016   3.203   2.103   7.769 -0.2989  0.1647 -0.6969
   89CHL1   H17 9017   3.303   2.152   7.764  0.7993 -1.9192 -0.2891
   89CHL1   C13 9018   3.120   2.145   7.651  0.3159  0.3687  0.0480
   89CHL1   C18 9019   2.970   2.140   7.678 -0.1493 -0.1718 -0.3334
   89CHL1  H18A 9020   2.937   2.035   7.697  1.8301 -0.8894 -0.6922
   89CHL1  H18B 9021   2.940   2.206   7.762  1.4975  1.3869 -0.9129
   89CHL1  H18C 9022   2.916   2.181   7.589 -2.3957 -1.2627  0.4327
   89CHL1   C12 9023   3.154   2.280   7.591 -0.1806  0.0887  0.2345
   89CHL1  H12A 9024   3.111   2.365   7.648 -1.2365  1.1154 -1.9393
   89CHL1  H12B 9025   3.264   2.295   7.594  0.0364 -1.5218  1.8110
   89CHL1   C11 9026   3.104   2.297   7.445  0.2361  0.1429  0.7335
   89CHL1  H11A 9027   3.000   2.335   7.455  0.0295 -0.3779  0.5699
   89CHL1  H11B 9028   3.159   2.378   7.392 -1.4773  1.3748  0.7511
   89CHL1    C9 9029   3.114   2.167   7.355 -0.5282 -0.1532 -0.4864
   89CHL1    H9 9030   3.221   2.152   7.330  0.6261  1.4403  2.9940
   89CHL1   C10 9031   3.035   2.174   7.220 -0.0705  0.8761 -0.1699
   89CHL1   C19 9032   2.885   2.174   7.245 -0.3713 -0.4049  0.2127
   89CHL1  H19A 9033   2.821   2.180   7.154  1.1239 -2.9668 -1.1412
   89CHL1  H19B 9034   2.864   2.081   7.301  0.3962 -0.5307  0.3052
   89CHL1  H19C 9035   2.855   2.255   7.315 -1.7967  0.7396 -1.5986
   89CHL1    C1 9036   3.080   2.298   7.141 -1.0558 -0.6978  0.3428
   89CHL1   H1A 9037   3.068   2.391   7.201 -1.4168 -0.5416  0.0356
   89CHL1   H1B 9038   3.191   2.299   7.133 -1.0919 -1.4417 -0.4214
   89CHL1    C2 9039   3.025   2.312   6.997 -0.3052  0.0420 -0.3880
   89CHL1   H2A 9040   3.067   2.406   6.956 -1.5742  0.5954 -0.4385
   89CHL1   H2B 9041   2.915   2.326   6.996 -0.2984  0.1117 -0.1931
   89CHL1   C20 9042   3.159   2.146   7.909 -0.1739 -0.0447  0.0302
   89CHL1   H20 9043   3.067   2.097   7.947 -0.6499 -0.2539 -1.3550
   89CHL1   C21 9044   3.141   2.301   7.919 -0.4017 -0.6430  0.2041
   89CHL1  H21A 9045   3.233   2.349   7.881  0.7469 -0.9846  2.3763
   89CHL1  H21B 9046   3.122   2.332   8.024  0.8856  1.4344 -0.1306
   89CHL1  H21C 9047   3.060   2.337   7.853 -1.2750 -0.3503  1.3989
   89CHL1   C22 9048   3.264   2.122   8.019 -0.6435  0.3974 -0.9043
   89CHL1  H22A 9049   3.317   2.024   8.021  1.9973  1.7572 -0.1294
   89CHL1  H22B 9050   3.345   2.198   8.016 -0.5647  0.2968 -1.6430
   89CHL1   C23 9051   3.207   2.119   8.165  0.4715  0.1567  0.0152
   89CHL1  H23A 9052   3.141   2.207   8.185  2.4653  1.8353 -0.4331
   89CHL1  H23B 9053   3.147   2.027   8.180  1.4829 -0.5601 -0.2358
   89CHL1   C24 9054   3.313   2.109   8.272 -0.0181  0.1266 -0.2607
   89CHL1  H24A 9055   3.375   2.021   8.246 -0.2032 -0.0230 -0.2035
   89CHL1  H24B 9056   3.383   2.194   8.258 -0.3784  1.1038  2.9094
   89CHL1   C25 9057   3.273   2.121   8.422 -0.2226  0.5619 -0.0065
   89CHL1   H25 9058   3.199   2.050   8.465 -0.8186  1.9669  1.4058
   89CHL1   C26 9059   3.405   2.094   8.501 -0.1521  0.0024  0.2234
   89CHL1  H26A 9060   3.473   2.182   8.505  0.2092 -0.3156  2.3654
   89CHL1  H26B 9061   3.383   2.077   8.609 -0.4252 -0.7066  0.0598
   89CHL1  H26C 9062   3.462   2.006   8.466  0.3019 -0.3893  1.8477
   89CHL1   C27 9063   3.219   2.267   8.446  0.3401  0.0859  0.2629
   89CHL1  H27A 9064   3.269   2.335   8.374  1.8357 -1.3702 -0.1397
   89CHL1  H27B 9065   3.113   2.264   8.410  0.7223 -0.4358 -0.8719
   89CHL1  H27C 9066   3.229   2.288   8.554 -1.6156 -0.1669  0.5462
   90CHL1    C3 9067   6.083   6.686   6.925 -0.6624 -0.0168 -0.4740
   90CHL1    H3 9068   6.146   6.776   6.941  2.0530 -2.0125  0.8952
   90CHL1    O3 9069   6.075   6.660   6.784  0.8556 -0.4060 -0.0742
   90CHL1   H3' 9070   6.087   6.565   6.777 -1.0666 -0.7525  0.7610
   90CHL1    C4 9071   6.159   6.563   6.998 -0.2009 -0.3421 -0.1685
   90CHL1   H4A 9072   6.105   6.469   6.972 -1.9465  0.3643  0.7063
   90CHL1   H4B 9073   6.257   6.545   6.949 -1.3454 -0.9170 -2.3695
   90CHL1    C5 9074   6.158   6.589   7.146 -0.1692  0.7548 -0.7366
   90CHL1    C6 9075   6.278   6.593   7.218  0.5945  0.2709  0.3318
   90CHL1    H6 9076   6.368   6.570   7.159  1.2323 -0.7983  1.6723
   90CHL1    C7 9077   6.296   6.623   7.360  0.0430  0.5368 -0.6634
   90CHL1   H7A 9078   6.374   6.558   7.405 -0.3674  0.9842  0.7438
   90CHL1   H7B 9079   6.333   6.728   7.366  2.9871 -0.4220 -0.1848
   90CHL1    C8 9080   6.158   6.610   7.434 -0.3323 -0.4524 -0.0514
   90CHL1    H8 9081   6.140   6.501   7.446  2.1749 -0.8628  0.5956
   90CHL1   C14 9082   6.171   6.666   7.581  0.3074  0.0174 -0.4851
   90CHL1   H14 9083   6.191   6.773   7.559  2.3104 -0.3897 -0.8659
   90CHL1   C15 9084   6.281   6.617   7.669 -0.0893  0.8849 -0.0744
   90CHL1  H15A 9085   6.276   6.506   7.669  1.9353  0.7131 -2.0059
   90CHL1  H15B 9086   6.388   6.633   7.642  1.5961 -1.1169  4.4131
   90CHL1   C16 9087   6.240   6.669   7.810 -0.2502  0.0944 -0.1470
   90CHL1  H16A 9088   6.257   6.583   7.879  2.8682 -1.4632 -2.6049
   90CHL1  H16B 9089   6.293   6.761   7.844  0.7140 -0.8258  0.9531
   90CHL1   C17 9090   6.091   6.700   7.807 -1.0478 -0.1082  0.3825
   90CHL1   H17 9091   6.084   6.809   7.787  0.6410 -0.2307 -1.0741
   90CHL1   C13 9092   6.044   6.650   7.665  0.2724 -0.2024  0.0478
   90CHL1   C18 9093   5.999   6.507   7.683 -0.2351 -0.1548 -0.4527
   90CHL1  H18A 9094   5.969   6.467   7.583 -1.9181  0.0007 -0.0486
   90CHL1  H18B 9095   6.066   6.436   7.736 -1.4239  0.1235  1.5353
   90CHL1  H18C 9096   5.906   6.495   7.744 -0.0392 -1.1211 -0.3254
   90CHL1   C12 9097   5.928   6.733   7.595 -0.5116  0.0557 -0.0262
   90CHL1  H12A 9098   5.830   6.739   7.647  0.0933  0.4865  1.1006
   90CHL1  H12B 9099   5.969   6.836   7.598  0.3005 -0.2442 -0.4240
   90CHL1   C11 9100   5.911   6.682   7.446 -0.0532 -0.0548  0.1615
   90CHL1  H11A 9101   5.865   6.582   7.465  2.5239 -1.1735  0.9683
   90CHL1  H11B 9102   5.838   6.752   7.400 -1.1607 -1.1817  0.1218
   90CHL1    C9 9103   6.039   6.670   7.366  0.3454  0.5419  0.3793
   90CHL1    H9 9104   6.079   6.773   7.349 -0.8531  0.8496 -0.7153
   90CHL1   C10 9105   6.024   6.625   7.213 -0.3907 -0.3657 -0.2789
   90CHL1   C19 9106   5.948   6.490   7.227 -0.2564 -0.6250  0.1820
   90CHL1  H19A 9107   5.986   6.414   7.299  0.2522  1.3599  2.1163
   90CHL1  H19B 9108   5.844   6.508   7.260 -0.4565 -3.0495  1.0427
   90CHL1  H19C 9109   5.948   6.448   7.124 -3.3488  0.9667 -0.5629
   90CHL1    C1 9110   5.930   6.714   7.129  0.6266 -0.1463  0.3185
   90CHL1   H1A 9111   5.824   6.695   7.159 -0.8489 -0.1867 -4.2117
   90CHL1   H1B 9112   5.953   6.822   7.140 -1.1767  0.2714  0.3975
   90CHL1    C2 9113   5.933   6.703   6.975 -0.1760 -0.1160  0.5741
   90CHL1   H2A 9114   5.890   6.786   6.915  1.3168  0.1373 -0.2083
   90CHL1   H2B 9115   5.887   6.605   6.950  1.0634 -1.1955  2.2833
   90CHL1   C20 9116   6.005   6.669   7.938 -0.1659 -0.1169  0.3285
   90CHL1   H20 9117   5.902   6.649   7.901 -0.0556 -0.2044  0.0655
   90CHL1   C21 9118   6.006   6.800   8.015 -0.9865  0.4998 -0.5499
   90CHL1  H21A 9119   5.938   6.796   8.103  2.9545 -0.8447  2.7507
   90CHL1  H21B 9120   5.994   6.890   7.952 -0.5134  0.1245 -1.1859
   90CHL1  H21C 9121   6.105   6.805   8.065 -0.5570 -0.2921 -1.2920
   90CHL1   C22 9122   6.040   6.539   8.016 -0.0149 -0.3398  0.1498
   90CHL1  H22A 9123   6.030   6.448   7.954 -0.8691  1.5721 -2.7009
   90CHL1  H22B 9124   6.144   6.555   8.053  0.2265 -1.0917 -0.1765
   90CHL1   C23 9125   5.946   6.512   8.138  0.2041 -0.0282  0.4708
   90CHL1  H23A 9126   5.963   6.593   8.212  1.3037 -0.9644  1.2822
   90CHL1  H23B 9127   5.844   6.515   8.095 -0.2911 -1.5629  1.4745
   90CHL1   C24 9128   5.958   6.374   8.196 -0.0743  0.1394 -0.1548
   90CHL1  H24A 9129   5.863   6.327   8.229  0.3958 -0.5376  0.2777
   90CHL1  H24B 9130   6.003   6.312   8.116  0.0932 -1.2965  0.9982
   90CHL1   C25 9131   6.052   6.372   8.319 -0.4667  0.3430  0.5463
   90CHL1   H25 9132   6.047   6.472   8.368 -0.2727 -0.2316  1.7830
   90CHL1   C26 9133   5.999   6.262   8.416  0.1627  0.0255  0.1155
   90CHL1  H26A 9134   5.991   6.164   8.363 -2.6842 -2.3338  4.3109
   90CHL1  H26B 9135   6.070   6.251   8.500 -0.6333 -0.9989  0.6787
   90CHL1  H26C 9136   5.903   6.292   8.462 -0.9977 -2.0501 -0.7797
   90CHL1   C27 9137   6.200   6.355   8.274 -0.3438  0.3885 -0.2870
   90CHL1  H27A 9138   6.267   6.356   8.362  0.3688 -0.4272 -0.8011
   90CHL1  H27B 9139   6.226   6.256   8.232 -0.1069 -1.2776  3.4113
   90CHL1  H27C 9140   6.237   6.437   8.208 -2.2291  1.3430 -0.2120
   91CHL1    C3 9141   1.007   4.963   7.115 -0.1614  0.8924  0.4630
   91CHL1    H3 9142   0.908   5.009   7.093 -0.2659  0.8886  0.9213
   91CHL1    O3 9143   1.049   4.894   6.999  0.1164  0.3525  0.0289
   91CHL1   H3' 9144   1.139   4.870   7.022 -0.1499  0.9721  1.8945
   91CHL1    C4 9145   1.104   5.070   7.154  0.5070 -0.3458  0.3930
   91CHL1   H4A 9146   1.212   5.048   7.160  0.6741  0.5405  0.8235
   91CHL1   H4B 9147   1.098   5.152   7.079  0.6293 -1.5330 -0.9519
   91CHL1    C5 9148   1.065   5.146   7.288  0.4874  0.4509 -0.0015
   91CHL1    C6 9149   1.039   5.275   7.299  0.1639  0.1676  0.0966
   91CHL1    H6 9150   1.033   5.332   7.205 -1.1991 -0.9598 -0.5526
   91CHL1    C7 9151   1.019   5.343   7.426  0.1402 -0.1071 -0.2152
   91CHL1   H7A 9152   1.078   5.436   7.441  1.3720 -1.2450  2.8501
   91CHL1   H7B 9153   0.911   5.366   7.436  0.1992 -0.6164  2.5233
   91CHL1    C8 9154   1.062   5.253   7.542 -0.4617 -0.7730  0.3107
   91CHL1    H8 9155   1.173   5.251   7.535 -0.5083 -0.1265 -0.8182
   91CHL1   C14 9156   1.025   5.314   7.679  0.6276  0.2124 -0.5510
   91CHL1   H14 9157   0.914   5.317   7.676  0.2583 -4.7108  0.7226
   91CHL1   C15 9158   1.077   5.452   7.709  0.7294 -0.2082  0.1831
   91CHL1  H15A 9159   1.180   5.473   7.672  1.8369 -1.1074  2.5448
   91CHL1  H15B 9160   1.010   5.520   7.653  0.7903  1.7654  2.3296
   91CHL1   C16 9161   1.073   5.463   7.861 -0.0562  0.0925 -0.5606
   91CHL1  H16A 9162   1.176   5.481   7.898 -0.4314 -1.6959  1.5531
   91CHL1  H16B 9163   0.995   5.537   7.888 -0.0550 -0.0900 -0.0490
   91CHL1   C17 9164   1.035   5.318   7.911 -0.7947  0.4612 -0.1642
   91CHL1   H17 9165   0.924   5.323   7.923 -0.8072 -0.3553  0.1065
   91CHL1   C13 9166   1.064   5.224   7.791  0.2654  0.1203  0.3818
   91CHL1   C18 9167   1.210   5.194   7.790 -0.2858  0.0359 -0.7465
   91CHL1  H18A 9168   1.255   5.122   7.718  1.2637  0.5686 -0.3626
   91CHL1  H18B 9169   1.262   5.291   7.772 -0.7322  0.4867  0.2821
   91CHL1  H18C 9170   1.244   5.151   7.887 -1.0346  1.4188  0.1620
   91CHL1   C12 9171   0.989   5.092   7.784  0.0921 -0.1580 -0.1948
   91CHL1  H12A 9172   1.019   5.024   7.867 -1.0531  0.6445  0.9127
   91CHL1  H12B 9173   0.880   5.108   7.796  0.0943  0.7312 -1.2024
   91CHL1   C11 9174   1.013   5.016   7.652  0.4050  0.1472 -0.6078
   91CHL1  H11A 9175   1.114   4.972   7.666  1.1371  1.6951 -0.8706
   91CHL1  H11B 9176   0.937   4.936   7.644 -1.2137  1.6264 -0.5495
   91CHL1    C9 9177   1.005   5.111   7.525 -0.1472 -0.5167 -0.3932
   91CHL1    H9 9178   0.897   5.135   7.523 -0.2143 -0.3824  2.1355
   91CHL1   C10 9179   1.059   5.045   7.400  0.3875  0.6822  0.1990
   91CHL1   C19 9180   1.205   4.991   7.425  0.7508 -0.1541  0.2100
   91CHL1  H19A 9181   1.268   4.963   7.338 -1.1194  0.5239 -1.4419
   91CHL1  H19B 9182   1.267   5.060   7.487  2.0668 -1.8167  0.8258
   91CHL1  H19C 9183   1.180   4.893   7.471  0.7461 -1.1807 -1.8336
   91CHL1    C1 9184   0.957   4.932   7.353  0.1142  0.7879 -0.2292
   91CHL1   H1A 9185   0.954   4.852   7.431 -1.3881 -0.3324 -1.3824
   91CHL1   H1B 9186   0.856   4.975   7.335 -0.3236  0.1549  0.6342
   91CHL1    C2 9187   0.999   4.859   7.228  0.3088 -0.0591 -0.0796
   91CHL1   H2A 9188   0.917   4.786   7.214  0.4055 -0.1980  0.0741
   91CHL1   H2B 9189   1.088   4.794   7.235  1.3182  1.2766 -0.1289
   91CHL1   C20 9190   1.087   5.291   8.052  0.2131 -0.0434 -0.1415
   91CHL1   H20 9191   1.198   5.297   8.057  0.1536  2.6265 -0.4823
   91CHL1   C21 9192   1.040   5.155   8.104  0.0795  0.0740  0.1259
   91CHL1  H21A 9193   1.087   5.084   8.032  2.2044  1.9368 -0.4348
   91CHL1  H21B 9194   0.930   5.138   8.108 -0.2341  1.7896 -0.4077
   91CHL1  H21C 9195   1.089   5.121   8.198 -1.1927 -2.3172 -0.0052
   91CHL1   C22 9196   1.048   5.406   8.147  0.4517  0.0084 -1.0601
   91CHL1  H22A 9197   1.074   5.503   8.101 -1.5919  0.8443 -0.5860
   91CHL1  H22B 9198   0.937   5.409   8.153  0.5287  2.6070  1.0218
   91CHL1   C23 9199   1.108   5.394   8.291  0.5826  0.2958 -0.2465
   91CHL1  H23A 9200   1.066   5.300   8.333 -0.3611  1.2783  1.1252
   91CHL1  H23B 9201   1.218   5.385   8.297  0.6800  0.2701 -1.7470
   91CHL1   C24 9202   1.059   5.495   8.399 -0.7452  0.3000  0.2534
   91CHL1  H24A 9203   0.948   5.497   8.412 -0.7883  0.5685 -0.1248
   91CHL1  H24B 9204   1.102   5.465   8.496 -1.0279  1.7735  0.8464
   91CHL1   C25 9205   1.108   5.645   8.386  0.0660  0.2797  0.8224
   91CHL1   H25 9206   1.087   5.663   8.278  0.3945  0.5415  0.8012
   91CHL1   C26 9207   1.033   5.732   8.481 -0.0140  0.0162  0.3934
   91CHL1  H26A 9208   1.044   5.836   8.443  0.7125  0.0464  0.6745
   91CHL1  H26B 9209   0.927   5.704   8.497  0.2712 -2.4650 -1.5120
   91CHL1  H26C 9210   1.079   5.724   8.582  2.6406  1.0627 -0.6406
   91CHL1   C27 9211   1.258   5.644   8.408  0.0824  0.1285 -0.5963
   91CHL1  H27A 9212   1.309   5.575   8.337 -0.0427 -1.6095  0.9392
   91CHL1  H27B 9213   1.305   5.744   8.396 -0.2401  0.4055  0.3463
   91CHL1  H27C 9214   1.281   5.609   8.510 -3.1650  0.2804  0.3014
   92CHL1    C3 9215   6.178   3.308   6.655 -0.1070 -0.8625  0.4942
   92CHL1    H3 9216   6.283   3.338   6.672  0.3450 -3.0842  1.9165
   92CHL1    O3 9217   6.160   3.297   6.513 -0.3331  0.3171 -0.1636
   92CHL1   H3' 9218   6.218   3.224   6.489  2.1387  2.1288 -0.0528
   92CHL1    C4 9219   6.147   3.173   6.716  0.2045  0.7572 -0.4231
   92CHL1   H4A 9220   6.043   3.145   6.691  0.3198  0.1508 -0.2325
   92CHL1   H4B 9221   6.207   3.096   6.663  0.0761 -0.9306  1.7586
   92CHL1    C5 9222   6.167   3.179   6.864  0.8239 -0.5782 -0.1277
   92CHL1    C6 9223   6.250   3.092   6.932 -0.0142  0.2364 -0.6628
   92CHL1    H6 9224   6.322   3.022   6.886  0.5981 -0.0692  0.6926
   92CHL1    C7 9225   6.250   3.085   7.084 -0.5175 -0.0474 -0.0957
   92CHL1   H7A 9226   6.214   2.983   7.107  0.7940 -0.1892  1.4889
   92CHL1   H7B 9227   6.356   3.099   7.115  0.4190  0.0052 -3.0116
   92CHL1    C8 9228   6.145   3.177   7.153  0.3572  0.6554 -0.3318
   92CHL1    H8 9229   6.052   3.117   7.161  0.7156  0.0772 -0.4447
   92CHL1   C14 9230   6.174   3.204   7.303 -0.1194 -0.5247 -0.2253
   92CHL1   H14 9231   6.265   3.265   7.316 -0.6965 -0.1389  2.5657
   92CHL1   C15 9232   6.208   3.080   7.383  0.0953 -0.0367  0.3910
   92CHL1  H15A 9233   6.138   2.997   7.359 -0.8430  0.9115 -0.2484
   92CHL1  H15B 9234   6.311   3.041   7.367  0.2705  1.1510 -1.7056
   92CHL1   C16 9235   6.198   3.121   7.531  0.5386  0.2052  0.5387
   92CHL1  H16A 9236   6.118   3.068   7.588  0.1705  0.0994 -0.0630
   92CHL1  H16B 9237   6.296   3.126   7.583  2.3528  0.3238 -2.6948
   92CHL1   C17 9238   6.130   3.261   7.521 -0.1467  0.3199  0.7071
   92CHL1   H17 9239   6.211   3.337   7.522  0.2228 -0.0718  0.9987
   92CHL1   C13 9240   6.067   3.276   7.380  0.1262  0.7872  1.0652
   92CHL1   C18 9241   5.930   3.198   7.377 -0.4356 -0.4552  0.1672
   92CHL1  H18A 9242   5.886   3.193   7.276  1.3153 -1.6271 -0.5834
   92CHL1  H18B 9243   5.929   3.098   7.426  2.2573  0.0926  1.5456
   92CHL1  H18C 9244   5.858   3.254   7.440 -0.2235  1.5610 -1.2959
   92CHL1   C12 9245   6.068   3.414   7.310  0.4786 -0.6263  0.0002
   92CHL1  H12A 9246   5.998   3.490   7.350 -0.0859 -0.6133 -0.9898
   92CHL1  H12B 9247   6.170   3.454   7.329  0.9153 -1.5563 -0.3213
   92CHL1   C11 9248   6.026   3.401   7.166  0.1302  1.0429  1.0599
   92CHL1  H11A 9249   5.923   3.359   7.166  0.1074  1.0920  0.7202
   92CHL1  H11B 9250   6.037   3.505   7.126  0.9895  0.6539  0.2260
   92CHL1    C9 9251   6.122   3.309   7.084  0.6620 -0.9867  0.1751
   92CHL1    H9 9252   6.219   3.362   7.074 -0.2809  0.3323 -3.3732
   92CHL1   C10 9253   6.076   3.283   6.940  0.0804  0.0884  0.6791
   92CHL1   C19 9254   5.930   3.235   6.936  0.5788  0.2021  0.5265
   92CHL1  H19A 9255   5.860   3.310   6.979  1.2534 -0.2332  2.4974
   92CHL1  H19B 9256   5.897   3.224   6.831 -0.5118 -1.3585  1.0058
   92CHL1  H19C 9257   5.913   3.132   6.972  0.0451  0.1767  0.2108
   92CHL1    C1 9258   6.087   3.419   6.863 -0.3456 -0.5678 -0.0035
   92CHL1   H1A 9259   5.996   3.468   6.901 -0.8662 -1.3918 -0.1644
   92CHL1   H1B 9260   6.178   3.480   6.881 -1.2813  0.5563  1.0651
   92CHL1    C2 9261   6.073   3.406   6.714 -0.3488 -0.6613 -0.1776
   92CHL1   H2A 9262   6.074   3.510   6.676  1.5823 -0.0130  1.4894
   92CHL1   H2B 9263   5.970   3.372   6.689 -0.1439 -0.6750 -1.0641
   92CHL1   C20 9264   6.050   3.298   7.645 -0.0302  0.1815  0.5834
   92CHL1   H20 9265   5.958   3.236   7.645 -0.4512  0.7929  0.4760
   92CHL1   C21 9266   6.003   3.441   7.620  1.0548  0.5294 -0.4333
   92CHL1  H21A 9267   6.083   3.516   7.605 -0.4146  1.7123 -3.1145
   92CHL1  H21B 9268   5.946   3.451   7.715 -0.7243 -0.8433 -1.3008
   92CHL1  H21C 9269   5.920   3.450   7.547 -0.8996  0.3808  1.6536
   92CHL1   C22 9270   6.130   3.276   7.771  0.2111  0.5331 -0.5505
   92CHL1  H22A 9271   6.169   3.172   7.774 -0.5764  0.2404 -0.1890
   92CHL1  H22B 9272   6.213   3.350   7.774 -0.5372  1.3704  2.5382
   92CHL1   C23 9273   6.044   3.295   7.904 -0.0477 -0.2304  0.1874
   92CHL1  H23A 9274   5.994   3.394   7.903 -1.0918 -0.7382 -0.8761
   92CHL1  H23B 9275   5.963   3.218   7.905 -1.0820  0.8342  1.3274
   92CHL1   C24 9276   6.123   3.267   8.030  0.0871 -0.4232 -0.5780
   92CHL1  H24A 9277   6.199   3.188   8.013  0.6426 -0.3633  1.3794
   92CHL1  H24B 9278   6.187   3.356   8.049  0.8148 -0.8184 -1.1094
   92CHL1   C25 9279   6.040   3.246   8.151  0.1168 -0.3678  0.4042
   92CHL1   H25 9280   5.964   3.166   8.138 -0.4113 -0.0608  1.4283
   92CHL1   C26 9281   6.125   3.199   8.270 -0.5827  0.2659  0.1886
   92CHL1  H26A 9282   6.173   3.099   8.259 -0.0069  0.6440 -0.8155
   92CHL1  H26B 9283   6.210   3.266   8.299  0.9077 -0.2299 -2.6398
   92CHL1  H26C 9284   6.067   3.195   8.365 -0.4265  1.2049  0.3329
   92CHL1   C27 9285   5.961   3.381   8.183  0.3092 -0.1315  0.4539
   92CHL1  H27A 9286   6.021   3.474   8.186 -2.2494  1.6690 -0.3368
   92CHL1  H27B 9287   5.872   3.405   8.120 -0.0103  2.0538  1.6540
   92CHL1  H27C 9288   5.930   3.363   8.288  0.6607 -0.8966  0.4334
   93CHL1    C3 9289   3.322   4.137   6.907  0.0734  0.0545  0.8311
   93CHL1    H3 9290   3.391   4.217   6.939  1.1982 -0.0545 -1.1376
   93CHL1    O3 9291   3.322   4.147   6.765  0.0298 -0.5339  0.3884
   93CHL1   H3' 9292   3.256   4.085   6.734 -0.6917  0.4123  0.0053
   93CHL1    C4 9293   3.375   3.999   6.951 -0.2563  0.2843  0.2844
   93CHL1   H4A 9294   3.307   3.919   6.914 -0.3309  0.0600  0.9022
   93CHL1   H4B 9295   3.475   3.982   6.904 -0.1633 -1.2039  0.9683
   93CHL1    C5 9296   3.365   3.994   7.100 -0.6082  0.8468 -0.1616
   93CHL1    C6 9297   3.479   3.966   7.170 -0.1973 -0.0191  0.2922
   93CHL1    H6 9298   3.577   3.954   7.122 -0.1499  1.3353 -0.0037
   93CHL1    C7 9299   3.472   3.960   7.323 -0.6592  0.9966  0.1950
   93CHL1   H7A 9300   3.542   3.881   7.359 -0.5865  2.5535  3.9011
   93CHL1   H7B 9301   3.506   4.061   7.353  0.5150  1.1127 -1.3557
   93CHL1    C8 9302   3.331   3.945   7.386  0.0211 -0.5548 -0.1058
   93CHL1    H8 9303   3.302   3.841   7.362  0.7705 -0.9382  0.6221
   93CHL1   C14 9304   3.332   3.986   7.532 -0.3119  0.4888  0.7181
   93CHL1   H14 9305   3.356   4.094   7.542  1.1226  0.3525 -0.8162
   93CHL1   C15 9306   3.449   3.928   7.620 -0.3123 -0.4682 -0.1780
   93CHL1  H15A 9307   3.467   3.824   7.583 -1.8442 -1.5516  1.9246
   93CHL1  H15B 9308   3.546   3.981   7.625  0.6807 -2.1808 -0.3269
   93CHL1   C16 9309   3.385   3.918   7.754  0.2680  0.1047  0.4746
   93CHL1  H16A 9310   3.380   3.811   7.782 -1.0645  0.5711  2.1780
   93CHL1  H16B 9311   3.441   3.972   7.834 -0.2147 -1.2647  1.7757
   93CHL1   C17 9312   3.250   3.990   7.754 -0.7637 -0.1592 -0.0665
   93CHL1   H17 9313   3.291   4.092   7.767  1.8103 -1.2628  1.1434
   93CHL1   C13 9314   3.200   3.969   7.605 -0.7268  0.1943 -0.2618
   93CHL1   C18 9315   3.137   3.829   7.585  0.3765  0.5361  0.5283
   93CHL1  H18A 9316   3.088   3.812   7.486 -2.0688 -1.3972  1.9796
   93CHL1  H18B 9317   3.217   3.755   7.603  2.2026  2.2310 -0.2514
   93CHL1  H18C 9318   3.052   3.817   7.655  2.2575 -0.1872  2.8192
   93CHL1   C12 9319   3.108   4.081   7.543 -1.1149  0.1260  0.6155
   93CHL1  H12A 9320   3.008   4.064   7.588  0.2469 -0.1598  3.7780
   93CHL1  H12B 9321   3.142   4.185   7.566  1.7725 -0.6312  0.2444
   93CHL1   C11 9322   3.107   4.062   7.387 -0.4301 -0.3087 -0.0915
   93CHL1  H11A 9323   3.038   3.977   7.374 -2.0697  0.4973  2.4888
   93CHL1  H11B 9324   3.064   4.160   7.357  1.9731  1.0901  0.6867
   93CHL1    C9 9325   3.241   4.043   7.315 -0.3382 -0.6332  0.3030
   93CHL1    H9 9326   3.285   4.144   7.330 -1.6320  0.0619 -0.3717
   93CHL1   C10 9327   3.235   4.026   7.166  0.9704 -0.2390  0.0401
   93CHL1   C19 9328   3.137   3.914   7.128 -0.3059 -0.1466  0.0829
   93CHL1  H19A 9329   3.121   3.892   7.021  0.8694 -2.3398  0.3129
   93CHL1  H19B 9330   3.155   3.815   7.175  0.1660 -1.5522 -2.8197
   93CHL1  H19C 9331   3.031   3.939   7.152 -0.2674  2.3142 -1.8813
   93CHL1    C1 9332   3.184   4.164   7.106 -0.3104  0.2001  0.0496
   93CHL1   H1A 9333   3.077   4.170   7.135 -0.5127 -2.6044  0.1922
   93CHL1   H1B 9334   3.240   4.250   7.149 -0.9016  1.5437 -1.7448
   93CHL1    C2 9335   3.183   4.177   6.952 -0.2186 -0.5282 -0.4633
   93CHL1   H2A 9336   3.152   4.280   6.923 -1.0878  0.6491  3.9649
   93CHL1   H2B 9337   3.107   4.122   6.892 -0.4609  0.0799 -0.7261
   93CHL1   C20 9338   3.167   3.956   7.873  1.0753 -0.2046  0.3144
   93CHL1   H20 9339   3.145   3.848   7.887  1.3893 -0.0640  2.1774
   93CHL1   C21 9340   3.032   4.033   7.861 -0.6505  0.4082  0.1117
   93CHL1  H21A 9341   2.971   4.018   7.953  1.6040 -1.6471  1.3831
   93CHL1  H21B 9342   2.978   3.994   7.772  0.9656 -1.4498 -0.1146
   93CHL1  H21C 9343   3.058   4.141   7.855  0.8648  0.2104  2.0745
   93CHL1   C22 9344   3.229   3.999   8.014  0.2413  0.1328 -0.1874
   93CHL1  H22A 9345   3.324   3.944   8.024 -0.3569 -0.6705  1.3736
   93CHL1  H22B 9346   3.237   4.110   8.007  1.0407  0.0789 -0.1477
   93CHL1   C23 9347   3.134   3.979   8.135  0.2215  0.6195  0.3878
   93CHL1  H23A 9348   3.064   4.063   8.151 -2.8908 -1.3814 -1.6208
   93CHL1  H23B 9349   3.082   3.888   8.097 -0.8712  2.6254 -3.4025
   93CHL1   C24 9350   3.205   3.949   8.266  0.3278  0.3059  0.5802
   93CHL1  H24A 9351   3.266   3.856   8.261  3.4628  2.2470 -0.1907
   93CHL1  H24B 9352   3.262   4.037   8.303 -1.9221  1.0306  2.5859
   93CHL1   C25 9353   3.091   3.922   8.374  0.8994 -0.1854  0.4190
   93CHL1   H25 9354   3.012   3.999   8.367 -0.4467 -1.6093 -0.6506
   93CHL1   C26 9355   3.040   3.785   8.352  0.5077  0.4236  0.1544
   93CHL1  H26A 9356   2.954   3.775   8.422 -0.4645 -1.5515 -1.2312
   93CHL1  H26B 9357   3.005   3.768   8.249 -2.4312  0.3354  1.0854
   93CHL1  H26C 9358   3.117   3.711   8.381 -0.3132 -1.3207 -1.8737
   93CHL1   C27 9359   3.156   3.939   8.511 -0.3729  0.4118 -0.3636
   93CHL1  H27A 9360   3.248   3.877   8.514  1.1635  2.5603  0.0523
   93CHL1  H27B 9361   3.179   4.047   8.523  2.3902 -0.2752  1.3737
   93CHL1  H27C 9362   3.093   3.911   8.597  0.4968  0.2938  0.2478
   94CHL1    C3 9363   6.036   3.813   6.867  0.0720  0.0399  0.4049
   94CHL1    H3 9364   6.013   3.706   6.889 -1.0200  0.2074  0.1418
   94CHL1    O3 9365   6.039   3.827   6.725 -0.0776  0.4756 -0.1878
   94CHL1   H3' 9366   6.047   3.922   6.713  1.9309  0.3661 -0.0524
   94CHL1    C4 9367   5.930   3.898   6.924 -0.1732 -0.0443  0.3917
   94CHL1   H4A 9368   5.949   4.003   6.893  2.5580 -1.2021 -2.3398
   94CHL1   H4B 9369   5.834   3.860   6.884  0.7171 -1.0849 -0.8518
   94CHL1    C5 9370   5.928   3.883   7.076 -0.1028  0.1546 -0.3502
   94CHL1    C6 9371   5.809   3.857   7.143 -0.5051  0.4998  0.6575
   94CHL1    H6 9372   5.711   3.860   7.093 -0.6012  0.0056  0.8122
   94CHL1    C7 9373   5.799   3.832   7.290 -0.1297 -0.6835  0.4222
   94CHL1   H7A 9374   5.705   3.881   7.326 -0.2743 -1.5331  1.2413
   94CHL1   H7B 9375   5.782   3.725   7.315  0.3750 -0.9013 -0.1723
   94CHL1    C8 9376   5.915   3.889   7.363  0.4583 -0.2640  0.2758
   94CHL1    H8 9377   5.914   4.000   7.356 -2.1392 -0.3032 -1.1558
   94CHL1   C14 9378   5.910   3.842   7.503  0.4083  1.2313  0.2063
   94CHL1   H14 9379   5.921   3.732   7.493  1.0200  1.4663 -2.6845
   94CHL1   C15 9380   5.780   3.864   7.577  0.2018  1.0346  0.4580
   94CHL1  H15A 9381   5.726   3.958   7.554 -1.2597 -0.4739 -3.1508
   94CHL1  H15B 9382   5.703   3.786   7.558  0.8027  0.0503  1.9556
   94CHL1   C16 9383   5.821   3.853   7.722 -0.1197 -0.0403  0.7599
   94CHL1  H16A 9384   5.789   3.948   7.770  0.8809  0.1737  1.0422
   94CHL1  H16B 9385   5.772   3.762   7.761  2.1053 -0.4444  2.8844
   94CHL1   C17 9386   5.978   3.837   7.719  0.4181  1.0597  0.5239
   94CHL1   H17 9387   5.997   3.729   7.706 -0.7070  0.8778  0.3483
   94CHL1   C13 9388   6.024   3.900   7.590 -0.3450 -0.3318 -1.0044
   94CHL1   C18 9389   6.023   4.056   7.611 -0.0144  1.1515  0.3932
   94CHL1  H18A 9390   6.047   4.095   7.510  1.3762 -0.9833 -0.1695
   94CHL1  H18B 9391   5.929   4.098   7.653 -1.3685 -0.1728 -1.1837
   94CHL1  H18C 9392   6.111   4.074   7.677 -0.1948 -2.5081  1.8747
   94CHL1   C12 9393   6.162   3.849   7.537  0.3249  0.1931  0.0500
   94CHL1  H12A 9394   6.248   3.887   7.596 -0.0978 -1.3227  1.6911
   94CHL1  H12B 9395   6.165   3.739   7.547  3.6087 -0.0561 -2.0523
   94CHL1   C11 9396   6.171   3.880   7.385  0.4652 -0.3246 -0.5897
   94CHL1  H11A 9397   6.163   3.990   7.378 -0.8319 -0.3116  0.5628
   94CHL1  H11B 9398   6.269   3.860   7.337  1.5414 -1.2492  1.8378
   94CHL1    C9 9399   6.052   3.843   7.294  0.3766  0.2035 -0.1219
   94CHL1    H9 9400   6.049   3.733   7.284  1.6743  0.2673 -1.5921
   94CHL1   C10 9401   6.060   3.896   7.150 -0.7568  0.7756  0.9371
   94CHL1   C19 9402   6.104   4.047   7.150 -0.4981 -0.2447 -1.0352
   94CHL1  H19A 9403   6.042   4.107   7.219  1.2716  0.2346  0.2067
   94CHL1  H19B 9404   6.209   4.055   7.186 -0.6709  0.6213 -0.6991
   94CHL1  H19C 9405   6.106   4.084   7.045  1.3288 -2.3311 -1.8297
   94CHL1    C1 9406   6.172   3.810   7.079 -0.2820 -0.4715  0.4955
   94CHL1   H1A 9407   6.267   3.836   7.130 -0.1061  2.9226 -1.2585
   94CHL1   H1B 9408   6.161   3.700   7.090  0.8946 -0.5638  0.9059
   94CHL1    C2 9409   6.177   3.832   6.925 -0.1907  0.4293 -0.3749
   94CHL1   H2A 9410   6.247   3.767   6.868 -0.3101 -0.4877  0.5047
   94CHL1   H2B 9411   6.201   3.940   6.909 -2.8137  0.9665 -1.1441
   94CHL1   C20 9412   6.050   3.871   7.852 -0.2247  0.1115  0.3820
   94CHL1   H20 9413   6.158   3.887   7.832  0.5855 -0.8904  3.4189
   94CHL1   C21 9414   6.028   3.736   7.928  0.0719 -0.7826  0.3216
   94CHL1  H21A 9415   5.920   3.709   7.924 -0.8657  2.4071  1.1772
   94CHL1  H21B 9416   6.058   3.731   8.035  1.9046  2.5369  0.0662
   94CHL1  H21C 9417   6.088   3.658   7.877  0.1906  0.2890 -1.2376
   94CHL1   C22 9418   5.992   3.991   7.931  0.3458  1.2367 -0.3124
   94CHL1  H22A 9419   5.989   4.079   7.864  1.9954  1.5089 -0.0663
   94CHL1  H22B 9420   5.890   3.970   7.973  0.0165 -2.6780 -2.5720
   94CHL1   C23 9421   6.080   4.026   8.053  0.1430  0.5877 -0.5040
   94CHL1  H23A 9422   6.017   4.096   8.112 -0.2674  1.6494 -2.1375
   94CHL1  H23B 9423   6.104   3.940   8.119 -1.2066  0.4736 -0.1150
   94CHL1   C24 9424   6.210   4.091   8.014 -0.8040 -0.0634  0.1472
   94CHL1  H24A 9425   6.276   4.020   7.959 -1.8303 -0.0361 -1.1778
   94CHL1  H24B 9426   6.186   4.172   7.942  0.3415 -0.8796 -1.1969
   94CHL1   C25 9427   6.283   4.160   8.135 -0.2857  0.3203 -0.1207
   94CHL1   H25 9428   6.211   4.225   8.190  0.9193  2.1660 -0.6246
   94CHL1   C26 9429   6.345   4.056   8.226 -0.7456 -0.2319 -0.4743
   94CHL1  H26A 9430   6.273   3.996   8.286 -0.0794 -1.0309 -0.4622
   94CHL1  H26B 9431   6.399   3.977   8.171 -1.6578 -1.4508  0.3360
   94CHL1  H26C 9432   6.408   4.108   8.302 -2.9859  0.6056  0.9119
   94CHL1   C27 9433   6.399   4.250   8.095  0.3221  0.6839  0.4633
   94CHL1  H27A 9434   6.460   4.190   8.025 -2.4851 -1.2222 -0.5023
   94CHL1  H27B 9435   6.352   4.335   8.042 -0.8282 -0.1795  0.0573
   94CHL1  H27C 9436   6.469   4.290   8.172  2.9409 -0.7727 -0.9988
   95CHL1    C3 9437   0.232   4.695   6.721 -0.2155 -0.3064  0.3644
   95CHL1    H3 9438   0.322   4.644   6.762  1.4770  1.7793 -0.5566
   95CHL1    O3 9439   0.255   4.715   6.580 -0.0961 -0.8475  0.1994
   95CHL1   H3' 9440   0.174   4.763   6.563 -0.0118 -0.3833  1.0501
   95CHL1    C4 9441   0.095   4.620   6.743  0.7171  0.0229 -0.3569
   95CHL1   H4A 9442   0.021   4.679   6.685 -0.3116 -0.2556  0.6455
   95CHL1   H4B 9443   0.098   4.527   6.683 -1.2986  0.3060 -0.9516
   95CHL1    C5 9444   0.051   4.603   6.890  0.2319  0.0818  0.5823
   95CHL1    C6 9445   0.033   4.480   6.942  0.8182 -0.3338  0.6604
   95CHL1    H6 9446   0.043   4.396   6.871  0.2857  0.7630 -0.7844
   95CHL1    C7 9447  -0.007   4.457   7.084 -0.3138 -0.2576  0.3814
   95CHL1   H7A 9448  -0.087   4.380   7.090 -1.8266  1.3034  0.6675
   95CHL1   H7B 9449   0.085   4.426   7.139  2.7243  3.2117 -2.2153
   95CHL1    C8 9450  -0.064   4.588   7.147 -0.3233  0.2663  0.3146
   95CHL1    H8 9451  -0.161   4.602   7.094  0.4134 -0.9525 -1.4263
   95CHL1   C14 9452  -0.094   4.565   7.295 -0.1120 -0.1950 -0.5109
   95CHL1   H14 9453   0.001   4.520   7.333 -0.7428 -2.5132 -1.4722
   95CHL1   C15 9454  -0.191   4.446   7.327  0.4105 -0.6622  0.2693
   95CHL1  H15A 9455  -0.284   4.454   7.267  0.3061  4.0902  0.7338
   95CHL1  H15B 9456  -0.149   4.343   7.320 -0.1351 -0.8077 -1.3442
   95CHL1   C16 9457  -0.230   4.479   7.475  0.0462 -0.2911  0.1791
   95CHL1  H16A 9458  -0.341   4.484   7.475 -0.0362 -1.3566 -1.4784
   95CHL1  H16B 9459  -0.216   4.399   7.551 -1.0639  0.1048  0.8393
   95CHL1   C17 9460  -0.163   4.621   7.505  1.0857  0.5317 -0.5462
   95CHL1   H17 9461  -0.061   4.587   7.532  0.7860  0.3496  0.3859
   95CHL1   C13 9462  -0.143   4.683   7.369 -0.1732 -0.3901  0.5956
   95CHL1   C18 9463  -0.274   4.740   7.307 -0.1445  0.3994 -0.0729
   95CHL1  H18A 9464  -0.305   4.832   7.362 -1.5818 -2.0004  3.5288
   95CHL1  H18B 9465  -0.252   4.750   7.198  1.4577  0.7970  0.2645
   95CHL1  H18C 9466  -0.350   4.659   7.317 -0.2341  0.4696 -0.1910
   95CHL1   C12 9467  -0.027   4.787   7.354  0.4561  0.1096  0.1992
   95CHL1  H12A 9468  -0.050   4.867   7.427 -1.2982 -0.6141  0.4997
   95CHL1  H12B 9469   0.068   4.749   7.398  0.7056 -0.9038 -1.1410
   95CHL1   C11 9470   0.001   4.829   7.209  0.2071 -0.7795  0.9917
   95CHL1  H11A 9471  -0.082   4.889   7.166  0.5530 -1.7358 -1.1450
   95CHL1  H11B 9472   0.082   4.905   7.205  0.4812 -0.9877  2.0810
   95CHL1    C9 9473   0.028   4.708   7.116  0.1760 -0.2656  0.0740
   95CHL1    H9 9474   0.126   4.674   7.157 -0.6855 -0.1420  2.3900
   95CHL1   C10 9475   0.047   4.734   6.965 -0.6440  0.6696  0.0719
   95CHL1   C19 9476  -0.076   4.813   6.914 -0.5627 -0.3977 -0.4186
   95CHL1  H19A 9477  -0.063   4.847   6.809  0.8727  2.6130  0.5992
   95CHL1  H19B 9478  -0.172   4.762   6.934 -1.3408  2.1861  3.4608
   95CHL1  H19C 9479  -0.084   4.912   6.965 -0.6381 -1.2113  1.2031
   95CHL1    C1 9480   0.180   4.823   6.944  0.1666 -1.0284  0.0175
   95CHL1   H1A 9481   0.184   4.924   6.991 -1.0570 -1.3054  0.7490
   95CHL1   H1B 9482   0.263   4.761   6.985  0.5566  0.4193  1.5196
   95CHL1    C2 9483   0.218   4.834   6.794 -1.3236 -0.4072 -0.6892
   95CHL1   H2A 9484   0.321   4.875   6.785 -1.1917 -0.4832  0.3953
   95CHL1   H2B 9485   0.145   4.901   6.744 -1.6586  0.9083  1.4326
   95CHL1   C20 9486  -0.245   4.696   7.615 -0.0178 -0.0738 -0.5394
   95CHL1   H20 9487  -0.355   4.692   7.600 -0.2050 -0.6616  0.8160
   95CHL1   C21 9488  -0.192   4.839   7.639  0.3713  0.4776  0.7160
   95CHL1  H21A 9489  -0.192   4.897   7.544  0.1497 -1.3073 -0.4269
   95CHL1  H21B 9490  -0.086   4.835   7.673  0.4713  0.0393  0.3556
   95CHL1  H21C 9491  -0.255   4.898   7.709 -0.0656  0.4964  0.3168
   95CHL1   C22 9492  -0.227   4.625   7.756 -0.0233  0.7831  0.2177
   95CHL1  H22A 9493  -0.209   4.515   7.747  2.1870  0.9006  2.2785
   95CHL1  H22B 9494  -0.139   4.656   7.815  0.2266 -1.8954  1.4215
   95CHL1   C23 9495  -0.345   4.659   7.842 -0.5311 -0.1968 -0.8669
   95CHL1  H23A 9496  -0.361   4.769   7.829  1.5422  0.3733  0.7836
   95CHL1  H23B 9497  -0.430   4.604   7.797 -0.6146 -1.3006  0.5743
   95CHL1   C24 9498  -0.307   4.636   7.989  0.0708 -0.3334  0.3411
   95CHL1  H24A 9499  -0.296   4.528   8.010  0.7627  0.0013  1.8900
   95CHL1  H24B 9500  -0.208   4.682   8.011  0.1443  0.0228 -0.7125
   95CHL1   C25 9501  -0.409   4.676   8.090 -0.4721 -0.0868 -0.5310
   95CHL1   H25 9502  -0.507   4.625   8.077 -0.7742  0.2060  0.5573
   95CHL1   C26 9503  -0.369   4.634   8.236  0.6369 -0.0563 -0.8349
   95CHL1  H26A 9504  -0.367   4.524   8.251  2.6643  0.2163  1.6313
   95CHL1  H26B 9505  -0.276   4.673   8.283 -1.0138 -0.7743  3.5158
   95CHL1  H26C 9506  -0.444   4.675   8.307  1.3860  1.1255 -0.6850
   95CHL1   C27 9507  -0.431   4.829   8.093 -0.1799 -0.4632 -0.8217
   95CHL1  H27A 9508  -0.538   4.849   8.117 -0.0707  0.1229 -0.8038
   95CHL1  H27B 9509  -0.364   4.882   8.163 -1.0419  0.2512 -0.5116
   95CHL1  H27C 9510  -0.410   4.882   7.997 -2.1216  2.2186  0.1085
   96CHL1    C3 9511   6.676   3.641   6.807 -0.8039 -0.2083 -0.5181
   96CHL1    H3 9512   6.706   3.737   6.854 -0.3676 -0.9627  0.8028
   96CHL1    O3 9513   6.682   3.642   6.662  0.1056  0.1906 -0.3213
   96CHL1   H3' 9514   6.593   3.668   6.636 -1.5421 -2.1435  2.3448
   96CHL1    C4 9515   6.777   3.542   6.872  0.0031  0.3812 -0.0787
   96CHL1   H4A 9516   6.750   3.438   6.843 -1.8464  1.3778 -2.2326
   96CHL1   H4B 9517   6.866   3.582   6.818 -0.5526 -0.7528 -1.9127
   96CHL1    C5 9518   6.758   3.552   7.025  0.0691 -0.2673  1.1651
   96CHL1    C6 9519   6.862   3.587   7.106  0.4857 -0.4689  0.0052
   96CHL1    H6 9520   6.959   3.612   7.060 -1.0620 -0.2643 -3.4021
   96CHL1    C7 9521   6.848   3.600   7.253 -0.4625  0.0299 -1.0728
   96CHL1   H7A 9522   6.935   3.556   7.305 -1.4520 -0.3890  0.2872
   96CHL1   H7B 9523   6.838   3.709   7.272 -0.9351 -0.3302  0.9969
   96CHL1    C8 9524   6.720   3.523   7.304 -0.3307 -0.4352 -0.1814
   96CHL1    H8 9525   6.739   3.414   7.290 -1.1254 -0.8516  1.6962
   96CHL1   C14 9526   6.690   3.566   7.444  0.4293  1.3310 -0.9823
   96CHL1   H14 9527   6.681   3.677   7.443  2.6293  1.5701 -0.5008
   96CHL1   C15 9528   6.809   3.541   7.547  0.6397 -0.3762  0.6869
   96CHL1  H15A 9529   6.862   3.444   7.551  1.3057  0.0414  3.0256
   96CHL1  H15B 9530   6.882   3.624   7.540 -0.9528  1.2032  1.8049
   96CHL1   C16 9531   6.742   3.546   7.686 -0.6017 -0.1423  0.7659
   96CHL1  H16A 9532   6.758   3.447   7.735 -1.8865  0.0934  1.7173
   96CHL1  H16B 9533   6.781   3.624   7.754 -1.1285  0.3700  0.4889
   96CHL1   C17 9534   6.590   3.577   7.657 -0.5970  0.3635  0.8369
   96CHL1   H17 9535   6.574   3.686   7.642 -1.6346  0.1717  0.5052
   96CHL1   C13 9536   6.565   3.508   7.519 -0.4158  0.2758 -0.2871
   96CHL1   C18 9537   6.570   3.351   7.531 -0.1228  0.1301  0.2159
   96CHL1  H18A 9538   6.465   3.315   7.529  0.4683 -1.6804 -1.8240
   96CHL1  H18B 9539   6.624   3.316   7.441 -0.0158 -0.0822  0.3617
   96CHL1  H18C 9540   6.623   3.321   7.624 -1.3770  1.5471  1.4493
   96CHL1   C12 9541   6.444   3.555   7.439  0.3114  0.4545 -0.0789
   96CHL1  H12A 9542   6.358   3.500   7.482 -0.6652  1.0810 -1.1749
   96CHL1  H12B 9543   6.422   3.664   7.447  0.2805  0.4661 -0.3244
   96CHL1   C11 9544   6.461   3.518   7.285 -0.8713  0.1635 -0.1833
   96CHL1  H11A 9545   6.455   3.408   7.292 -1.1488  0.2309  0.7323
   96CHL1  H11B 9546   6.384   3.570   7.223 -0.9470  0.2431 -0.0226
   96CHL1    C9 9547   6.594   3.559   7.224  0.1796  0.6128 -0.7154
   96CHL1    H9 9548   6.595   3.669   7.233  2.0335  1.0890 -4.5460
   96CHL1   C10 9549   6.613   3.528   7.073 -0.3014 -0.4451 -0.1655
   96CHL1   C19 9550   6.571   3.379   7.043 -0.2031  0.1699  0.0943
   96CHL1  H19A 9551   6.462   3.372   7.066 -0.1670 -1.2322 -0.0829
   96CHL1  H19B 9552   6.570   3.347   6.937 -4.0964 -0.5707  0.1782
   96CHL1  H19C 9553   6.633   3.306   7.100  0.4061  0.6512  0.0514
   96CHL1    C1 9554   6.510   3.617   6.996 -0.1903 -0.2382  0.1823
   96CHL1   H1A 9555   6.406   3.580   7.006  0.0699 -1.1900 -0.4938
   96CHL1   H1B 9556   6.524   3.722   7.029 -1.7725 -0.0689  0.3824
   96CHL1    C2 9557   6.536   3.616   6.845 -0.5087 -0.6953  1.2143
   96CHL1   H2A 9558   6.484   3.699   6.794 -3.2343 -2.0890  1.5297
   96CHL1   H2B 9559   6.496   3.521   6.805 -2.0634  0.1361  0.7373
   96CHL1   C20 9560   6.495   3.544   7.775 -1.3168  0.0755  0.2925
   96CHL1   H20 9561   6.483   3.434   7.772  1.7080 -0.3286 -1.5981
   96CHL1   C21 9562   6.356   3.615   7.747 -0.2177  0.3944  0.1850
   96CHL1  H21A 9563   6.297   3.568   7.665 -1.6340  0.8110  0.9300
   96CHL1  H21B 9564   6.376   3.721   7.721 -1.0926  0.3630 -0.6656
   96CHL1  H21C 9565   6.302   3.611   7.844 -0.3635 -2.3326  0.0847
   96CHL1   C22 9566   6.556   3.578   7.916 -0.6907  0.4102  0.0059
   96CHL1  H22A 9567   6.655   3.528   7.913  1.2378  3.9223 -0.6268
   96CHL1  H22B 9568   6.570   3.688   7.920  0.9058  0.2132  0.7483
   96CHL1   C23 9569   6.490   3.535   8.042  0.1757  0.0054  0.3317
   96CHL1  H23A 9570   6.408   3.602   8.074 -1.2373 -1.7958  0.6652
   96CHL1  H23B 9571   6.459   3.428   8.040  1.0779 -0.2618  0.1392
   96CHL1   C24 9572   6.589   3.542   8.154 -0.2445  0.1409  0.0209
   96CHL1  H24A 9573   6.679   3.483   8.128 -1.5919 -2.0418  0.0468
   96CHL1  H24B 9574   6.625   3.646   8.162 -1.0828  0.4232  0.2609
   96CHL1   C25 9575   6.537   3.509   8.295 -0.4479  0.0341 -0.0657
   96CHL1   H25 9576   6.611   3.544   8.369  0.2378 -1.1541 -0.1678
   96CHL1   C26 9577   6.397   3.563   8.336  0.2549 -0.0890  0.2028
   96CHL1  H26A 9578   6.383   3.667   8.302  0.6411  0.2751  1.1117
   96CHL1  H26B 9579   6.320   3.503   8.283 -1.3374  0.7116  1.5234
   96CHL1  H26C 9580   6.379   3.544   8.444 -2.7833 -1.9340 -0.5070
   96CHL1   C27 9581   6.528   3.358   8.322 -0.6203  0.7661  0.3842
   96CHL1  H27A 9582   6.626   3.309   8.303 -1.5631 -1.5752  1.2321
   96CHL1  H27B 9583   6.509   3.342   8.430  0.4719  0.6864  0.5818
   96CHL1  H27C 9584   6.452   3.310   8.257 -0.7136  1.8039 -0.3011
   97OSM      N 9585   5.563   6.618  11.047  0.8496 -0.6978 -0.1358
   97OSM    C15 9586   5.704   6.586  11.028  0.3295  0.8219  0.4689
   97OSM   H15A 9587   5.716   6.505  10.957  0.6810  2.3411 -1.2796
   97OSM   H15B 9588   5.736   6.548  11.124 -0.3944 -0.4119  0.2458
   97OSM   H15C 9589   5.762   6.668  10.988 -0.8974  1.0214 -0.9683
   97OSM    C14 9590   5.516   6.498  11.117  0.5245  0.2917  0.1402
   97OSM   H14A 9591   5.526   6.508  11.224  1.2250 -2.7896  0.4543
   97OSM   H14B 9592   5.581   6.416  11.091  0.6029  0.5551 -0.5000
   97OSM   H14C 9593   5.416   6.461  11.101  0.5055 -0.3588  1.6289
   97OSM    C13 9594   5.547   6.730  11.141 -0.8816  0.0540  0.3445
   97OSM   H13A 9595   5.626   6.731  11.215  0.6405  0.9689 -1.1979
   97OSM   H13B 9596   5.455   6.737  11.197 -2.3744  0.7573 -2.0298
   97OSM   H13C 9597   5.559   6.822  11.086 -0.4159 -0.7599 -0.9632
   97OSM    C12 9598   5.477   6.627  10.916 -0.5639  0.1441  0.6387
   97OSM   H12A 9599   5.371   6.614  10.935 -0.1156 -1.2531  2.4225
   97OSM   H12B 9600   5.493   6.542  10.851 -0.5408  1.3136 -0.9513
   97OSM    C11 9601   5.513   6.744  10.818 -0.5607 -0.4855 -0.0363
   97OSM   H11A 9602   5.483   6.733  10.712  0.2972  0.2928 -0.3834
   97OSM   H11B 9603   5.624   6.752  10.812 -0.6547  0.2311 -1.2574
   97OSM      P 9604   5.540   7.000  10.887 -0.0869 -0.1774 -0.2106
   97OSM    O13 9605   5.436   7.098  10.900 -0.3971  0.0777 -0.1302
   97OSM    O14 9606   5.641   6.995  10.997 -0.8245  0.0984  0.0207
   97OSM    O11 9607   5.613   7.014  10.752 -0.1033  0.2310 -0.0056
   97OSM    O12 9608   5.470   6.864  10.875 -0.5653  0.1503 -0.4672
   97OSM    C1S 9609   5.537   7.056  10.635  0.4814  0.4173 -0.0257
   97OSM    H1S 9610   5.502   7.161  10.642  0.6868  0.4717  0.1941
   97OSM    H1T 9611   5.442   6.999  10.623  0.4108  0.9679 -2.7196
   97OSM     NF 9612   5.555   7.124  10.395 -0.3200 -0.0984 -0.4123
   97OSM    HNF 9613   5.520   7.070  10.318 -2.5392  0.4000  0.1887
   97OSM    C2S 9614   5.620   7.054  10.510 -0.4757  0.3933  0.6673
   97OSM    H2S 9615   5.710   7.113  10.534 -1.4681  2.2637  0.0180
   97OSM    C3S 9616   5.670   6.912  10.479  0.2473 -0.0191  0.0208
   97OSM    H3S 9617   5.586   6.841  10.465  1.5417 -1.1786 -2.5621
   97OSM     O3 9618   5.750   6.860  10.587 -0.0079  0.2492  0.4554
   97OSM    HO3 9619   5.741   6.926  10.657  0.5382  2.6364 -1.5702
   97OSM    C4S 9620   5.747   6.928  10.350  0.1748 -0.0079 -0.2553
   97OSM    H4S 9621   5.838   6.989  10.357  0.8236 -0.8629 -0.8839
   97OSM    C5S 9622   5.709   6.887  10.220  0.0128  0.2973 -0.0361
   97OSM    H5S 9623   5.614   6.832  10.207  0.2650  0.0560 -0.9081
   97OSM    C6S 9624   5.799   6.909  10.099 -0.6033 -0.1521 -0.2646
   97OSM    H6S 9625   5.890   6.965  10.128 -0.0457 -1.0259 -0.2974
   97OSM    H6T 9626   5.752   6.960  10.012 -0.4801  0.7774  0.1973
   97OSM    C7S 9627   5.844   6.767  10.053  0.1715 -0.3651  0.3632
   97OSM    H7S 9628   5.753   6.713  10.018 -1.5025  1.7205  1.2468
   97OSM    H7T 9629   5.889   6.718  10.142 -0.0306  3.1567  2.5649
   97OSM    C8S 9630   5.942   6.769   9.937 -0.7076 -0.1062 -1.1893
   97OSM    H8S 9631   5.980   6.672   9.898 -0.9972 -1.5315  1.7839
   97OSM    H8T 9632   6.027   6.833   9.969 -1.5795  1.7781 -2.4953
   97OSM    C9S 9633   5.905   6.842   9.807 -0.2591  0.4408 -0.4671
   97OSM    H9S 9634   5.894   6.951   9.825 -3.0646  0.2193 -0.3387
   97OSM    H9T 9635   5.801   6.833   9.768 -0.2363 -1.6938 -0.1218
   97OSM   C10S 9636   6.002   6.820   9.691 -0.5652 -0.2413  0.7203
   97OSM   H10S 9637   6.025   6.712   9.683  1.4712  0.2461 -1.2482
   97OSM   H10T 9638   6.096   6.873   9.720  1.2111 -2.8583  0.0974
   97OSM   C11S 9639   5.953   6.882   9.562 -0.2298  0.9660 -0.5972
   97OSM   H11S 9640   5.950   6.990   9.589 -0.2104  0.4602  1.5837
   97OSM   H11T 9641   5.853   6.841   9.535 -0.1970 -0.3251  1.0935
   97OSM   C12S 9642   6.043   6.862   9.435 -0.2373  0.4050  0.3814
   97OSM   H12S 9643   6.035   6.755   9.408 -1.6909  0.6179 -0.1141
   97OSM   H12T 9644   6.147   6.888   9.464  0.3390 -2.4524  1.2008
   97OSM   C13S 9645   5.985   6.935   9.309  0.1859 -0.4025  0.1930
   97OSM   H13S 9646   5.992   7.046   9.314  3.3593 -0.5237  1.0027
   97OSM   H13T 9647   5.882   6.907   9.280 -0.8979  3.2470  0.0890
   97OSM   C14S 9648   6.079   6.901   9.196 -0.0127  0.8688  0.0202
   97OSM   H14S 9649   6.065   6.794   9.168 -2.6986  1.5472 -1.5812
   97OSM   H14T 9650   6.186   6.905   9.227 -0.5904 -1.1068  2.6754
   97OSM   C15S 9651   6.077   7.001   9.076  0.0975 -0.8750  0.3598
   97OSM   H15S 9652   6.086   7.104   9.115  0.8336 -0.1985 -1.4650
   97OSM   H15T 9653   5.980   6.983   9.025  0.4499 -2.3294  0.1650
   97OSM   C16S 9654   6.186   6.976   8.973  0.2422  0.6554  0.1604
   97OSM   H16S 9655   6.164   6.871   8.944  3.4306 -0.0250 -0.1670
   97OSM   H16T 9656   6.286   6.981   9.021  0.5483 -2.3509  0.0258
   97OSM   C17S 9657   6.190   7.066   8.849  0.1399 -0.4838 -0.2984
   97OSM   H17S 9658   6.262   7.020   8.777  2.0035  0.6602  0.7337
   97OSM   H17T 9659   6.236   7.162   8.880 -0.1727 -0.9507  1.7321
   97OSM   C18S 9660   6.056   7.083   8.778  0.1276  0.3226 -0.1008
   97OSM   H18S 9661   5.978   7.138   8.835  0.0772  1.2535 -1.0257
   97OSM   H18T 9662   6.015   6.981   8.765 -2.2505  1.1067  0.7229
   97OSM   H18U 9663   6.063   7.125   8.675 -1.4910  3.2213  0.8507
   97OSM    C1F 9664   5.557   7.260  10.381  0.0062  0.4679  0.6331
   97OSM     OF 9665   5.562   7.339  10.469 -0.4548  0.2008  0.3117
   97OSM    C2F 9666   5.533   7.308  10.237  0.4862 -0.1395 -0.3377
   97OSM    H2F 9667   5.425   7.308  10.210 -0.2745 -3.9285  2.0081
   97OSM    H2G 9668   5.591   7.237  10.175 -1.3012 -0.3438 -1.8609
   97OSM    C3F 9669   5.606   7.442  10.221  0.3408 -0.2901  0.1206
   97OSM    H3F 9670   5.709   7.441  10.263  0.5368  3.0661 -0.0197
   97OSM    H3G 9671   5.551   7.528  10.263  0.7342 -0.1727  0.4041
   97OSM    C4F 9672   5.623   7.475  10.068  0.3452  0.4255  0.3836
   97OSM    H4F 9673   5.526   7.505  10.022  0.6201  0.2786 -0.3023
   97OSM    H4G 9674   5.663   7.392  10.006  0.4367  1.8877 -1.6448
   97OSM    C5F 9675   5.716   7.595  10.051  0.2190 -0.2092 -0.4861
   97OSM    H5F 9676   5.817   7.555  10.075  0.3979 -0.2515 -1.2915
   97OSM    H5G 9677   5.695   7.673  10.127 -0.8802  0.6424 -1.6299
   97OSM    C6F 9678   5.712   7.663   9.907 -0.4258  0.5546  0.4633
   97OSM    H6F 9679   5.777   7.752   9.892 -0.8708  0.8853  0.5067
   97OSM    H6G 9680   5.609   7.699   9.886 -1.1445 -1.0547  1.0492
   97OSM    C7F 9681   5.747   7.566   9.793 -0.0628 -0.3136 -0.3116
   97OSM    H7F 9682   5.662   7.496   9.774 -1.2695  1.3198 -1.2102
   97OSM    H7G 9683   5.832   7.504   9.827 -0.5548 -1.1631 -0.6027
   97OSM    C8F 9684   5.783   7.628   9.655 -0.6803 -1.2832 -0.3482
   97OSM    H8F 9685   5.795   7.547   9.580  0.2680 -0.6534 -0.8896
   97OSM    H8G 9686   5.878   7.685   9.657 -1.9810  1.2348  4.2175
   97OSM    C9F 9687   5.677   7.730   9.610 -0.3610  0.4238 -0.3896
   97OSM    H9F 9688   5.629   7.791   9.688 -2.3435 -0.5827 -0.7729
   97OSM   C10F 9689   5.653   7.772   9.482  0.3829 -0.0324 -0.5635
   97OSM   H10F 9690   5.573   7.846   9.468  1.6552  1.2534 -1.4081
   97OSM   C11F 9691   5.715   7.716   9.357  0.1321  0.1459  0.0783
   97OSM   H11F 9692   5.654   7.632   9.317 -0.8921  0.1229  1.6254
   97OSM   H11G 9693   5.815   7.671   9.376 -1.2881 -2.5981  1.5489
   97OSM   C12F 9694   5.716   7.806   9.232  0.8597 -0.2823 -0.2035
   97OSM   H12F 9695   5.759   7.901   9.269  0.4032 -1.4016  3.6104
   97OSM   H12G 9696   5.609   7.819   9.205  1.0809  1.4962 -0.2900
   97OSM   C13F 9697   5.796   7.754   9.112 -0.7735 -0.4743 -0.1765
   97OSM   H13F 9698   5.737   7.667   9.074 -1.4848  0.4143 -1.1835
   97OSM   H13G 9699   5.896   7.714   9.137  0.0918  1.0879 -0.9876
   97OSM   C14F 9700   5.819   7.856   9.003  0.2238 -0.2954  0.2542
   97OSM   H14F 9701   5.848   7.794   8.915 -0.4190 -2.0499  1.2258
   97OSM   H14G 9702   5.903   7.926   9.023 -0.1601  1.2440 -2.8795
   97OSM   C15F 9703   5.693   7.936   8.950 -0.1279  0.1050 -0.7515
   97OSM   H15F 9704   5.678   8.024   9.016  1.2258  0.0993 -0.3879
   97OSM   H15G 9705   5.612   7.861   8.945  0.1953 -0.3393  0.3169
   97OSM   C16F 9706   5.708   7.988   8.809  0.0080  0.0415  0.3602
   97OSM   H16F 9707   5.715   7.907   8.733 -1.7470 -1.4734  1.7206
   97OSM   H16G 9708   5.799   8.051   8.815  1.0399 -1.3478 -0.1854
   97OSM   C17F 9709   5.598   8.081   8.777  0.4926  0.9548  0.0606
   97OSM   H17F 9710   5.581   8.147   8.865 -0.9969  3.5319 -2.0133
   97OSM   H17G 9711   5.502   8.025   8.770  1.3205 -0.6686  1.0431
   97OSM   C18F 9712   5.618   8.157   8.650  0.9880 -0.2418 -0.0193
   97OSM   H18F 9713   5.647   8.098   8.561  3.1470 -2.5971  2.0764
   97OSM   H18G 9714   5.695   8.233   8.676  0.0688 -0.4188  3.8780
   97OSM   H18H 9715   5.527   8.213   8.621  2.0560  1.7229  0.2153
   98OSM      N 9716   3.919   5.675  10.816 -0.7546  0.3763  0.0849
   98OSM    C15 9717   3.822   5.567  10.784  0.4516 -0.0759  0.0183
   98OSM   H15A 9718   3.878   5.495  10.726  0.7860  0.2358 -0.0522
   98OSM   H15B 9719   3.750   5.616  10.720  1.8068  0.1563 -1.3933
   98OSM   H15C 9720   3.779   5.525  10.874  0.1896  1.0573  0.4369
   98OSM    C14 9721   3.862   5.778  10.906 -0.5777  0.2183  1.4688
   98OSM   H14A 9722   3.811   5.739  10.993  0.0555 -0.3278  1.6031
   98OSM   H14B 9723   3.795   5.835  10.844  1.1766 -0.8536 -1.6560
   98OSM   H14C 9724   3.942   5.842  10.941  0.7987 -0.0938 -0.9272
   98OSM    C13 9725   4.030   5.607  10.895  0.2209 -0.6598 -0.0506
   98OSM   H13A 9726   4.063   5.518  10.843 -0.2134 -0.0651 -1.3921
   98OSM   H13B 9727   3.991   5.578  10.991  0.3121 -0.2811  0.1014
   98OSM   H13C 9728   4.111   5.676  10.909 -2.2687  2.5522 -0.3143
   98OSM    C12 9729   3.970   5.749  10.694 -0.1151 -0.2122  0.5362
   98OSM   H12A 9730   4.030   5.682  10.633  2.7030  0.9075  1.9005
   98OSM   H12B 9731   4.041   5.828  10.713  0.5074 -0.1723 -1.6218
   98OSM    C11 9732   3.867   5.806  10.605 -0.1504 -0.3370  0.7019
   98OSM   H11A 9733   3.803   5.722  10.570  1.0774 -1.0675  0.1367
   98OSM   H11B 9734   3.916   5.840  10.512 -0.0855 -0.4634  0.6897
   98OSM      P 9735   3.830   6.065  10.680  0.1667  0.0899 -0.4681
   98OSM    O13 9736   3.719   6.144  10.739  0.6981 -0.2176 -0.3088
   98OSM    O14 9737   3.956   6.068  10.758  0.1942 -0.4467 -0.4186
   98OSM    O11 9738   3.860   6.124  10.534  0.3569 -0.4984  0.1030
   98OSM    O12 9739   3.788   5.911  10.659 -0.0101  0.0935 -0.1036
   98OSM    C1S 9740   3.788   6.089  10.411 -0.5461 -0.5678  0.1515
   98OSM    H1S 9741   3.696   6.148  10.396 -0.5651 -0.0595  2.0662
   98OSM    H1T 9742   3.746   5.987  10.424 -0.7211 -0.6480 -0.9865
   98OSM     NF 9743   3.786   6.035  10.178 -0.6089 -0.1352 -0.7170
   98OSM    HNF 9744   3.811   5.939  10.168 -0.3008 -0.0628 -0.6683
   98OSM    C2S 9745   3.866   6.104  10.282 -0.9760  0.9489 -0.2547
   98OSM    H2S 9746   3.886   6.210  10.256 -0.6052  1.0634  0.4832
   98OSM    C3S 9747   4.016   6.039  10.305  0.1870 -1.2389  0.5785
   98OSM    H3S 9748   4.007   5.929  10.319  1.2902 -1.4969 -0.5668
   98OSM     O3 9749   4.087   6.090  10.418  0.6801  0.0140  0.5222
   98OSM    HO3 9750   4.022   6.101  10.488  2.7170  0.2213  2.5027
   98OSM    C4S 9751   4.109   6.060  10.191 -0.5195  0.5431  0.1012
   98OSM    H4S 9752   4.135   6.165  10.171  2.1722  0.2555  1.5863
   98OSM    C5S 9753   4.169   5.962  10.116 -0.3925 -0.1667  0.1350
   98OSM    H5S 9754   4.134   5.861  10.142  1.4372 -0.9075 -0.1543
   98OSM    C6S 9755   4.263   5.984   9.998  0.8268  0.5558  0.1018
   98OSM    H6S 9756   4.209   5.981   9.900  2.8299 -2.0047 -1.0409
   98OSM    H6T 9757   4.338   5.902   9.997  0.4021  0.0667  2.5640
   98OSM    C7S 9758   4.346   6.114  10.002  0.7077  0.1038  0.0652
   98OSM    H7S 9759   4.413   6.121  10.090  0.9177  0.2621 -0.1065
   98OSM    H7T 9760   4.267   6.191  10.017  0.0357 -0.5579  0.0119
   98OSM    C8S 9761   4.434   6.136   9.870  0.1916  0.5359 -0.2078
   98OSM    H8S 9762   4.507   6.053   9.858 -0.7266 -0.1555 -1.1507
   98OSM    H8T 9763   4.493   6.230   9.883 -1.4914  1.8508 -1.4928
   98OSM    C9S 9764   4.355   6.145   9.738  0.1343  0.5932 -0.7813
   98OSM    H9S 9765   4.292   6.236   9.744 -0.7225  0.0734 -1.5478
   98OSM    H9T 9766   4.295   6.052   9.724  1.0451 -0.3317  1.0658
   98OSM   C10S 9767   4.439   6.168   9.615  0.0695 -0.3915 -0.1333
   98OSM   H10S 9768   4.517   6.090   9.604 -0.1422 -0.5181 -0.7844
   98OSM   H10T 9769   4.496   6.262   9.633  1.2868 -1.1080 -0.1285
   98OSM   C11S 9770   4.355   6.186   9.483  1.0808 -0.1058  0.4887
   98OSM   H11S 9771   4.268   6.248   9.513 -1.6908 -2.1681 -2.5266
   98OSM   H11T 9772   4.312   6.091   9.443  0.0945  0.5620 -0.0574
   98OSM   C12S 9773   4.419   6.253   9.365  0.0930  0.0687 -0.1640
   98OSM   H12S 9774   4.504   6.195   9.326  1.6181  2.2431 -0.2738
   98OSM   H12T 9775   4.449   6.354   9.402 -2.3206  0.9160 -0.2847
   98OSM   C13S 9776   4.321   6.276   9.248  0.2193  0.0302 -0.5670
   98OSM   H13S 9777   4.240   6.348   9.272 -0.2781 -0.6597 -0.1407
   98OSM   H13T 9778   4.286   6.179   9.209  1.9450 -1.2216  0.8357
   98OSM   C14S 9779   4.402   6.327   9.131 -0.2741 -0.0739  0.4688
   98OSM   H14S 9780   4.504   6.284   9.130 -0.2206  0.0483  0.6160
   98OSM   H14T 9781   4.413   6.436   9.145 -1.0919 -0.0980  1.4042
   98OSM   C15S 9782   4.338   6.306   8.993 -0.4945  0.0009  0.5630
   98OSM   H15S 9783   4.228   6.307   9.010 -0.4221 -0.1180  1.0651
   98OSM   H15T 9784   4.372   6.206   8.958  1.2883  1.6041 -2.7031
   98OSM   C16S 9785   4.383   6.395   8.878  0.2162 -0.3300  0.4005
   98OSM   H16S 9786   4.493   6.411   8.880  0.0552  1.0969 -0.4238
   98OSM   H16T 9787   4.348   6.496   8.907 -0.7915 -1.2238  2.4651
   98OSM   C17S 9788   4.335   6.358   8.743 -0.1827 -0.0056 -0.1638
   98OSM   H17S 9789   4.224   6.365   8.743 -0.2905 -1.3652  0.8094
   98OSM   H17T 9790   4.373   6.257   8.716 -0.6091 -0.3846  0.6253
   98OSM   C18S 9791   4.391   6.463   8.643 -0.1690 -1.0044 -0.6789
   98OSM   H18S 9792   4.498   6.479   8.669  0.8573 -3.3573 -3.0474
   98OSM   H18T 9793   4.340   6.560   8.664  2.2025  0.2358 -0.2446
   98OSM   H18U 9794   4.372   6.444   8.536 -0.9492 -2.5774 -0.2934
   98OSM    C1F 9795   3.671   6.074  10.137 -0.9171 -0.3186  0.6688
   98OSM     OF 9796   3.650   6.195  10.146 -0.1419  0.3596  0.2476
   98OSM    C2F 9797   3.570   5.972  10.080 -0.1536  0.3244  0.1632
   98OSM    H2F 9798   3.498   5.945  10.160 -1.4422  0.3760 -0.9587
   98OSM    H2G 9799   3.627   5.887  10.036  1.2591  1.6218 -0.6201
   98OSM    C3F 9800   3.487   6.035   9.959 -0.0465  0.3461 -0.6182
   98OSM    H3F 9801   3.554   6.056   9.874  0.0811 -0.0704 -0.6250
   98OSM    H3G 9802   3.452   6.135   9.992  0.6815  1.1563 -2.2140
   98OSM    C4F 9803   3.371   5.949   9.900  0.2788 -0.1432  0.0696
   98OSM    H4F 9804   3.412   5.854   9.859  1.5858  1.0299 -1.4659
   98OSM    H4G 9805   3.329   6.003   9.812 -0.0002 -0.6701 -0.1266
   98OSM    C5F 9806   3.257   5.917   9.998 -0.3889  0.0194 -0.0466
   98OSM    H5F 9807   3.228   6.018  10.035 -1.1520  0.4217 -1.6295
   98OSM    H5G 9808   3.286   5.839  10.071  0.9085  1.2147  0.7663
   98OSM    C6F 9809   3.138   5.854   9.926  0.5995 -0.0752  0.1423
   98OSM    H6F 9810   3.050   5.854   9.994 -0.5696 -1.5721 -1.2948
   98OSM    H6G 9811   3.147   5.748   9.893 -2.4540  0.2588 -2.2722
   98OSM    C7F 9812   3.081   5.920   9.801 -1.0152 -0.5597  0.2042
   98OSM    H7F 9813   3.160   5.957   9.732 -2.5880  1.6032 -0.5495
   98OSM    H7G 9814   3.026   6.011   9.831 -0.0653  0.6614 -1.5479
   98OSM    C8F 9815   2.972   5.823   9.741 -0.8613  0.0785  0.4232
   98OSM    H8F 9816   2.879   5.820   9.802 -2.1839 -0.1018 -1.5252
   98OSM    H8G 9817   3.013   5.720   9.736  0.3115  0.5022  0.9072
   98OSM    C9F 9818   2.938   5.881   9.604  0.0968 -0.0538  0.2796
   98OSM    H9F 9819   2.862   5.960   9.606  0.1870  0.2304 -2.5420
   98OSM   C10F 9820   2.995   5.842   9.489  0.4785 -0.2667 -0.6729
   98OSM   H10F 9821   2.961   5.886   9.394  1.3227  0.4162 -0.6601
   98OSM   C11F 9822   3.105   5.742   9.469 -0.3372  0.6998  0.0473
   98OSM   H11F 9823   3.196   5.755   9.532  0.7783 -1.7503 -0.9001
   98OSM   H11G 9824   3.141   5.751   9.364  1.6221 -0.1684  0.5967
   98OSM   C12F 9825   3.069   5.594   9.487  0.4649  0.4697 -0.3214
   98OSM   H12F 9826   3.038   5.569   9.591  1.1064  0.0334 -0.2276
   98OSM   H12G 9827   3.152   5.524   9.463 -0.7204 -0.9112 -0.4971
   98OSM   C13F 9828   2.958   5.559   9.395 -0.2000 -0.3008 -0.6058
   98OSM   H13F 9829   2.990   5.559   9.288  2.9575 -0.6120  0.2260
   98OSM   H13G 9830   2.869   5.622   9.414  0.6674  0.1426  2.4496
   98OSM   C14F 9831   2.926   5.406   9.420 -0.4639  0.1189 -0.1252
   98OSM   H14F 9832   2.928   5.380   9.528  2.3970 -0.0983 -0.1562
   98OSM   H14G 9833   3.002   5.343   9.369 -0.0388  0.2897  0.2927
   98OSM   C15F 9834   2.789   5.361   9.369 -0.3551  0.2425 -0.7787
   98OSM   H15F 9835   2.705   5.426   9.401  0.4759  1.5842 -1.2066
   98OSM   H15G 9836   2.771   5.256   9.400  2.0239 -0.1170 -0.4199
   98OSM   C16F 9837   2.784   5.340   9.212 -0.2650 -0.0369  0.3460
   98OSM   H16F 9838   2.862   5.263   9.192 -0.4289 -0.0301 -0.3132
   98OSM   H16G 9839   2.797   5.432   9.152 -0.7185 -1.2665 -1.7357
   98OSM   C17F 9840   2.649   5.274   9.166  0.1318 -0.4267  0.0867
   98OSM   H17F 9841   2.568   5.335   9.209  1.1220 -0.0466  1.4808
   98OSM   H17G 9842   2.639   5.165   9.186 -0.4561 -0.2989  0.5079
   98OSM   C18F 9843   2.628   5.285   9.014  1.0600 -0.2831  0.0619
   98OSM   H18F 9844   2.693   5.204   8.975 -1.0925 -2.1562  0.1077
   98OSM   H18G 9845   2.659   5.385   8.978 -1.0495  0.7020  0.8053
   98OSM   H18H 9846   2.525   5.254   8.983  1.9339 -2.6759 -0.6915
   99OSM      N 9847   0.063   6.852  10.899 -0.8567 -0.5605  0.3232
   99OSM    C15 9848   0.022   6.707  10.910 -0.1457 -0.3866  0.7338
   99OSM   H15A 9849   0.075   6.664  10.993  1.4422  3.4141  1.9210
   99OSM   H15B 9850   0.051   6.655  10.820 -0.6759 -0.6988  0.7391
   99OSM   H15C 9851  -0.085   6.700  10.919 -0.5037  2.5864 -0.0703
   99OSM    C14 9852   0.061   6.916  11.031  0.0847 -0.4480  0.1906
   99OSM   H14A 9853   0.141   6.902  11.102  0.1071  1.4667  0.6131
   99OSM   H14B 9854  -0.032   6.891  11.081  0.9429  0.7170  2.5395
   99OSM   H14C 9855   0.044   7.022  11.021 -0.2445 -0.3368  1.6610
   99OSM    C13 9856   0.202   6.860  10.842  0.0192 -0.0807 -0.4833
   99OSM   H13A 9857   0.204   6.818  10.743  0.7701 -1.0665 -0.0629
   99OSM   H13B 9858   0.274   6.816  10.910  0.8654  0.3637 -1.0650
   99OSM   H13C 9859   0.228   6.965  10.837 -0.9078  0.2462  0.9345
   99OSM    C12 9860  -0.044   6.918  10.806 -0.5470 -0.4986 -0.2594
   99OSM   H12A 9861  -0.022   7.024  10.806  0.0772 -0.5840  1.3627
   99OSM   H12B 9862  -0.138   6.907  10.858 -1.4904 -1.0198 -1.9956
   99OSM    C11 9863  -0.057   6.882  10.659  0.5117  0.4003 -0.7684
   99OSM   H11A 9864  -0.140   6.933  10.605 -1.0440  2.8935  3.5090
   99OSM   H11B 9865  -0.084   6.774  10.663 -0.6371  0.6771  2.9870
   99OSM      P 9866   0.107   7.039  10.543  0.2427  0.3487  0.0042
   99OSM    O13 9867   0.026   7.148  10.601 -1.0169  0.2916  0.2550
   99OSM    O14 9868   0.254   7.053  10.554 -0.5543 -0.4612  0.3524
   99OSM    O11 9869   0.084   7.024  10.391  0.1961  0.0452  0.7257
   99OSM    O12 9870   0.067   6.896  10.593 -0.3818 -0.4248 -0.1667
   99OSM    C1S 9871  -0.035   6.980  10.328 -0.3878  0.2229 -0.6335
   99OSM    H1S 9872  -0.106   7.065  10.336 -0.5472  0.3678 -2.8960
   99OSM    H1T 9873  -0.084   6.903  10.391 -0.8189  0.7432 -0.3122
   99OSM     NF 9874  -0.145   6.900  10.112 -0.0909  0.3699  0.0280
   99OSM    HNF 9875  -0.176   6.805  10.102 -0.4857  0.3979  0.8947
   99OSM    C2S 9876  -0.022   6.931  10.179 -0.5657 -1.1748 -0.6068
   99OSM    H2S 9877   0.027   7.016  10.127 -0.0295 -2.0227 -1.4957
   99OSM    C3S 9878   0.083   6.820  10.178 -0.0393  0.2227 -0.3384
   99OSM    H3S 9879   0.056   6.745  10.255  1.2179  1.1039  1.0167
   99OSM     O3 9880   0.212   6.862  10.213  0.0031 -0.4042  0.2843
   99OSM    HO3 9881   0.194   6.952  10.241  1.5867 -0.4440  1.5136
   99OSM    C4S 9882   0.079   6.766  10.042  0.2735 -0.3514 -0.5087
   99OSM    H4S 9883   0.150   6.825   9.982  1.0329  1.3914  1.9565
   99OSM    C5S 9884   0.019   6.660   9.993 -0.2633  0.3356  0.6727
   99OSM    H5S 9885  -0.044   6.593  10.054  0.3969 -2.4514 -1.5013
   99OSM    C6S 9886   0.032   6.599   9.854 -0.0263 -0.7825 -0.1572
   99OSM    H6S 9887  -0.067   6.607   9.804 -0.5239 -0.7243  0.8018
   99OSM    H6T 9888   0.054   6.492   9.872 -0.9089 -1.0903 -0.8642
   99OSM    C7S 9889   0.136   6.654   9.755  0.3934  0.1954 -0.0504
   99OSM    H7S 9890   0.240   6.647   9.796  1.1742  1.4479 -1.6955
   99OSM    H7T 9891   0.112   6.763   9.755 -0.5902 -0.0058 -1.3459
   99OSM    C8S 9892   0.102   6.599   9.618  0.0182  0.5841  0.3986
   99OSM    H8S 9893  -0.006   6.578   9.607 -0.3560  2.4493  0.2063
   99OSM    H8T 9894   0.147   6.499   9.599 -2.5322 -0.9437  1.8377
   99OSM    C9S 9895   0.151   6.689   9.496 -0.0402  0.3105  0.2779
   99OSM    H9S 9896   0.260   6.695   9.514 -0.3845  0.4621  2.5757
   99OSM    H9T 9897   0.107   6.791   9.499 -1.1615 -0.1764  1.2157
   99OSM   C10S 9898   0.129   6.626   9.360 -0.2765  0.2508 -0.8132
   99OSM   H10S 9899   0.021   6.621   9.333 -0.2211 -0.1305 -0.9801
   99OSM   H10T 9900   0.174   6.524   9.356  0.4972  0.5577 -0.1954
   99OSM   C11S 9901   0.202   6.699   9.243  0.2333  0.6425  0.3127
   99OSM   H11S 9902   0.300   6.733   9.283  0.3222  0.7175  0.0276
   99OSM   H11T 9903   0.144   6.794   9.234 -2.0427 -0.7464 -0.4877
   99OSM   C12S 9904   0.207   6.614   9.125 -1.3823  0.1407 -0.8310
   99OSM   H12S 9905   0.297   6.551   9.137 -0.3785  1.2693 -2.1021
   99OSM   H12T 9906   0.119   6.550   9.100 -0.9903 -0.8127  0.1714
   99OSM   C13S 9907   0.227   6.698   8.999  0.1865  0.2698 -0.5617
   99OSM   H13S 9908   0.331   6.735   8.996  1.0929 -1.9549  0.5206
   99OSM   H13T 9909   0.149   6.777   9.006 -1.8649 -1.5117 -1.9689
   99OSM   C14S 9910   0.204   6.612   8.872 -0.4617 -0.4704 -0.1614
   99OSM   H14S 9911   0.105   6.562   8.880  0.3609 -2.4540 -1.7084
   99OSM   H14T 9912   0.275   6.528   8.870  2.1022  1.5751 -0.5250
   99OSM   C15S 9913   0.219   6.702   8.745 -1.0720  0.2315  0.2404
   99OSM   H15S 9914   0.328   6.721   8.729 -1.0654  1.5339  1.5681
   99OSM   H15T 9915   0.174   6.803   8.754  3.1833  2.5843 -1.7953
   99OSM   C16S 9916   0.157   6.639   8.622  0.1060 -0.0492 -0.4897
   99OSM   H16S 9917   0.046   6.638   8.626 -0.0760 -1.8392 -3.2530
   99OSM   H16T 9918   0.189   6.533   8.619  0.0750 -0.1309  1.3594
   99OSM   C17S 9919   0.197   6.710   8.489 -0.1144 -0.7425 -0.0561
   99OSM   H17S 9920   0.221   6.637   8.409  0.9523 -0.8141  0.3010
   99OSM   H17T 9921   0.294   6.758   8.516 -0.7937  0.1741  0.7872
   99OSM   C18S 9922   0.091   6.802   8.437  0.8618  0.2797  0.2221
   99OSM   H18S 9923  -0.006   6.748   8.436  0.4139  0.8345  3.1335
   99OSM   H18T 9924   0.111   6.841   8.335 -0.3661  2.5488  0.7757
   99OSM   H18U 9925   0.083   6.896   8.496  0.0274 -0.4199  1.2690
   99OSM    C1F 9926  -0.234   6.994  10.085  0.2237  0.0631  0.1126
   99OSM     OF 9927  -0.205   7.118  10.106  0.2087  0.8126  0.4091
   99OSM    C2F 9928  -0.373   6.955  10.040 -0.3567  0.3899 -1.1498
   99OSM    H2F 9929  -0.448   6.981  10.117  1.6731 -0.9503  1.4244
   99OSM    H2G 9930  -0.366   6.845  10.033 -0.0006  0.2586  0.7573
   99OSM    C3F 9931  -0.429   7.022   9.914  0.4888  0.2626 -0.8817
   99OSM    H3F 9932  -0.531   6.981   9.900  1.1054 -1.5265 -0.3147
   99OSM    H3G 9933  -0.439   7.133   9.915  0.6416  0.2869  1.2326
   99OSM    C4F 9934  -0.351   6.987   9.787  0.2368  0.3970 -0.3982
   99OSM    H4F 9935  -0.245   7.018   9.784 -0.1603  2.0196  0.6592
   99OSM    H4G 9936  -0.402   7.032   9.699  0.6391  2.6505  0.4448
   99OSM    C5F 9937  -0.369   6.833   9.763  0.1561 -0.1155 -0.2623
   99OSM    H5F 9938  -0.478   6.814   9.772 -0.6251  3.0845 -1.4750
   99OSM    H5G 9939  -0.314   6.764   9.831 -1.5243 -2.9610 -1.6108
   99OSM    C6F 9940  -0.322   6.795   9.626 -0.4696  0.0507  0.0133
   99OSM    H6F 9941  -0.326   6.684   9.621 -1.1786 -0.0802  2.3122
   99OSM    H6G 9942  -0.219   6.835   9.618 -0.7408  0.6594 -0.4488
   99OSM    C7F 9943  -0.409   6.844   9.506 -0.7411  0.1813  0.3443
   99OSM    H7F 9944  -0.428   6.953   9.519  0.3865  0.8605 -2.7563
   99OSM    H7G 9945  -0.506   6.795   9.524 -0.4206 -0.3164  0.7379
   99OSM    C8F 9946  -0.364   6.806   9.360  0.5566  0.2987  0.0941
   99OSM    H8F 9947  -0.440   6.837   9.286  0.8965 -0.6582 -0.6757
   99OSM    H8G 9948  -0.344   6.698   9.340 -2.7186 -0.2617 -0.7095
   99OSM    C9F 9949  -0.242   6.880   9.325 -0.4538  0.3598  0.5397
   99OSM    H9F 9950  -0.215   6.960   9.395 -0.3678 -1.8591  3.2015
   99OSM   C10F 9951  -0.151   6.848   9.227  0.3874  0.3887  0.0709
   99OSM   H10F 9952  -0.068   6.915   9.199  3.1204 -2.6576  0.2309
   99OSM   C11F 9953  -0.165   6.730   9.131 -0.5552 -1.2358 -0.1518
   99OSM   H11F 9954  -0.227   6.645   9.168  1.8554 -3.8480 -1.7580
   99OSM   H11G 9955  -0.068   6.681   9.109  0.8196  0.6588  1.4056
   99OSM   C12F 9956  -0.217   6.782   8.990 -0.6992 -0.6200 -0.6896
   99OSM   H12F 9957  -0.155   6.868   8.955 -1.3138 -0.3645 -1.1725
   99OSM   H12G 9958  -0.318   6.824   9.011 -0.1661  0.7539 -0.7255
   99OSM   C13F 9959  -0.213   6.676   8.874 -0.6522 -0.3983 -0.1807
   99OSM   H13F 9960  -0.273   6.590   8.910  1.0869 -0.9650  1.5757
   99OSM   H13G 9961  -0.105   6.649   8.871 -0.7260 -0.6577 -0.4733
   99OSM   C14F 9962  -0.259   6.715   8.732  0.2497 -0.8154  0.1123
   99OSM   H14F 9963  -0.240   6.631   8.662  2.4450 -0.4010  0.1475
   99OSM   H14G 9964  -0.192   6.790   8.686 -2.2482  0.3085 -1.9289
   99OSM   C15F 9965  -0.411   6.756   8.721 -0.3866 -0.8465  0.3175
   99OSM   H15F 9966  -0.427   6.791   8.617 -1.6086  3.1964  1.6594
   99OSM   H15G 9967  -0.436   6.845   8.782 -0.7996 -0.6053 -0.1959
   99OSM   C16F 9968  -0.507   6.643   8.744 -0.2180 -0.4497 -0.3918
   99OSM   H16F 9969  -0.523   6.612   8.850  1.5343 -2.4246 -0.6524
   99OSM   H16G 9970  -0.471   6.556   8.686 -0.2435 -1.6770  1.3583
   99OSM   C17F 9971  -0.655   6.684   8.694  0.2228  1.4294 -0.1401
   99OSM   H17F 9972  -0.647   6.703   8.585 -1.6545  1.4726 -0.3038
   99OSM   H17G 9973  -0.677   6.782   8.743  0.0956  1.5070 -0.3531
   99OSM   C18F 9974  -0.768   6.577   8.729  0.0240 -0.6237  0.8172
   99OSM   H18F 9975  -0.868   6.601   8.686  0.5011 -1.5017 -0.8591
   99OSM   H18G 9976  -0.766   6.569   8.840  1.5896  1.5371  1.0147
   99OSM   H18H 9977  -0.737   6.479   8.687  1.7027 -0.5094  1.7135
  100OSM      N 9978   1.684   6.734  10.950  0.4786 -0.0643 -0.2167
  100OSM    C15 9979   1.626   6.836  11.049  1.0765  0.7378 -0.4010
  100OSM   H15A 9980   1.519   6.834  11.035  0.9602  1.9228  0.1422
  100OSM   H15B 9981   1.667   6.935  11.031 -1.2998  1.7936 -0.4469
  100OSM   H15C 9982   1.634   6.799  11.150  0.4797  2.5735  0.3765
  100OSM    C14 9983   1.725   6.807  10.832 -0.3391  0.1956  0.1505
  100OSM   H14A 9984   1.653   6.882  10.803  1.6775  1.6162 -1.5373
  100OSM   H14B 9985   1.733   6.740  10.748 -1.5735  2.2024 -1.6771
  100OSM   H14C 9986   1.820   6.854  10.852 -0.2164  1.4704 -2.8613
  100OSM    C13 9987   1.804   6.663  11.014  0.1474  0.3840  0.8778
  100OSM   H13A 9988   1.772   6.620  11.107  1.9289 -0.3852  1.1870
  100OSM   H13B 9989   1.883   6.732  11.041  3.5682 -2.3248 -1.3427
  100OSM   H13C 9990   1.858   6.595  10.949  2.8381  2.8430  0.2821
  100OSM    C12 9991   1.584   6.629  10.914 -0.4637  0.5562 -0.4282
  100OSM   H12A 9992   1.489   6.671  10.883 -1.4049 -0.7642  0.5474
  100OSM   H12B 9993   1.555   6.575  11.002  1.4913  1.2565  0.7072
  100OSM    C11 9994   1.624   6.527  10.805  0.2925 -0.5412 -0.6548
  100OSM   H11A 9995   1.548   6.446  10.805 -1.5893  1.0981  0.9154
  100OSM   H11B 9996   1.713   6.478  10.850  0.9074  0.5897 -0.5936
  100OSM      P 9997   1.553   6.607  10.567  0.1265  0.4361  0.2088
  100OSM    O13 9998   1.462   6.485  10.580  0.1912  0.3222 -0.0961
  100OSM    O14 9999   1.492   6.741  10.587  0.0873 -0.2534  0.4613
  100OSM    O1110000   1.636   6.600  10.432 -0.0398 -0.1102  0.0960
  100OSM    O1210001   1.654   6.589  10.679 -0.7095  0.3620 -0.0932
  100OSM    C1S10002   1.625   6.479  10.350 -0.0989 -0.6303 -0.1219
  100OSM    H1S10003   1.530   6.421  10.355 -0.0641 -0.6502  0.3185
  100OSM    H1T10004   1.695   6.401  10.386  0.6786  0.0777 -0.0712
  100OSM     NF10005   1.611   6.424  10.103  0.1950 -0.6455  0.3453
  100OSM    HNF10006   1.668   6.345  10.081 -0.6975 -1.0142 -0.7253
  100OSM    C2S10007   1.661   6.524  10.202  0.1390  0.0968 -0.3367
  100OSM    H2S10008   1.606   6.619  10.184  2.2905  1.1277 -1.7961
  100OSM    C3S10009   1.813   6.553  10.203 -0.3805  0.2710  0.2687
  100OSM    H3S10010   1.866   6.455  10.209  2.5165  1.6793 -0.4624
  100OSM     O310011   1.865   6.632  10.305 -0.5430  0.1775  0.2601
  100OSM    HO310012   1.786   6.635  10.360  0.0998 -1.4703  1.3681
  100OSM    C4S10013   1.850   6.607  10.066  0.2932  0.7438 -0.2365
  100OSM    H4S10014   1.883   6.529   9.996 -2.0016 -0.4990 -0.0454
  100OSM    C5S10015   1.851   6.735  10.026  0.2015 -0.6978 -0.2059
  100OSM    H5S10016   1.820   6.813  10.097  0.6611 -1.5107  0.9313
  100OSM    C6S10017   1.900   6.792   9.891 -0.4468 -0.0820  0.3317
  100OSM    H6S10018   2.000   6.833   9.915 -0.0878 -1.1621  0.7319
  100OSM    H6T10019   1.837   6.880   9.864 -1.5736 -0.9427  0.0936
  100OSM    C7S10020   1.918   6.681   9.780 -0.5607 -0.2507  0.5049
  100OSM    H7S10021   1.821   6.630   9.764  0.1851 -0.9986 -2.2520
  100OSM    H7T10022   1.997   6.610   9.814  0.5298  1.5385  1.8830
  100OSM    C8S10023   1.959   6.744   9.644 -0.1384  0.7542 -0.5962
  100OSM    H8S10024   2.061   6.784   9.665 -0.2764  0.7100  0.1885
  100OSM    H8T10025   1.891   6.822   9.606 -0.1741 -0.4751 -3.2740
  100OSM    C9S10026   1.960   6.634   9.541  0.0304 -0.3359  0.1346
  100OSM    H9S10027   1.863   6.581   9.542  0.8515 -2.0290 -2.0186
  100OSM    H9T10028   2.033   6.554   9.565  0.8579  0.1962 -0.5435
  100OSM   C10S10029   1.969   6.682   9.401  0.8213 -0.1098  0.3262
  100OSM   H10S10030   2.076   6.693   9.372  0.6896  1.1462  0.2632
  100OSM   H10T10031   1.925   6.782   9.381 -0.8312 -0.7817  0.4629
  100OSM   C11S10032   1.912   6.579   9.298 -0.4284 -0.3622 -0.1654
  100OSM   H11S10033   1.901   6.622   9.196 -0.0932  0.0824 -0.0163
  100OSM   H11T10034   1.810   6.563   9.339 -0.1901 -0.6101  0.3400
  100OSM   C12S10035   1.995   6.446   9.268 -0.3285 -0.4661  0.2345
  100OSM   H12S10036   1.929   6.357   9.277 -0.0025 -0.7103  0.2049
  100OSM   H12T10037   2.074   6.439   9.346  2.1078  0.2660 -2.0294
  100OSM   C13S10038   2.073   6.439   9.144  0.1921 -0.2914  0.8104
  100OSM   H13S10039   2.143   6.353   9.150 -1.6253 -1.7949  1.8940
  100OSM   H13T10040   2.127   6.533   9.121 -1.9015  0.3901 -1.8440
  100OSM   C14S10041   1.989   6.402   9.024 -0.8409 -0.5689  0.6876
  100OSM   H14S10042   2.039   6.441   8.933  0.4019  0.3136  1.7175
  100OSM   H14T10043   1.893   6.458   9.022 -0.5935 -0.1395 -1.6242
  100OSM   C15S10044   1.966   6.254   9.009  0.6345 -0.5516  0.0711
  100OSM   H15S10045   1.906   6.222   9.097 -2.2059  0.6134 -1.3158
  100OSM   H15T10046   2.061   6.198   8.995  1.6829  1.5838 -1.9095
  100OSM   C16S10047   1.875   6.216   8.888 -0.0325 -0.3488  0.0639
  100OSM   H16S10048   1.920   6.263   8.797 -1.2304 -1.5111 -1.1550
  100OSM   H16T10049   1.770   6.249   8.904 -0.2707 -0.8291 -0.5069
  100OSM   C17S10050   1.874   6.058   8.866  0.5115  0.7949 -0.3588
  100OSM   H17S10051   1.810   6.018   8.948  1.3061  2.2918  1.0598
  100OSM   H17T10052   1.977   6.016   8.870 -0.3587 -1.4642 -0.5973
  100OSM   C18S10053   1.820   6.002   8.727 -0.7651 -0.1489  0.3770
  100OSM   H18S10054   1.732   6.061   8.696 -1.5287  0.0735  2.7567
  100OSM   H18T10055   1.791   5.895   8.743  0.3035 -0.5383 -0.1788
  100OSM   H18U10056   1.901   6.015   8.652 -0.3475 -0.5807  0.7369
  100OSM    C1F10057   1.480   6.422  10.083  0.4387  0.0319 -0.2410
  100OSM     OF10058   1.403   6.502  10.128  0.0816  0.4132  0.0790
  100OSM    C2F10059   1.425   6.308  10.008 -0.1164 -0.1808  0.1485
  100OSM    H2F10060   1.450   6.213  10.059 -2.6959 -0.8894  0.2083
  100OSM    H2G10061   1.473   6.310   9.908 -0.8242  1.8926 -0.2094
  100OSM    C3F10062   1.275   6.318  10.000  0.0602 -0.0973  0.1098
  100OSM    H3F10063   1.242   6.413   9.954 -1.1747 -0.2725  0.5989
  100OSM    H3G10064   1.243   6.305  10.106  1.5953 -0.6375  0.5281
  100OSM    C4F10065   1.203   6.200   9.924  0.5034 -0.0351 -0.2754
  100OSM    H4F10066   1.100   6.234   9.944  0.6364  1.7079 -2.1680
  100OSM    H4G10067   1.218   6.103   9.976 -1.3796 -0.8396 -1.1614
  100OSM    C5F10068   1.226   6.197   9.775 -0.0361  0.5410  0.0769
  100OSM    H5F10069   1.181   6.100   9.745 -1.2934  1.2562 -0.4276
  100OSM    H5G10070   1.334   6.180   9.758 -0.6136 -2.6444 -0.9437
  100OSM    C6F10071   1.160   6.311   9.691  0.7865 -1.5753  0.3127
  100OSM    H6F10072   1.206   6.408   9.719  3.2779 -2.9942  1.5419
  100OSM    H6G10073   1.049   6.304   9.697  0.4697  0.2347 -2.0873
  100OSM    C7F10074   1.183   6.282   9.539 -0.0275 -0.3217 -0.3659
  100OSM    H7F10075   1.270   6.213   9.542  1.5358  1.5732 -0.3575
  100OSM    H7G10076   1.227   6.370   9.487  0.5524 -0.5485 -0.2724
  100OSM    C8F10077   1.062   6.222   9.464  0.6861  0.6559  0.6680
  100OSM    H8F10078   1.083   6.212   9.356 -1.1284 -3.2767  0.4814
  100OSM    H8G10079   0.980   6.296   9.466 -2.5552 -2.5242 -1.5352
  100OSM    C9F10080   1.019   6.088   9.521 -0.9618 -0.3773  0.8569
  100OSM    H9F10081   0.961   6.091   9.614  0.1466 -1.9780  1.6541
  100OSM   C10F10082   1.036   5.966   9.466 -0.4384 -0.7504  0.3685
  100OSM   H10F10083   0.993   5.878   9.515  0.2245  0.0929  2.5941
  100OSM   C11F10084   1.103   5.931   9.336  0.3953  0.4869 -0.1213
  100OSM   H11F10085   1.199   5.876   9.348  0.5897 -0.4542 -4.3316
  100OSM   H11G10086   1.123   6.026   9.282  2.7080 -0.7678 -1.6553
  100OSM   C12F10087   1.025   5.838   9.236  1.2198  0.1064  0.4908
  100OSM   H12F10088   0.924   5.883   9.224  0.9277 -0.9835 -1.4480
  100OSM   H12G10089   1.011   5.742   9.289 -1.9684  0.7319  0.9617
  100OSM   C13F10090   1.088   5.819   9.097  0.1077 -0.2067  0.4396
  100OSM   H13F10091   1.192   5.779   9.104  0.2884 -0.9032 -3.7196
  100OSM   H13G10092   1.098   5.915   9.041  0.5504  1.3586  3.0486
  100OSM   C14F10093   1.010   5.720   9.004  0.7420  0.0411  0.6984
  100OSM   H14F10094   0.914   5.767   8.972  1.4504  0.0685 -1.5854
  100OSM   H14G10095   0.969   5.645   9.075  0.2800  0.2964  0.7074
  100OSM   C15F10096   1.081   5.660   8.892  0.0277  0.0978 -0.0493
  100OSM   H15F10097   1.172   5.602   8.918 -0.2804 -0.6325 -0.5450
  100OSM   H15G10098   1.110   5.742   8.823  1.4479  0.6916  1.2069
  100OSM   C16F10099   0.986   5.566   8.817  0.1672  0.2540 -0.0970
  100OSM   H16F10100   0.982   5.475   8.879  2.3954  0.3526  0.2844
  100OSM   H16G10101   1.027   5.544   8.716 -1.5775 -0.1613 -0.7556
  100OSM   C17F10102   0.841   5.598   8.785  0.7104  0.4305 -0.1393
  100OSM   H17F10103   0.839   5.699   8.740  0.6270  0.2110 -0.6326
  100OSM   H17G10104   0.774   5.580   8.872  0.6093 -0.5218 -0.4025
  100OSM   C18F10105   0.785   5.496   8.684 -0.3819 -0.0934 -0.2484
  100OSM   H18F10106   0.674   5.502   8.682 -0.5169 -1.8767 -2.3513
  100OSM   H18G10107   0.814   5.395   8.718 -1.6860  0.3480  2.4178
  100OSM   H18H10108   0.826   5.502   8.581  2.8142  2.0581  0.9949
  101OSM      N10109   3.921   1.817  11.111  0.5367 -0.1151  0.2776
  101OSM    C1510110   3.789   1.874  11.052  0.3953  0.6545  0.1961
  101OSM   H15A10111   3.741   1.793  10.999  0.2200  0.9635 -0.1164
  101OSM   H15B10112   3.810   1.958  10.988  0.5128  1.1238  0.8345
  101OSM   H15C10113   3.716   1.897  11.129  0.1590 -0.0701  0.1933
  101OSM    C1410114   4.019   1.930  11.128 -0.1862 -0.2624  0.5610
  101OSM   H14A10115   4.020   1.978  11.032  1.4328 -3.7374 -1.3457
  101OSM   H14B10116   4.118   1.896  11.155  0.1448 -1.8189 -2.2062
  101OSM   H14C10117   3.986   1.990  11.211  0.8900  0.4700  0.4770
  101OSM    C1310118   3.886   1.763  11.241  0.6656  0.0583  0.5907
  101OSM   H13A10119   3.836   1.835  11.305  0.0855 -0.2499  0.4919
  101OSM   H13B10120   3.979   1.723  11.279  2.7271 -0.4949 -4.3198
  101OSM   H13C10121   3.823   1.676  11.243 -2.1040  1.9174 -0.3728
  101OSM    C1210122   3.984   1.707  11.028  0.7792 -0.1523 -0.1385
  101OSM   H12A10123   3.922   1.619  11.021  0.8917 -0.3782  1.3878
  101OSM   H12B10124   4.071   1.669  11.080  2.7437  1.3661 -2.0874
  101OSM    C1110125   4.044   1.742  10.890 -0.3360 -0.1009  0.4291
  101OSM   H11A10126   3.981   1.822  10.846  0.5616  0.3545 -0.0539
  101OSM   H11B10127   4.027   1.649  10.832 -3.7916  1.1774 -0.8616
  101OSM      P10128   4.296   1.692  10.840  0.6392 -0.1496 -0.0422
  101OSM    O1310129   4.416   1.766  10.802  0.0749 -0.0685  0.9576
  101OSM    O1410130   4.323   1.597  10.951 -0.5102 -0.3399 -0.1178
  101OSM    O1110131   4.235   1.627  10.703 -0.4003 -0.7935  0.5052
  101OSM    O1210132   4.178   1.789  10.898 -0.6001  0.1818 -0.3696
  101OSM    C1S10133   4.262   1.695  10.581 -0.3512  0.0026 -0.0459
  101OSM    H1S10134   4.370   1.711  10.560  0.0793 -0.4749  1.6303
  101OSM    H1T10135   4.221   1.798  10.581  2.2068  1.0980  0.1821
  101OSM     NF10136   4.225   1.686  10.334  0.8284 -0.1126 -0.1588
  101OSM    HNF10137   4.157   1.740  10.285  2.8302  1.4242 -1.4487
  101OSM    C2S10138   4.195   1.620  10.453 -0.9695 -0.3763 -0.5635
  101OSM    H2S10139   4.234   1.517  10.453 -0.4717 -0.1915 -0.8847
  101OSM    C3S10140   4.045   1.603  10.481  0.6408 -0.4264  0.5397
  101OSM    H3S10141   4.019   1.711  10.480  3.6631  0.3979 -0.6512
  101OSM     O310142   4.002   1.552  10.605 -0.2622 -0.4234  0.0794
  101OSM    HO310143   4.082   1.555  10.659 -1.6749  1.2366  2.2961
  101OSM    C4S10144   3.975   1.535  10.368 -0.6688  0.3515 -0.0596
  101OSM    H4S10145   3.958   1.602  10.282 -0.8185 -0.0321 -0.3303
  101OSM    C5S10146   3.961   1.401  10.352 -0.4925 -0.4787 -0.2756
  101OSM    H5S10147   4.015   1.341  10.427 -0.5678  0.4288  0.5313
  101OSM    C6S10148   3.919   1.334  10.223 -0.4672  0.3841  0.6742
  101OSM    H6S10149   3.812   1.306  10.218 -0.0898 -0.8789 -1.5901
  101OSM    H6T10150   3.971   1.237  10.209  0.0053  0.4770  1.6943
  101OSM    C7S10151   3.951   1.410  10.091  0.3030  0.2255 -0.0606
  101OSM    H7S10152   4.057   1.440  10.084  0.4068 -0.2735 -0.6961
  101OSM    H7T10153   3.881   1.495  10.074 -0.4476 -0.0668  1.3541
  101OSM    C8S10154   3.924   1.320   9.968  0.4490 -0.2596  0.8702
  101OSM    H8S10155   3.816   1.292   9.965  0.2666  0.4632 -0.9118
  101OSM    H8T10156   3.988   1.230   9.974 -1.7421 -2.0011 -0.0416
  101OSM    C9S10157   3.940   1.395   9.836 -0.5705  0.6948  0.4543
  101OSM    H9S10158   4.039   1.442   9.818 -0.3008 -0.8446 -2.6220
  101OSM    H9T10159   3.865   1.476   9.825 -0.8741  0.5460  1.3110
  101OSM   C10S10160   3.932   1.292   9.720 -0.1354 -0.4568 -0.1693
  101OSM   H10S10161   3.830   1.249   9.717 -0.3943  0.2268 -1.7781
  101OSM   H10T10162   4.011   1.214   9.724  2.5071  2.0078 -0.7446
  101OSM   C11S10163   3.957   1.355   9.578 -0.5420  0.3841 -0.2427
  101OSM   H11S10164   4.066   1.376   9.583 -0.8556  1.9837  3.4721
  101OSM   H11T10165   3.907   1.453   9.565  0.7658  0.9975 -0.8814
  101OSM   C12S10166   3.940   1.261   9.463 -0.4217 -0.4954 -0.1454
  101OSM   H12S10167   3.833   1.230   9.454 -0.4126 -1.1858  1.5863
  101OSM   H12T10168   4.004   1.171   9.472 -0.0274 -0.0439  2.8939
  101OSM   C13S10169   3.959   1.338   9.324  0.1463  0.5796 -0.1547
  101OSM   H13S10170   4.063   1.376   9.315  1.1978 -2.3938 -1.8457
  101OSM   H13T10171   3.898   1.431   9.321 -0.0254  0.4455 -1.1060
  101OSM   C14S10172   3.936   1.244   9.210 -0.4350  0.1838  0.1712
  101OSM   H14S10173   3.836   1.195   9.212 -0.2257 -0.3920 -1.5548
  101OSM   H14T10174   4.013   1.164   9.213 -2.2359 -1.5751  2.7983
  101OSM   C15S10175   3.955   1.309   9.070 -0.5893  0.5681  1.0204
  101OSM   H15S10176   4.060   1.339   9.052 -0.2498 -1.6748 -1.1671
  101OSM   H15T10177   3.885   1.394   9.052 -2.3464 -0.8211  1.0152
  101OSM   C16S10178   3.934   1.209   8.955  0.3817  0.4817 -0.1075
  101OSM   H16S10179   3.830   1.175   8.974  1.5200 -2.3236  1.8742
  101OSM   H16T10180   3.997   1.117   8.953 -1.9156 -1.1518 -1.4917
  101OSM   C17S10181   3.928   1.274   8.813 -0.4620  1.0310 -0.8117
  101OSM   H17S10182   3.854   1.356   8.823 -0.1011  1.7012 -3.0415
  101OSM   H17T10183   3.887   1.198   8.744 -1.3018  0.8960 -0.1793
  101OSM   C18S10184   4.052   1.344   8.760  0.1124 -0.0050  0.3298
  101OSM   H18S10185   4.038   1.368   8.652 -1.3334 -2.4823 -0.1078
  101OSM   H18T10186   4.139   1.275   8.756  0.8527  0.8366 -3.9868
  101OSM   H18U10187   4.079   1.437   8.814 -2.2575  0.7498  0.3261
  101OSM    C1F10188   4.350   1.684  10.280  0.5957 -0.1867 -0.4862
  101OSM     OF10189   4.440   1.614  10.325 -0.3145  0.0957  0.3853
  101OSM    C2F10190   4.372   1.762  10.152 -1.3524 -0.0506 -0.2432
  101OSM    H2F10191   4.430   1.854  10.178 -0.6345 -0.6179  0.1925
  101OSM    H2G10192   4.275   1.779  10.101 -1.8593  1.2517  1.0588
  101OSM    C3F10193   4.456   1.677  10.048 -0.2597 -0.2364  0.2829
  101OSM    H3F10194   4.435   1.568  10.050 -0.3146 -0.3103 -2.2240
  101OSM    H3G10195   4.563   1.678  10.079 -0.0134  1.5639 -0.4766
  101OSM    C4F10196   4.451   1.726   9.902 -0.0842 -0.5060  0.1437
  101OSM    H4F10197   4.544   1.687   9.856  0.3221 -2.3059  2.2899
  101OSM    H4G10198   4.457   1.837   9.900  1.2509 -0.5668 -1.6357
  101OSM    C5F10199   4.317   1.677   9.835 -0.6331 -0.8795  0.8629
  101OSM    H5F10200   4.243   1.749   9.876 -0.0859  0.3648 -0.2488
  101OSM    H5G10201   4.293   1.573   9.866 -1.4623 -0.3922  1.9215
  101OSM    C6F10202   4.334   1.678   9.682  0.4767 -0.3968 -0.1983
  101OSM    H6F10203   4.237   1.661   9.628 -0.3604 -0.4034  1.2651
  101OSM    H6G10204   4.372   1.780   9.662  1.5586 -0.8055 -0.2461
  101OSM    C7F10205   4.438   1.577   9.633  0.4816  0.4992  0.4955
  101OSM    H7F10206   4.417   1.482   9.687 -0.7163  0.1298 -0.5838
  101OSM    H7G10207   4.536   1.621   9.662  1.3139 -1.9082  1.6654
  101OSM    C8F10208   4.437   1.547   9.485 -0.3205 -0.6078 -0.4067
  101OSM    H8F10209   4.339   1.500   9.460 -0.5176 -0.5025  0.1505
  101OSM    H8G10210   4.503   1.461   9.459 -1.6940 -1.4535 -1.2291
  101OSM    C9F10211   4.481   1.663   9.397  0.0146 -0.4345 -0.1101
  101OSM    H9F10212   4.555   1.731   9.442 -0.6040 -0.0095  0.2817
  101OSM   C10F10213   4.444   1.687   9.269 -0.9731  0.3903 -1.0724
  101OSM   H10F10214   4.472   1.788   9.236  2.9288  0.2976  1.3566
  101OSM   C11F10215   4.346   1.618   9.181  0.3348  0.3823 -0.0642
  101OSM   H11F10216   4.297   1.697   9.121 -2.8821  0.4279  2.3679
  101OSM   H11G10217   4.260   1.570   9.233  0.5844 -0.8716 -0.7632
  101OSM   C12F10218   4.403   1.510   9.089 -0.1534 -0.4822  0.2238
  101OSM   H12F10219   4.309   1.467   9.048 -2.0750  2.9057  0.6838
  101OSM   H12G10220   4.474   1.451   9.151 -0.8522  2.1058  3.7841
  101OSM   C13F10221   4.482   1.559   8.964  0.5529  0.0500 -0.2803
  101OSM   H13F10222   4.528   1.470   8.915  2.0824 -0.4367  1.9044
  101OSM   H13G10223   4.566   1.623   8.997 -0.4726  2.0278 -1.3373
  101OSM   C14F10224   4.410   1.624   8.852  0.0125 -0.2972 -0.3491
  101OSM   H14F10225   4.365   1.711   8.905  0.3632 -0.2057 -0.1997
  101OSM   H14G10226   4.328   1.563   8.808 -0.4749  0.8010 -1.0099
  101OSM   C15F10227   4.497   1.681   8.737  0.0840  0.3063 -0.2879
  101OSM   H15F10228   4.518   1.605   8.659 -1.8754 -1.4250  0.7738
  101OSM   H15G10229   4.595   1.715   8.778  0.2434  0.4243 -0.7631
  101OSM   C16F10230   4.439   1.801   8.666  0.2878 -0.0967  0.1686
  101OSM   H16F10231   4.402   1.878   8.738  0.5885 -0.2402  0.4835
  101OSM   H16G10232   4.350   1.767   8.611 -0.6164  0.2740  1.3462
  101OSM   C17F10233   4.527   1.867   8.556 -0.6792  0.2827 -0.3218
  101OSM   H17F10234   4.460   1.943   8.510  0.7843  1.2992 -0.8565
  101OSM   H17G10235   4.551   1.782   8.489  0.5034  0.4842 -0.1769
  101OSM   C18F10236   4.652   1.943   8.604  0.3504 -0.2578 -0.1545
  101OSM   H18F10237   4.618   2.015   8.682  0.7817 -1.0691  0.8063
  101OSM   H18G10238   4.693   2.008   8.523  0.4737 -0.2376 -0.0776
  101OSM   H18H10239   4.731   1.888   8.660  1.8000 -1.3281 -3.0398
  102OSM      N10240   6.065   3.125  11.145 -0.3883 -0.2614  0.3041
  102OSM    C1510241   5.934   3.200  11.150  0.0151  0.9141  0.3824
  102OSM   H15A10242   5.881   3.178  11.242 -0.4372 -2.0141 -0.4799
  102OSM   H15B10243   5.865   3.170  11.073  2.2596  0.7933 -1.6979
  102OSM   H15C10244   5.953   3.306  11.139  1.4422  0.6540  0.1205
  102OSM    C1410245   6.164   3.203  11.228 -0.0961 -0.0128 -0.3163
  102OSM   H14A10246   6.256   3.148  11.240 -1.3707 -1.9629  1.2899
  102OSM   H14B10247   6.126   3.226  11.327 -2.0458 -1.6785 -0.6100
  102OSM   H14C10248   6.195   3.291  11.175  0.4698  0.3215  0.5375
  102OSM    C1310249   6.042   2.993  11.211  0.1384 -0.0551  0.1242
  102OSM   H13A10250   6.027   3.006  11.317  0.0429  1.4770 -0.0591
  102OSM   H13B10251   6.131   2.931  11.209 -0.4189 -1.0277  2.2367
  102OSM   H13C10252   5.953   2.944  11.174  1.1635 -0.3290 -2.1104
  102OSM    C1210253   6.120   3.104  11.006  0.1703  0.0681 -0.0275
  102OSM   H12A10254   6.047   3.051  10.948  0.6351  0.4406 -0.9827
  102OSM   H12B10255   6.220   3.062  11.014  0.7002  1.4936  1.7636
  102OSM    C1110256   6.163   3.235  10.923 -0.4803  0.4794  0.1946
  102OSM   H11A10257   6.075   3.301  10.934 -0.7541 -0.1014  1.8973
  102OSM   H11B10258   6.169   3.211  10.815 -1.0024 -1.0001  0.4696
  102OSM      P10259   6.428   3.245  10.918 -0.0211 -0.3317 -0.5898
  102OSM    O1310260   6.527   3.343  10.962  0.0319  0.1204 -0.0982
  102OSM    O1410261   6.445   3.107  10.964  0.2350  0.3334 -0.4211
  102OSM    O1110262   6.417   3.237  10.760  0.2183 -0.2887 -0.7556
  102OSM    O1210263   6.286   3.292  10.972 -0.2977 -0.0337  0.0149
  102OSM    C1S10264   6.404   3.355  10.685 -0.1096 -0.2888  0.1819
  102OSM    H1S10265   6.475   3.433  10.721 -0.1287 -0.2744  0.1886
  102OSM    H1T10266   6.301   3.395  10.695 -1.1987 -2.5378 -1.3967
  102OSM     NF10267   6.478   3.451  10.457  0.7471  0.3861 -0.8807
  102OSM    HNF10268   6.407   3.503  10.410 -0.8495 -0.4703  0.4617
  102OSM    C2S10269   6.428   3.333  10.529 -0.0656 -0.0085 -0.3512
  102OSM    H2S10270   6.509   3.257  10.532  0.1568  0.2229  2.2953
  102OSM    C3S10271   6.301   3.276  10.471 -0.6396  0.2522  0.5255
  102OSM    H3S10272   6.216   3.347  10.474 -1.9451 -1.2916  0.7752
  102OSM     O310273   6.259   3.166  10.555  0.2179  0.5870  0.5324
  102OSM    HO310274   6.302   3.178  10.640 -1.7630  0.9263  1.5303
  102OSM    C4S10275   6.325   3.240  10.325  0.5393 -0.3519  0.3932
  102OSM    H4S10276   6.319   3.327  10.259  0.9765  0.2718  1.1489
  102OSM    C5S10277   6.338   3.114  10.276 -0.1409 -0.4343  0.2414
  102OSM    H5S10278   6.338   3.031  10.347  3.3414  0.0732  1.0475
  102OSM    C6S10279   6.358   3.079  10.132  1.2235 -0.0043  0.0797
  102OSM    H6S10280   6.268   3.025  10.096 -0.5479  3.5356 -1.1956
  102OSM    H6T10281   6.449   3.015  10.130  0.9184 -0.5538  1.6592
  102OSM    C7S10282   6.368   3.198  10.036  0.1322 -0.0560 -1.0307
  102OSM    H7S10283   6.474   3.228  10.052  0.4954 -1.0295 -1.5381
  102OSM    H7T10284   6.302   3.281  10.068  1.8781  0.6280  1.1206
  102OSM    C8S10285   6.344   3.172   9.886  0.2372  0.5212 -1.0895
  102OSM    H8S10286   6.251   3.112   9.869  0.8336 -2.2107  3.5491
  102OSM    H8T10287   6.418   3.097   9.851  0.0616 -0.0432 -0.2693
  102OSM    C9S10288   6.359   3.301   9.809  0.2891 -0.6490  0.4971
  102OSM    H9S10289   6.444   3.360   9.848 -0.2531  1.5107 -1.3882
  102OSM    H9T10290   6.278   3.371   9.839  1.5752  1.2043 -0.1278
  102OSM   C10S10291   6.363   3.281   9.656 -0.1155 -0.1851  0.4203
  102OSM   H10S10292   6.266   3.244   9.617 -0.6367  1.3520  0.1872
  102OSM   H10T10293   6.438   3.201   9.637  0.9502  0.1068  2.9988
  102OSM   C11S10294   6.397   3.416   9.592  0.0980 -0.7201  0.8826
  102OSM   H11S10295   6.494   3.457   9.625  0.1744  0.2860 -0.4775
  102OSM   H11T10296   6.318   3.485   9.628 -0.5902 -1.4982  0.9177
  102OSM   C12S10297   6.403   3.392   9.441  0.4842  0.4962 -0.4596
  102OSM   H12S10298   6.303   3.355   9.409  0.4211 -0.2646  0.5794
  102OSM   H12T10299   6.480   3.317   9.411 -0.1061  0.1382 -1.1344
  102OSM   C13S10300   6.446   3.520   9.363  0.9432  0.1220  0.1309
  102OSM   H13S10301   6.502   3.484   9.274  0.3153 -0.7935  0.0939
  102OSM   H13T10302   6.520   3.581   9.420  2.0687 -1.2666  0.1965
  102OSM   C14S10303   6.322   3.595   9.308 -0.4594 -0.3171  0.5083
  102OSM   H14S10304   6.248   3.622   9.386 -2.4088 -1.1344 -0.9759
  102OSM   H14T10305   6.272   3.512   9.253  1.2672 -1.9516  1.2885
  102OSM   C15S10306   6.364   3.714   9.215  0.2547 -0.4707  0.2659
  102OSM   H15S10307   6.430   3.669   9.138  1.9058 -1.7646  2.3111
  102OSM   H15T10308   6.422   3.782   9.281  0.1749 -0.5647  0.4323
  102OSM   C16S10309   6.240   3.780   9.141 -0.8500 -0.4303 -0.3992
  102OSM   H16S10310   6.196   3.854   9.211 -3.0118 -1.7694 -0.2592
  102OSM   H16T10311   6.173   3.695   9.116  1.1273 -1.6946 -1.6497
  102OSM   C17S10312   6.276   3.836   8.998 -0.2380  0.1001 -0.1289
  102OSM   H17S10313   6.187   3.893   8.962  1.0757  1.0378 -2.0533
  102OSM   H17T10314   6.302   3.757   8.924 -1.9477 -1.2671  0.6534
  102OSM   C18S10315   6.391   3.938   9.010 -0.5490  0.2424  0.5727
  102OSM   H18S10316   6.408   3.993   8.914 -0.8347  0.5795  0.7119
  102OSM   H18T10317   6.487   3.891   9.038  0.7331  3.1297  1.4403
  102OSM   H18U10318   6.377   4.016   9.088 -1.0302 -1.0514  1.8044
  102OSM    C1F10319   6.606   3.479  10.479 -0.5682 -0.3903  0.0149
  102OSM     OF10320   6.675   3.425  10.560 -0.2975 -0.1711 -0.1584
  102OSM    C2F10321   6.654   3.602  10.404  0.8574  0.2978 -0.2485
  102OSM    H2F10322   6.696   3.677  10.474  0.9710  1.7552 -1.8218
  102OSM    H2G10323   6.572   3.642  10.341  1.5996 -1.9509 -2.8399
  102OSM    C3F10324   6.762   3.566  10.303 -0.1524 -0.8421  0.2011
  102OSM    H3F10325   6.856   3.527  10.348 -0.2326 -0.2906  0.8771
  102OSM    H3G10326   6.793   3.663  10.259 -0.7804  0.2321  1.9957
  102OSM    C4F10327   6.704   3.485  10.186  0.0192  0.0043 -0.3478
  102OSM    H4F10328   6.609   3.507  10.132 -0.2969 -1.5396 -0.4705
  102OSM    H4G10329   6.685   3.384  10.228 -0.8721  0.2591 -0.0976
  102OSM    C5F10330   6.818   3.474  10.086 -0.1764 -0.4647  0.7930
  102OSM    H5F10331   6.910   3.445  10.141 -0.8008  0.1702  2.2487
  102OSM    H5G10332   6.843   3.570  10.036  2.3610 -0.9217  1.0433
  102OSM    C6F10333   6.793   3.382   9.971  0.3080 -0.2550 -0.1596
  102OSM    H6F10334   6.691   3.402   9.930  0.0857  0.7912  0.8470
  102OSM    H6G10335   6.783   3.277  10.009  1.3150 -0.1926  0.2931
  102OSM    C7F10336   6.909   3.380   9.867 -0.1928  0.2498  0.2982
  102OSM    H7F10337   7.000   3.344   9.920  0.5429  3.1510  1.1770
  102OSM    H7G10338   6.925   3.484   9.831  0.8879  0.4797  1.3804
  102OSM    C8F10339   6.885   3.275   9.763  0.5487  0.7798 -0.3754
  102OSM    H8F10340   6.842   3.189   9.818  1.7057 -0.1398 -0.8714
  102OSM    H8G10341   6.982   3.241   9.720  0.8646 -0.6414  1.3367
  102OSM    C9F10342   6.780   3.318   9.665  0.1867 -0.2486 -0.0756
  102OSM    H9F10343   6.679   3.280   9.682  0.4094 -0.5305  0.6534
  102OSM   C10F10344   6.803   3.409   9.564 -0.2217  1.1816  0.1233
  102OSM   H10F10345   6.718   3.419   9.495  1.5847 -2.2345 -2.8936
  102OSM   C11F10346   6.925   3.490   9.523  0.1462  0.6041  0.2941
  102OSM   H11F10347   7.012   3.465   9.587 -0.0001 -1.1607 -0.1346
  102OSM   H11G10348   6.908   3.599   9.529  0.7753  0.8479 -1.6207
  102OSM   C12F10349   6.962   3.459   9.377  0.3625 -0.7009 -0.1109
  102OSM   H12F10350   6.963   3.351   9.349  3.3549 -0.2361 -2.3460
  102OSM   H12G10351   7.071   3.477   9.360 -0.0867  1.1153 -1.3412
  102OSM   C13F10352   6.878   3.532   9.267  0.4727  0.0595  0.1978
  102OSM   H13F10353   6.863   3.637   9.301 -2.1947 -0.3353  0.4448
  102OSM   H13G10354   6.773   3.496   9.263  0.4760  0.1794 -1.2693
  102OSM   C14F10355   6.939   3.531   9.125  0.3830 -0.5908 -1.1640
  102OSM   H14F10356   6.860   3.568   9.056 -0.5640 -0.1871  0.1049
  102OSM   H14G10357   6.964   3.426   9.096  1.0735 -0.5393 -0.7809
  102OSM   C15F10358   7.069   3.607   9.103  0.5780 -0.1811  0.5344
  102OSM   H15F10359   7.155   3.546   9.137  1.8827 -0.9967 -3.6478
  102OSM   H15G10360   7.053   3.698   9.165 -0.8704 -1.0501  1.5089
  102OSM   C16F10361   7.104   3.645   8.965 -0.0413  0.1421 -0.0932
  102OSM   H16F10362   7.209   3.680   8.973 -0.8496  2.5831  0.9383
  102OSM   H16G10363   7.034   3.728   8.938  0.2963  0.1625 -0.9557
  102OSM   C17F10364   7.087   3.528   8.864  0.0279  0.5929 -0.2563
  102OSM   H17F10365   6.978   3.509   8.871  0.1833 -0.3018 -0.0729
  102OSM   H17G10366   7.135   3.430   8.885 -0.7877  0.3181  0.3960
  102OSM   C18F10367   7.123   3.571   8.728  0.2517 -0.1737 -0.0196
  102OSM   H18F10368   7.140   3.479   8.668  1.5750 -0.0710  0.1690
  102OSM   H18G10369   7.218   3.628   8.727  0.5060 -0.5828 -1.0456
  102OSM   H18H10370   7.046   3.642   8.692 -0.4125 -1.3414 -1.0024
  103OSM      N10371   5.440   5.976  10.728  0.3172  0.2466  0.3063
  103OSM    C1510372   5.304   5.942  10.793 -0.0106  0.0927 -0.3375
  103OSM   H15A10373   5.226   5.948  10.718 -0.9358 -2.6389  0.2843
  103OSM   H15B10374   5.266   6.007  10.870 -0.7910 -1.2921  0.4918
  103OSM   H15C10375   5.297   5.843  10.836 -0.4651 -0.3073 -1.2886
  103OSM    C1410376   5.541   5.964  10.830 -0.7719 -0.3043 -0.4381
  103OSM   H14A10377   5.630   6.009  10.789 -1.4904  1.6995  0.0948
  103OSM   H14B10378   5.559   5.862  10.860  3.0349  0.3689 -0.0184
  103OSM   H14C10379   5.521   6.021  10.920 -0.2447  0.5030 -0.8183
  103OSM    C1310380   5.465   5.892  10.608  0.1112 -0.1857  0.0551
  103OSM   H13A10381   5.397   5.904  10.525  0.4206 -1.3194 -0.3832
  103OSM   H13B10382   5.442   5.790  10.634 -1.6220 -0.0322 -0.7316
  103OSM   H13C10383   5.562   5.895  10.562 -0.7497  1.6143 -1.8054
  103OSM    C1210384   5.428   6.119  10.675  0.2697 -0.4965 -0.0688
  103OSM   H12A10385   5.401   6.188  10.753  0.3873  0.7223 -1.0766
  103OSM   H12B10386   5.343   6.119  10.609 -2.5043  1.6324  3.1352
  103OSM    C1110387   5.551   6.190  10.606 -0.0843  0.8104  0.4037
  103OSM   H11A10388   5.515   6.284  10.560 -0.0587 -0.4867 -2.4544
  103OSM   H11B10389   5.588   6.126  10.523  0.2403  1.6780 -0.1213
  103OSM      P10390   5.646   6.307  10.802 -0.5243 -0.3221 -0.1640
  103OSM    O1310391   5.506   6.313  10.851 -0.6757 -0.3266  0.9181
  103OSM    O1410392   5.751   6.291  10.904 -0.1135  0.3350  0.6493
  103OSM    O1110393   5.687   6.443  10.721 -0.4230 -0.3111 -0.7072
  103OSM    O1210394   5.668   6.203  10.688  0.1106 -0.5878 -0.1401
  103OSM    C1S10395   5.824   6.453  10.685 -0.1069 -0.3011 -0.5178
  103OSM    H1S10396   5.900   6.408  10.753 -1.5401  1.2369  2.2324
  103OSM    H1T10397   5.853   6.560  10.673  1.2178 -0.6230 -0.3617
  103OSM     NF10398   6.002   6.372  10.520 -0.3192 -0.0922  0.0773
  103OSM    HNF10399   6.045   6.418  10.443 -1.5917  0.4268 -0.3465
  103OSM    C2S10400   5.856   6.388  10.547 -0.6882 -0.3325  0.4727
  103OSM    H2S10401   5.815   6.284  10.548 -1.1208 -0.2131  3.5687
  103OSM    C3S10402   5.783   6.461  10.433  0.0182 -0.1840  0.4648
  103OSM    H3S10403   5.806   6.570  10.439 -3.7175  0.7163  1.2990
  103OSM     O310404   5.641   6.464  10.454  0.0631 -0.1679  0.7086
  103OSM    HO310405   5.636   6.458  10.550 -2.9134  3.3993  0.9836
  103OSM    C4S10406   5.824   6.411  10.295  0.4825  0.2640  0.7387
  103OSM    H4S10407   5.918   6.453  10.256  0.7590  1.7374  2.8287
  103OSM    C5S10408   5.763   6.305  10.235  0.5806  0.6979 -0.2884
  103OSM    H5S10409   5.686   6.257  10.298 -0.1464 -0.3068 -1.8516
  103OSM    C6S10410   5.798   6.239  10.102 -0.0230  0.7588 -0.8682
  103OSM    H6S10411   5.706   6.249  10.041 -0.6730  0.8127  0.0943
  103OSM    H6T10412   5.820   6.133  10.130 -3.9870 -0.2055 -0.7674
  103OSM    C7S10413   5.913   6.297  10.026  0.1582 -0.7391 -0.1331
  103OSM    H7S10414   6.001   6.293  10.094 -0.0951 -1.0097  0.1804
  103OSM    H7T10415   5.898   6.405  10.008 -3.2891 -1.1460 -0.3592
  103OSM    C8S10416   5.957   6.216   9.901  0.8776 -0.1995 -0.0002
  103OSM    H8S10417   5.958   6.109   9.930  0.6623 -0.2511 -0.1837
  103OSM    H8T10418   6.064   6.244   9.889  1.1160 -1.0268  0.1558
  103OSM    C9S10419   5.874   6.247   9.777 -1.0942 -0.3239  0.0793
  103OSM    H9S10420   5.764   6.231   9.777 -1.0816 -0.4902 -0.7191
  103OSM    H9T10421   5.911   6.170   9.706  3.2606  1.6601 -0.1425
  103OSM   C10S10422   5.896   6.388   9.715  0.2316 -0.9661  0.6403
  103OSM   H10S10423   6.003   6.418   9.719  0.5523 -2.1795  1.8790
  103OSM   H10T10424   5.846   6.455   9.787  0.2216 -1.4093  1.0479
  103OSM   C11S10425   5.860   6.390   9.567 -0.5853 -1.0205 -0.2549
  103OSM   H11S10426   5.756   6.351   9.556 -0.4744 -2.0424  1.8646
  103OSM   H11T10427   5.917   6.315   9.509  0.2495 -1.8169  1.5393
  103OSM   C12S10428   5.883   6.532   9.497  0.2249 -0.1296 -0.4992
  103OSM   H12S10429   5.993   6.545   9.502  0.3985 -1.7413  0.6359
  103OSM   H12T10430   5.847   6.609   9.568 -0.4405 -0.7791 -0.1162
  103OSM   C13S10431   5.815   6.538   9.359 -0.3030 -0.5066  0.5177
  103OSM   H13S10432   5.797   6.644   9.332  0.2413 -0.6717 -0.5697
  103OSM   H13T10433   5.714   6.493   9.368  0.6921 -2.7171  1.3847
  103OSM   C14S10434   5.898   6.481   9.238  0.4587  0.1314 -0.0028
  103OSM   H14S10435   5.897   6.370   9.231 -2.0562  0.1000  0.0384
  103OSM   H14T10436   6.003   6.507   9.265 -0.5255  1.1637  3.3211
  103OSM   C15S10437   5.881   6.542   9.096  0.7482  0.6321 -0.0223
  103OSM   H15S10438   5.966   6.504   9.037 -0.0999 -0.6856 -0.4444
  103OSM   H15T10439   5.898   6.649   9.122 -2.2500  0.6018  2.8020
  103OSM   C16S10440   5.741   6.517   9.038  0.7942  0.0163  0.0678
  103OSM   H16S10441   5.663   6.546   9.111  1.4714  2.0536  0.0384
  103OSM   H16T10442   5.733   6.407   9.027  1.3685  0.0051 -0.2998
  103OSM   C17S10443   5.709   6.585   8.898 -0.1011 -0.9026 -0.4580
  103OSM   H17S10444   5.611   6.555   8.856 -0.3352  0.0815 -0.6513
  103OSM   H17T10445   5.795   6.564   8.831  1.2050  1.5777  0.2867
  103OSM   C18S10446   5.704   6.740   8.911  0.1146  0.4059 -0.1136
  103OSM   H18S10447   5.805   6.774   8.943  0.7942 -0.6828 -1.0247
  103OSM   H18T10448   5.650   6.780   9.000  3.5654  2.3518  1.3014
  103OSM   H18U10449   5.671   6.788   8.817  2.2852  4.0937  0.8071
  103OSM    C1F10450   6.072   6.278  10.583 -0.2070 -0.9181 -0.0044
  103OSM     OF10451   6.010   6.199  10.657  0.2277  0.1066  0.9812
  103OSM    C2F10452   6.224   6.275  10.553 -0.3428  0.0427  0.1333
  103OSM    H2F10453   6.270   6.288  10.653  0.2727  0.1535 -0.1584
  103OSM    H2G10454   6.258   6.356  10.484 -1.9438  0.2346 -0.4680
  103OSM    C3F10455   6.275   6.146  10.486 -0.1525  0.4313  0.1036
  103OSM    H3F10456   6.239   6.062  10.550  0.1732 -0.2183 -0.5522
  103OSM    H3G10457   6.386   6.149  10.487 -0.0623 -0.7844 -1.5102
  103OSM    C4F10458   6.229   6.142  10.343 -0.2357 -0.1364 -0.1235
  103OSM    H4F10459   6.261   6.238  10.297  1.2609  0.2607  1.6259
  103OSM    H4G10460   6.119   6.125  10.342 -0.0925 -1.3772 -2.2701
  103OSM    C5F10461   6.282   6.026  10.260  0.5622 -0.8823  0.5752
  103OSM    H5F10462   6.261   5.929  10.310 -3.0864 -0.6405 -0.2659
  103OSM    H5G10463   6.392   6.033  10.246  0.2394  1.1482 -1.5048
  103OSM    C6F10464   6.221   6.017  10.117  0.2225 -0.3783  0.4299
  103OSM    H6F10465   6.193   6.117  10.078 -0.4995  0.4973  2.9882
  103OSM    H6G10466   6.124   5.964  10.132 -1.2420  2.7411  3.2135
  103OSM    C7F10467   6.306   5.942  10.016  0.0802 -0.5676 -0.8519
  103OSM    H7F10468   6.246   5.908   9.928 -0.7927 -1.2664 -0.0044
  103OSM    H7G10469   6.354   5.857  10.068 -0.2970  1.4282  3.1192
  103OSM    C8F10470   6.423   6.014   9.957 -0.0611 -0.3850  0.4064
  103OSM    H8F10471   6.483   6.065  10.036  0.6683  0.8528 -0.9107
  103OSM    H8G10472   6.397   6.091   9.881 -0.5340  0.3449  1.2868
  103OSM    C9F10473   6.524   5.926   9.890 -0.0639 -0.0893 -0.3976
  103OSM    H9F10474   6.621   5.919   9.942 -0.4783  3.0499  1.0656
  103OSM   C10F10475   6.510   5.861   9.771  0.0589 -0.3873  0.1735
  103OSM   H10F10476   6.601   5.813   9.733  2.1007  1.9335  1.8010
  103OSM   C11F10477   6.392   5.868   9.682 -0.2160 -0.0099  0.5635
  103OSM   H11F10478   6.301   5.913   9.727 -0.9363 -0.8750 -0.0022
  103OSM   H11G10479   6.377   5.770   9.632 -0.6463  0.2315  0.2179
  103OSM   C12F10480   6.421   5.962   9.562 -0.1402 -0.0827  0.4184
  103OSM   H12F10481   6.454   6.065   9.588 -0.8374 -0.0991  1.4607
  103OSM   H12G10482   6.327   5.966   9.503  1.6965 -2.3925 -2.9916
  103OSM   C13F10483   6.524   5.909   9.455 -0.4836  0.4996 -0.4958
  103OSM   H13F10484   6.501   5.803   9.429  4.2712 -0.7193 -0.5549
  103OSM   H13G10485   6.629   5.918   9.490 -0.0067  1.3844 -2.0891
  103OSM   C14F10486   6.515   5.988   9.326  0.2982  1.4341  0.3502
  103OSM   H14F10487   6.536   6.096   9.343  1.8986  1.1961  0.0486
  103OSM   H14G10488   6.415   5.980   9.276  0.1762 -0.9605  0.8781
  103OSM   C15F10489   6.628   5.934   9.236 -0.5270 -0.0126  0.2874
  103OSM   H15F10490   6.637   5.824   9.246 -0.7687 -0.2269 -1.5096
  103OSM   H15G10491   6.730   5.973   9.257 -0.2743 -0.5832  0.1337
  103OSM   C16F10492   6.607   5.953   9.090 -0.3911  0.2814  0.3581
  103OSM   H16F10493   6.604   6.061   9.064 -1.2804 -0.1248 -1.3817
  103OSM   H16G10494   6.512   5.911   9.052  0.0980 -1.7425  1.2634
  103OSM   C17F10495   6.713   5.885   9.006 -0.1895 -0.0451  0.1687
  103OSM   H17F10496   6.720   5.775   9.023  0.6603  0.1570  1.2383
  103OSM   H17G10497   6.810   5.937   9.023  0.4437 -1.1359 -0.0066
  103OSM   C18F10498   6.689   5.885   8.860 -0.9960  0.0064  0.0229
  103OSM   H18F10499   6.691   5.990   8.825  3.6930  0.1496  0.0709
  103OSM   H18G10500   6.597   5.835   8.825 -0.9310  0.9051 -1.5116
  103OSM   H18H10501   6.768   5.826   8.808 -1.9553 -1.7450  0.4649
  104OSM      N10502   6.298   4.559  10.825  0.4628 -0.2319 -1.1404
  104OSM    C1510503   6.180   4.514  10.749  0.1455 -0.2946  0.3088
  104OSM   H15A10504   6.199   4.434  10.679 -1.3969  0.4980 -1.0877
  104OSM   H15B10505   6.143   4.600  10.694 -1.4867 -1.1821 -0.0191
  104OSM   H15C10506   6.103   4.473  10.812 -0.1540 -1.6010 -0.8639
  104OSM    C1410507   6.256   4.673  10.911  0.0037  0.2289 -0.5033
  104OSM   H14A10508   6.184   4.632  10.980 -0.0716  1.6472  0.2868
  104OSM   H14B10509   6.216   4.753  10.850 -0.2478 -0.4654 -1.2638
  104OSM   H14C10510   6.337   4.713  10.971 -0.6712 -0.4799  0.9443
  104OSM    C1310511   6.351   4.444  10.909 -0.5321 -0.4508 -0.2140
  104OSM   H13A10512   6.429   4.480  10.974 -0.2895  0.2040 -0.8622
  104OSM   H13B10513   6.395   4.377  10.837  1.5347  0.5147  0.0851
  104OSM   H13C10514   6.276   4.396  10.970  0.0545  1.4561  2.1673
  104OSM    C1210515   6.403   4.609  10.721 -0.1483 -0.3143 -0.2351
  104OSM   H12A10516   6.497   4.612  10.773 -1.2198 -3.7141  2.2455
  104OSM   H12B10517   6.384   4.710  10.688 -2.1491 -0.5146  0.1769
  104OSM    C1110518   6.431   4.523  10.596 -0.1608 -0.1269 -0.1397
  104OSM   H11A10519   6.508   4.578  10.537 -0.8006  0.2706 -0.6181
  104OSM   H11B10520   6.346   4.513  10.524 -0.3862 -1.0401  0.2325
  104OSM      P10521   6.632   4.386  10.680  0.0985  0.0553 -0.2337
  104OSM    O1310522   6.669   4.501  10.769  0.0189  0.0495  0.0321
  104OSM    O1410523   6.648   4.253  10.737  0.4273  0.0738 -0.0936
  104OSM    O1110524   6.703   4.385  10.537  0.5287  0.5327 -0.5372
  104OSM    O1210525   6.483   4.395  10.633  0.0271  0.4440  0.5424
  104OSM    C1S10526   6.726   4.263  10.467  0.3627 -0.8334 -0.1854
  104OSM    H1S10527   6.643   4.192  10.486 -0.7274  0.1746 -0.9582
  104OSM    H1T10528   6.823   4.224  10.504  0.4561  0.0479  0.5209
  104OSM     NF10529   6.745   4.162  10.235  0.6615 -0.6293  1.4734
  104OSM    HNF10530   6.823   4.149  10.174 -0.4673  2.4872 -0.8631
  104OSM    C2S10531   6.733   4.289  10.307  0.0767  0.3126 -0.0045
  104OSM    H2S10532   6.636   4.336  10.279  0.4001  0.2192 -1.3088
  104OSM    C3S10533   6.858   4.385  10.276 -0.2161  0.1172 -0.0947
  104OSM    H3S10534   6.952   4.331  10.302  1.0222  1.9163 -0.5612
  104OSM     O310535   6.856   4.508  10.349  0.1599 -0.2453  0.4618
  104OSM    HO310536   6.780   4.494  10.405 -1.1231  0.0472 -1.1388
  104OSM    C4S10537   6.879   4.412  10.128 -0.6077 -0.0329  0.8069
  104OSM    H4S10538   6.908   4.329  10.063  2.2037  1.6040 -0.2131
  104OSM    C5S10539   6.870   4.526  10.058  0.2938 -0.7062  0.2166
  104OSM    H5S10540   6.836   4.618  10.108  0.4422 -0.7003  0.3075
  104OSM    C6S10541   6.882   4.535   9.904  0.7615 -0.5118 -0.4461
  104OSM    H6S10542   6.954   4.605   9.857 -1.4432  0.5800 -2.4500
  104OSM    H6T10543   6.792   4.587   9.863  1.6052  0.3836 -1.2314
  104OSM    C7S10544   6.895   4.404   9.825 -0.1647  0.2851  0.0325
  104OSM    H7S10545   6.813   4.330   9.840 -0.1619  0.1831 -0.4235
  104OSM    H7T10546   6.991   4.364   9.866 -1.6564 -1.4705  2.0479
  104OSM    C8S10547   6.906   4.414   9.674 -0.5836 -0.1156 -0.0283
  104OSM    H8S10548   6.918   4.309   9.640  3.2886  0.1997 -0.0178
  104OSM    H8T10549   7.005   4.459   9.653 -0.8663  0.8436  0.6020
  104OSM    C9S10550   6.788   4.486   9.619 -0.1293 -0.1233  0.3437
  104OSM    H9S10551   6.813   4.593   9.636  0.4501 -0.7304  4.1950
  104OSM    H9T10552   6.701   4.455   9.679 -0.5882  1.2922  0.4389
  104OSM   C10S10553   6.774   4.470   9.467 -0.1914 -0.2235  0.8365
  104OSM   H10S10554   6.683   4.524   9.432 -0.1345  1.2676  2.8481
  104OSM   H10T10555   6.776   4.362   9.441 -0.0449 -0.0853  0.2477
  104OSM   C11S10556   6.896   4.527   9.387 -0.2862  0.9286  0.3554
  104OSM   H11S10557   6.979   4.457   9.411 -0.1779 -0.0518 -2.5424
  104OSM   H11T10558   6.913   4.633   9.415 -0.1750  0.9055  0.3754
  104OSM   C12S10559   6.878   4.521   9.236 -0.6227 -0.7384  0.0878
  104OSM   H12S10560   6.947   4.602   9.204 -0.7976 -0.3544  0.6614
  104OSM   H12T10561   6.776   4.559   9.215 -0.2311  0.8636  0.8737
  104OSM   C13S10562   6.912   4.393   9.172  0.5881 -0.1795  0.4113
  104OSM   H13S10563   6.833   4.322   9.203  1.1726 -0.1392  2.0848
  104OSM   H13T10564   7.015   4.354   9.191  1.1157  0.4762 -0.9462
  104OSM   C14S10565   6.924   4.412   9.021  0.3164  0.4848 -0.5851
  104OSM   H14S10566   6.962   4.321   8.969  0.7419  1.7592 -2.6226
  104OSM   H14T10567   7.010   4.482   9.014  0.1002  0.9599  1.1131
  104OSM   C15S10568   6.810   4.471   8.944 -0.0166 -0.2978  0.1120
  104OSM   H15S10569   6.763   4.553   9.004 -0.2281 -0.7743  0.6092
  104OSM   H15T10570   6.721   4.408   8.921 -2.7631  3.4322 -0.4078
  104OSM   C16S10571   6.861   4.536   8.815 -0.2484 -0.0998 -0.0462
  104OSM   H16S10572   6.928   4.622   8.839  0.8307 -1.7155  3.2865
  104OSM   H16T10573   6.767   4.567   8.765 -1.0192 -1.2107  0.6749
  104OSM   C17S10574   6.930   4.441   8.719 -0.1882  0.2504 -0.0648
  104OSM   H17S10575   6.854   4.368   8.683  0.7318 -0.2178 -1.1265
  104OSM   H17T10576   7.012   4.383   8.768 -0.1693  0.1087 -0.2597
  104OSM   C18S10577   6.996   4.519   8.602 -0.3060 -0.0531 -0.6153
  104OSM   H18S10578   7.054   4.444   8.543 -2.6035 -1.5383 -1.1127
  104OSM   H18T10579   7.068   4.599   8.631  0.1158 -0.8396  0.5667
  104OSM   H18U10580   6.915   4.552   8.535  0.5524 -0.1034 -1.7083
  104OSM    C1F10581   6.634   4.085  10.247  0.3228 -0.3088 -0.0282
  104OSM     OF10582   6.527   4.138  10.277 -0.1683  0.1082 -0.0256
  104OSM    C2F10583   6.648   3.940  10.231 -0.2436  0.0424 -0.1106
  104OSM    H2F10584   6.600   3.896  10.321  0.2451  3.5935  2.0815
  104OSM    H2G10585   6.753   3.905  10.220  0.0446  1.1569 -1.2041
  104OSM    C3F10586   6.570   3.876  10.116  0.1821 -0.5866  0.1914
  104OSM    H3F10587   6.463   3.900  10.135 -0.4352 -1.6462 -1.7538
  104OSM    H3G10588   6.573   3.765  10.122 -0.3376 -0.6297 -0.2947
  104OSM    C4F10589   6.609   3.930   9.973  0.1000 -0.0825 -0.3411
  104OSM    H4F10590   6.593   4.039   9.984  0.1995  0.0877 -1.6371
  104OSM    H4G10591   6.529   3.899   9.902  0.3947  0.8090 -1.0816
  104OSM    C5F10592   6.745   3.888   9.925 -0.3913 -0.2631 -0.1371
  104OSM    H5F10593   6.752   3.777   9.913 -0.1073 -0.1221 -1.4879
  104OSM    H5G10594   6.814   3.927  10.002 -1.0880  2.2318 -0.7026
  104OSM    C6F10595   6.783   3.975   9.802 -0.5553 -0.5761  0.0058
  104OSM    H6F10596   6.891   3.972   9.778 -0.2608  3.6724  0.0733
  104OSM    H6G10597   6.769   4.084   9.818 -2.3805  0.1259 -4.7019
  104OSM    C7F10598   6.701   3.940   9.670 -0.2490  0.2519 -0.5635
  104OSM    H7F10599   6.596   3.948   9.706 -0.8334 -2.1080 -1.5119
  104OSM    H7G10600   6.725   3.838   9.633 -0.9968 -0.6425  1.2980
  104OSM    C8F10601   6.716   4.045   9.563 -0.3047  0.5589 -0.1133
  104OSM    H8F10602   6.677   4.140   9.607 -0.4423 -0.0202  1.0446
  104OSM    H8G10603   6.647   4.011   9.483  0.8571 -3.5112  0.3878
  104OSM    C9F10604   6.859   4.058   9.521  0.6985  0.4243 -0.2304
  104OSM    H9F10605   6.935   4.101   9.587 -0.0591  0.6901  0.4893
  104OSM   C10F10606   6.897   4.029   9.397  0.7761 -0.3360  0.5670
  104OSM   H10F10607   7.002   4.037   9.366  0.3406 -0.0097 -0.9287
  104OSM   C11F10608   6.811   3.980   9.287  0.2530 -0.1954 -0.0910
  104OSM   H11F10609   6.720   4.044   9.294  0.5594  0.2217  0.0632
  104OSM   H11G10610   6.786   3.872   9.283  1.3008 -0.3957 -2.4209
  104OSM   C12F10611   6.869   4.005   9.142 -0.5771  0.2809 -0.7924
  104OSM   H12F10612   6.968   3.956   9.132  0.3037  2.0620 -1.2666
  104OSM   H12G10613   6.878   4.114   9.124 -0.9868  0.3041 -0.8531
  104OSM   C13F10614   6.781   3.945   9.035 -0.0695  0.5394 -0.0140
  104OSM   H13F10615   6.678   3.986   9.038  0.5433  2.0512  1.6166
  104OSM   H13G10616   6.772   3.834   9.036 -0.8305  0.5542 -1.4712
  104OSM   C14F10617   6.835   3.977   8.891  0.9131 -0.2324 -0.3369
  104OSM   H14F10618   6.925   3.918   8.864 -0.1146 -2.0356 -0.0030
  104OSM   H14G10619   6.868   4.081   8.871  0.9354 -0.2918 -0.6112
  104OSM   C15F10620   6.718   3.949   8.791  0.1972 -0.1026  0.0887
  104OSM   H15F10621   6.648   4.035   8.782  3.1946  2.6559  1.1838
  104OSM   H15G10622   6.662   3.862   8.832  2.4794 -1.0054  1.4328
  104OSM   C16F10623   6.756   3.896   8.658 -0.0171 -0.1459 -0.3693
  104OSM   H16F10624   6.812   3.973   8.601  1.6011 -0.6777  0.4294
  104OSM   H16G10625   6.664   3.876   8.601  0.5962 -1.9883 -0.7578
  104OSM   C17F10626   6.829   3.764   8.656  0.6780 -0.0513  0.4907
  104OSM   H17F10627   6.777   3.697   8.727 -1.4310 -0.0641 -0.9821
  104OSM   H17G10628   6.931   3.786   8.695  0.1502  1.3164  1.1460
  104OSM   C18F10629   6.826   3.716   8.518  0.1259 -0.0292  0.6623
  104OSM   H18F10630   6.856   3.794   8.445 -1.2231  1.0634  1.2217
  104OSM   H18G10631   6.719   3.702   8.492  0.6728  0.5514 -2.2335
  104OSM   H18H10632   6.882   3.622   8.502  0.1112  0.1734 -0.6664
  105OSM      N10633   3.063   0.220  10.428 -0.0294 -0.3346  0.2049
  105OSM    C1510634   3.178   0.279  10.507 -0.0569 -0.0058  0.0156
  105OSM   H15A10635   3.208   0.220  10.593  0.6769 -0.4527 -0.5380
  105OSM   H15B10636   3.156   0.377  10.545 -1.7276  0.5395 -2.1180
  105OSM   H15C10637   3.260   0.296  10.439 -0.5238 -0.5592 -0.7055
  105OSM    C1410638   3.021   0.291  10.308  0.4128  0.5358  0.8177
  105OSM   H14A10639   3.091   0.285  10.225 -1.6661  0.9395 -1.0534
  105OSM   H14B10640   2.995   0.391  10.338 -2.9001 -0.8078  3.0043
  105OSM   H14C10641   2.931   0.247  10.268  0.4916  1.1259 -0.0453
  105OSM    C1310642   3.106   0.081  10.391  0.2153 -0.2477 -0.2531
  105OSM   H13A10643   3.196   0.078  10.330  2.6875 -0.7071  3.1409
  105OSM   H13B10644   3.024   0.035  10.338  0.1942  1.0548 -1.4277
  105OSM   H13C10645   3.146   0.021  10.471  0.2248 -0.4573 -0.4143
  105OSM    C1210646   2.946   0.206  10.522 -0.5137  0.2804 -0.0176
  105OSM   H12A10647   2.970   0.128  10.593  0.8725  0.1281 -0.6011
  105OSM   H12B10648   2.866   0.169  10.460 -0.8935  0.2950  0.4577
  105OSM    C1110649   2.893   0.333  10.589  0.2591  0.3481 -0.2722
  105OSM   H11A10650   2.978   0.390  10.632  1.2330 -0.8504 -0.5723
  105OSM   H11B10651   2.819   0.302  10.666  0.5730 -2.8734 -1.1179
  105OSM      P10652   2.700   0.392  10.435  0.2058  0.0280  0.1799
  105OSM    O1310653   2.691   0.252  10.384  0.3987  0.0366  0.3804
  105OSM    O1410654   2.597   0.416  10.538 -0.2698 -0.2369 -0.0864
  105OSM    O1110655   2.683   0.486  10.313 -0.2680 -0.2200 -0.4084
  105OSM    O1210656   2.841   0.422  10.485 -0.3999 -0.6575  0.0788
  105OSM    C1S10657   2.775   0.572  10.259 -0.6446  0.2315  0.2224
  105OSM    H1S10658   2.879   0.534  10.262  0.0547  2.0746  1.1865
  105OSM    H1T10659   2.770   0.674  10.302  0.1333  0.5912 -0.5117
  105OSM     NF10660   2.859   0.672  10.062 -0.4860 -0.3051  0.0718
  105OSM    HNF10661   2.858   0.772  10.058  0.4306 -0.2590  0.6845
  105OSM    C2S10662   2.742   0.612  10.113 -0.4457 -1.0383 -0.0338
  105OSM    H2S10663   2.715   0.523  10.053 -2.1871 -0.3484 -0.3369
  105OSM    C3S10664   2.611   0.701  10.109  0.3216  0.2157  0.2447
  105OSM    H3S10665   2.610   0.786  10.180  0.7813 -1.2252  2.0441
  105OSM     O310666   2.499   0.630  10.155  0.6278  0.1628 -0.0138
  105OSM    HO310667   2.530   0.577  10.229  1.9045  1.0781  0.1340
  105OSM    C4S10668   2.591   0.740   9.968 -0.2430 -0.3498  0.2225
  105OSM    H4S10669   2.551   0.660   9.905 -1.5563 -1.7591  2.6521
  105OSM    C5S10670   2.607   0.868   9.930 -0.3590  0.1689  0.3970
  105OSM    H5S10671   2.634   0.944  10.005  1.1805  1.3159 -1.2051
  105OSM    C6S10672   2.591   0.920   9.790  0.2654  0.2955 -0.3725
  105OSM    H6S10673   2.685   0.972   9.764  0.3230  2.2452  3.1617
  105OSM    H6T10674   2.519   1.004   9.789 -0.8785 -0.5387  2.0957
  105OSM    C7S10675   2.556   0.826   9.670  0.6786 -0.1866  0.2465
  105OSM    H7S10676   2.455   0.787   9.691  0.1257 -0.1067 -2.0759
  105OSM    H7T10677   2.629   0.743   9.657 -0.8551 -1.5581  0.1115
  105OSM    C8S10678   2.549   0.901   9.536  0.4361  0.0716  0.6313
  105OSM    H8S10679   2.653   0.929   9.507 -0.8055  0.6459 -4.0617
  105OSM    H8T10680   2.495   0.997   9.549 -0.3229 -0.2894  0.1931
  105OSM    C9S10681   2.487   0.828   9.412 -1.3400 -0.0645  0.6138
  105OSM    H9S10682   2.389   0.780   9.435 -0.6246 -1.8689  0.0130
  105OSM    H9T10683   2.558   0.748   9.383 -1.4090 -0.1799  0.7604
  105OSM   C10S10684   2.475   0.926   9.291 -0.4110  0.0032 -0.0734
  105OSM   H10S10685   2.447   0.867   9.201 -0.2132 -1.0380  0.5425
  105OSM   H10T10686   2.578   0.959   9.268  0.2567 -0.6656  1.7906
  105OSM   C11S10687   2.367   1.037   9.297  0.0650 -0.5485 -0.3918
  105OSM   H11S10688   2.365   1.086   9.397 -0.2102 -0.3738 -0.4823
  105OSM   H11T10689   2.267   1.007   9.258  0.4279 -2.2793 -0.0864
  105OSM   C12S10690   2.392   1.151   9.190 -0.2230  0.3796 -0.4216
  105OSM   H12S10691   2.491   1.194   9.217 -0.4821  0.9946 -0.4349
  105OSM   H12T10692   2.314   1.227   9.212  0.2922  1.0331 -0.7795
  105OSM   C13S10693   2.371   1.097   9.049  0.0407  0.2614  0.2364
  105OSM   H13S10694   2.274   1.043   9.037 -0.3935  0.7068  1.6049
  105OSM   H13T10695   2.435   1.008   9.030 -1.1099 -0.4118 -0.6404
  105OSM   C14S10696   2.400   1.189   8.936  0.2746 -0.2021 -0.2683
  105OSM   H14S10697   2.511   1.200   8.933  0.6956 -2.2136  3.1210
  105OSM   H14T10698   2.341   1.280   8.960 -0.4167 -0.9017  0.8065
  105OSM   C15S10699   2.364   1.129   8.799 -0.3032 -0.1908  0.6069
  105OSM   H15S10700   2.277   1.061   8.809 -0.1766 -0.5347 -0.5769
  105OSM   H15T10701   2.444   1.059   8.769 -0.4858  0.3974 -1.3640
  105OSM   C16S10702   2.344   1.229   8.690  0.5711  0.1787  0.3185
  105OSM   H16S10703   2.253   1.288   8.715  0.5879  0.3480 -0.0225
  105OSM   H16T10704   2.329   1.168   8.598  1.3646 -0.9388  0.9021
  105OSM   C17S10705   2.466   1.316   8.671  0.1744 -0.6784 -0.5052
  105OSM   H17S10706   2.558   1.254   8.667  0.6186 -0.0215 -0.6353
  105OSM   H17T10707   2.481   1.384   8.757 -1.5805 -0.7285 -0.1290
  105OSM   C18S10708   2.468   1.397   8.539 -0.1166 -0.1177 -0.6576
  105OSM   H18S10709   2.563   1.456   8.540 -0.9047  1.1896  0.3089
  105OSM   H18T10710   2.393   1.478   8.556 -0.6013 -0.6655 -0.1509
  105OSM   H18U10711   2.443   1.353   8.441 -0.4770 -1.0508 -0.1533
  105OSM    C1F10712   2.967   0.604  10.024  0.0622  0.1343 -0.7070
  105OSM     OF10713   2.960   0.485  10.004  0.2942 -0.0818  0.1795
  105OSM    C2F10714   3.092   0.673  10.003 -0.0859  0.1548  0.2032
  105OSM    H2F10715   3.171   0.625  10.065  2.2049  2.1767 -0.9801
  105OSM    H2G10716   3.079   0.780  10.027  0.9496  0.6847 -1.4293
  105OSM    C3F10717   3.133   0.649   9.862 -0.4287 -0.1302  0.1454
  105OSM    H3F10718   3.148   0.540   9.851  1.2490 -0.0063  0.8216
  105OSM    H3G10719   3.238   0.681   9.843  0.4636 -2.0823  1.5318
  105OSM    C4F10720   3.045   0.712   9.758 -0.1530  0.5551  0.2067
  105OSM    H4F10721   3.016   0.818   9.771 -0.9421  0.4752 -0.7552
  105OSM    H4G10722   2.951   0.653   9.762 -1.3584  2.5113  2.4008
  105OSM    C5F10723   3.101   0.699   9.615 -0.0153 -0.1618 -0.3593
  105OSM    H5F10724   3.103   0.590   9.592  2.2449 -0.6938  1.8806
  105OSM    H5G10725   3.206   0.737   9.612 -0.2805  0.7078  0.7552
  105OSM    C6F10726   3.023   0.780   9.513 -0.1758  0.0180 -1.1738
  105OSM    H6F10727   3.038   0.886   9.541 -3.3967  0.1673  0.4503
  105OSM    H6G10728   2.918   0.747   9.531  0.8144 -1.4166  3.4002
  105OSM    C7F10729   3.062   0.756   9.370 -0.2723  0.0265  0.0891
  105OSM    H7F10730   3.089   0.649   9.371  0.0505  0.0493 -1.6477
  105OSM    H7G10731   3.156   0.806   9.337  1.6585 -2.7283  1.0156
  105OSM    C8F10732   2.949   0.788   9.270  0.5517 -0.1063  0.2473
  105OSM    H8F10733   2.947   0.899   9.272  1.1303 -0.0890  1.8962
  105OSM    H8G10734   2.848   0.755   9.303  1.0155 -0.7871  1.0428
  105OSM    C9F10735   2.983   0.727   9.136  0.0211  0.0412 -0.2098
  105OSM    H9F10736   3.083   0.685   9.116  0.3650  1.0176 -0.5745
  105OSM   C10F10737   2.898   0.728   9.036  0.1198 -0.3170  0.3980
  105OSM   H10F10738   2.922   0.655   8.957 -0.6817 -0.0632 -0.0962
  105OSM   C11F10739   2.759   0.777   9.026  0.4458  0.3174  0.2427
  105OSM   H11F10740   2.748   0.883   9.059 -1.8325  0.7315 -1.5408
  105OSM   H11G10741   2.693   0.724   9.099  0.8282  0.6165  0.8207
  105OSM   C12F10742   2.693   0.768   8.884 -0.1146 -0.0484 -0.7083
  105OSM   H12F10743   2.591   0.810   8.897 -0.2469 -0.3745 -0.6881
  105OSM   H12G10744   2.696   0.666   8.841 -0.7993  0.9353 -3.2742
  105OSM   C13F10745   2.763   0.863   8.792  0.6329 -0.7102 -0.2496
  105OSM   H13F10746   2.868   0.846   8.761  0.7965  1.8829 -1.4543
  105OSM   H13G10747   2.768   0.960   8.846  0.6589  0.5342 -2.3792
  105OSM   C14F10748   2.687   0.883   8.661 -0.3436 -0.1616  0.0364
  105OSM   H14F10749   2.584   0.913   8.691  0.8026  2.0793  2.1206
  105OSM   H14G10750   2.675   0.786   8.609 -1.3750 -0.4510  0.7757
  105OSM   C15F10751   2.741   0.991   8.563 -0.0801  0.6721 -0.6384
  105OSM   H15F10752   2.833   0.962   8.508  2.4011  3.1847  1.8234
  105OSM   H15G10753   2.770   1.071   8.636 -2.0691 -1.1368  2.3621
  105OSM   C16F10754   2.649   1.057   8.470  0.2320 -0.2317 -0.2959
  105OSM   H16F10755   2.691   1.141   8.410 -0.0275  0.0001 -0.1516
  105OSM   H16G10756   2.559   1.098   8.520  0.2800 -0.5040  0.0134
  105OSM   C17F10757   2.592   0.971   8.359 -0.2682 -0.2883 -0.2855
  105OSM   H17F10758   2.500   1.019   8.319 -0.9716 -1.4055 -0.0656
  105OSM   H17G10759   2.573   0.868   8.396 -0.1514  0.3609  1.6636
  105OSM   C18F10760   2.698   0.965   8.239 -0.4433  0.5200  0.1286
  105OSM   H18F10761   2.793   0.922   8.277  0.6126  0.7304 -2.1248
  105OSM   H18G10762   2.702   1.063   8.187 -2.8952  0.7528  0.2524
  105OSM   H18H10763   2.672   0.888   8.163 -2.5317 -0.6235  1.9018
  106OSM      N10764   2.209   1.001  10.788  0.0308  0.1681  0.0623
  106OSM    C1510765   2.276   0.911  10.887 -0.4616  0.6518 -0.5461
  106OSM   H15A10766   2.226   0.816  10.900 -0.9430  0.8062 -1.1992
  106OSM   H15B10767   2.295   0.952  10.985  1.0824  0.8532 -0.9028
  106OSM   H15C10768   2.372   0.879  10.849 -0.0020  0.3430  0.8276
  106OSM    C1410769   2.088   1.055  10.850  0.3598 -0.1354 -0.2424
  106OSM   H14A10770   2.009   0.982  10.844  1.0125 -0.7448 -2.3506
  106OSM   H14B10771   2.042   1.129  10.787 -0.5786 -0.3888  0.1319
  106OSM   H14C10772   2.098   1.080  10.955 -4.4730 -1.8118  0.8990
  106OSM    C1310773   2.296   1.114  10.752 -0.0038  0.4155  0.0663
  106OSM   H13A10774   2.282   1.197  10.820 -1.9301  2.3359 -2.4594
  106OSM   H13B10775   2.270   1.156  10.656  1.6619  3.5263  0.8091
  106OSM   H13C10776   2.398   1.080  10.760  0.3797  1.7229  1.3662
  106OSM    C1210777   2.181   0.918  10.663  0.0499 -0.4326  0.5044
  106OSM   H12A10778   2.159   0.988  10.583  2.1419  0.0222  0.2764
  106OSM   H12B10779   2.090   0.860  10.674 -1.8097  2.0026 -1.0415
  106OSM    C1110780   2.293   0.820  10.610 -0.1458 -0.1327  0.0575
  106OSM   H11A10781   2.388   0.877  10.612  1.1347 -2.1268 -0.9621
  106OSM   H11B10782   2.265   0.795  10.506 -1.4994 -1.1810  0.6404
  106OSM      P10783   2.214   0.600  10.714 -0.0258 -0.2083  0.3230
  106OSM    O1310784   2.292   0.498  10.785  0.1292  0.2629 -0.4563
  106OSM    O1410785   2.104   0.666  10.790 -0.5333  0.1942  0.9917
  106OSM    O1110786   2.162   0.539  10.578  0.2342  0.0389 -0.1144
  106OSM    O1210787   2.320   0.708  10.682 -0.2205  0.2398 -0.9744
  106OSM    C1S10788   2.256   0.478  10.486  0.1993 -0.1868 -0.7408
  106OSM    H1S10789   2.276   0.373  10.517 -0.9670 -0.0368  0.5756
  106OSM    H1T10790   2.351   0.536  10.476  0.3775 -0.5996 -1.5475
  106OSM     NF10791   2.291   0.422  10.248  0.6443 -0.5628  0.1003
  106OSM    HNF10792   2.319   0.475  10.168 -2.1342 -0.2925 -0.7882
  106OSM    C2S10793   2.196   0.481  10.344 -0.2622  0.3004  0.4541
  106OSM    H2S10794   2.106   0.416  10.340  0.0964 -0.1578 -0.4053
  106OSM    C3S10795   2.147   0.625  10.303 -0.0490  0.0596 -0.4635
  106OSM    H3S10796   2.223   0.707  10.308 -0.5716  0.5382 -0.1987
  106OSM     O310797   2.046   0.679  10.401  0.1575  0.0136  0.3738
  106OSM    HO310798   2.073   0.624  10.475  1.3458 -0.5750 -0.4644
  106OSM    C4S10799   2.094   0.622  10.165  0.3789 -0.3729  0.4480
  106OSM    H4S10800   1.991   0.584  10.165  0.4682 -0.6264 -0.0582
  106OSM    C5S10801   2.167   0.656  10.056 -0.5964 -0.2139  0.2824
  106OSM    H5S10802   2.269   0.696  10.066 -0.0491 -1.2189 -0.9795
  106OSM    C6S10803   2.121   0.653   9.908 -0.4852  0.0009  0.3349
  106OSM    H6S10804   2.101   0.756   9.874  1.0815  0.4081  0.5676
  106OSM    H6T10805   2.025   0.597   9.908 -0.4542 -0.1221 -2.0690
  106OSM    C7S10806   2.217   0.586   9.810 -0.5259 -0.1925  0.0743
  106OSM    H7S10807   2.218   0.483   9.853 -0.5380 -0.0608  0.3969
  106OSM    H7T10808   2.316   0.634   9.822 -1.3810  1.5904  0.2887
  106OSM    C8S10809   2.174   0.594   9.659 -0.2205 -0.4643 -0.8589
  106OSM    H8S10810   2.167   0.704   9.644 -2.2590 -0.2009  1.4586
  106OSM    H8T10811   2.070   0.555   9.658  0.2216 -2.0413  2.3682
  106OSM    C9S10812   2.272   0.529   9.564 -0.3541 -0.1289 -0.0012
  106OSM    H9S10813   2.367   0.582   9.587 -0.9312 -0.1292  2.6377
  106OSM    H9T10814   2.249   0.561   9.460  1.3130 -0.9619 -0.6567
  106OSM   C10S10815   2.278   0.368   9.556  0.1901 -0.3859 -0.0083
  106OSM   H10S10816   2.263   0.321   9.655 -0.6463  0.9282  0.5098
  106OSM   H10T10817   2.383   0.347   9.527  0.7957  0.6232  1.3750
  106OSM   C11S10818   2.168   0.306   9.471 -0.2509  0.0633  0.5460
  106OSM   H11S10819   2.076   0.359   9.504 -0.9587  1.0746 -2.7144
  106OSM   H11T10820   2.163   0.195   9.475  2.3715 -0.1769 -0.6849
  106OSM   C12S10821   2.169   0.337   9.317  0.0300 -0.2464 -0.1183
  106OSM   H12S10822   2.272   0.355   9.280 -0.6472 -0.8956 -2.5244
  106OSM   H12T10823   2.110   0.431   9.319  0.8979  0.4081 -2.4564
  106OSM   C13S10824   2.088   0.224   9.239 -0.0843 -0.6227  0.1404
  106OSM   H13S10825   1.989   0.212   9.289 -0.0159  0.5887  0.6172
  106OSM   H13T10826   2.140   0.127   9.252  0.7544 -0.1812  0.1242
  106OSM   C14S10827   2.060   0.258   9.092  0.4691 -0.7471  0.2086
  106OSM   H14S10828   1.986   0.339   9.078  1.2384  0.0888  0.8987
  106OSM   H14T10829   2.016   0.161   9.061  2.4006 -1.0865 -1.7961
  106OSM   C15S10830   2.184   0.284   9.000  0.4079  0.3771  0.6366
  106OSM   H15S10831   2.277   0.275   9.060  1.1633 -0.3244 -0.5986
  106OSM   H15T10832   2.181   0.391   8.970 -1.0317  0.4211  0.8785
  106OSM   C16S10833   2.185   0.209   8.863  0.4408  0.3801 -0.0775
  106OSM   H16S10834   2.181   0.101   8.888 -1.0614  1.1571  3.7822
  106OSM   H16T10835   2.279   0.224   8.806  0.6376 -0.4305  0.0179
  106OSM   C17S10836   2.063   0.244   8.780  0.2709  0.4820  0.0233
  106OSM   H17S10837   2.061   0.355   8.775 -1.6217  0.4363 -1.0605
  106OSM   H17T10838   1.969   0.213   8.830  0.5934 -0.1151  0.2664
  106OSM   C18S10839   2.063   0.186   8.635 -0.2080  0.4273 -0.7453
  106OSM   H18S10840   2.066   0.076   8.628  0.6376  0.5471 -2.8316
  106OSM   H18T10841   2.157   0.219   8.585 -0.2189 -0.0892 -1.1091
  106OSM   H18U10842   1.975   0.213   8.574 -1.3097  0.3668  0.7591
  106OSM    C1F10843   2.316   0.293  10.256 -0.2882  0.0169  0.3820
  106OSM     OF10844   2.260   0.227  10.341  0.0132 -0.3764 -0.5182
  106OSM    C2F10845   2.419   0.233  10.167 -0.5600  0.2366 -0.0350
  106OSM    H2F10846   2.486   0.166  10.226 -2.2758  0.3365  2.2060
  106OSM    H2G10847   2.474   0.312  10.113  0.7572 -1.0907 -0.7062
  106OSM    C3F10848   2.335   0.151  10.068 -0.5582  0.1981 -0.2283
  106OSM    H3F10849   2.241   0.204  10.040 -0.0732  1.4908  0.4804
  106OSM    H3G10850   2.303   0.061  10.123 -3.7778  1.9611  1.0351
  106OSM    C4F10851   2.410   0.105   9.941  0.6979 -0.0880 -0.0275
  106OSM    H4F10852   2.511   0.077   9.977  0.6155 -0.1888  0.1267
  106OSM    H4G10853   2.422   0.192   9.873 -1.7197 -1.1943 -2.0279
  106OSM    C5F10854   2.344  -0.007   9.860  0.6639 -0.1287  0.6312
  106OSM    H5F10855   2.244   0.033   9.833  0.8116  0.0062  0.2754
  106OSM    H5G10856   2.331  -0.096   9.925 -0.8475  0.7806  1.6300
  106OSM    C6F10857   2.411  -0.042   9.724 -0.0769 -1.2184  0.1132
  106OSM    H6F10858   2.519  -0.050   9.750 -0.3293  1.4673  2.5680
  106OSM    H6G10859   2.399   0.027   9.638 -0.6621 -4.4513 -2.5722
  106OSM    C7F10860   2.362  -0.176   9.672 -0.2484  0.0773 -0.2651
  106OSM    H7F10861   2.256  -0.185   9.703  0.1880  0.3878  1.4379
  106OSM    H7G10862   2.422  -0.251   9.729  1.2670  1.0001 -0.6017
  106OSM    C8F10863   2.376  -0.199   9.522 -0.2169 -0.0186  0.9644
  106OSM    H8F10864   2.323  -0.118   9.466 -1.8354 -0.2086  2.1359
  106OSM    H8G10865   2.336  -0.299   9.498  1.7740 -1.2434  2.4325
  106OSM    C9F10866   2.525  -0.191   9.480  0.6187  0.8012  0.0449
  106OSM    H9F10867   2.596  -0.180   9.563  2.2231 -0.5543 -1.0658
  106OSM   C10F10868   2.575  -0.189   9.350  0.1867  1.0124  1.6913
  106OSM   H10F10869   2.682  -0.190   9.325 -0.6622 -1.0370 -2.9496
  106OSM   C11F10870   2.497  -0.199   9.217 -0.1166  0.0437 -0.6345
  106OSM   H11F10871   2.525  -0.117   9.147  0.0034  0.5583  0.0008
  106OSM   H11G10872   2.388  -0.190   9.237  0.0137  3.2931 -0.7991
  106OSM   C12F10873   2.513  -0.328   9.134 -0.4938 -0.0675 -0.5108
  106OSM   H12F10874   2.620  -0.333   9.106 -0.4922  1.8909 -1.0283
  106OSM   H12G10875   2.454  -0.316   9.040  1.2258  0.7480 -1.5522
  106OSM   C13F10876   2.462  -0.458   9.196 -1.0160  0.5291  0.3091
  106OSM   H13F10877   2.351  -0.458   9.201 -1.2873  0.7964 -3.0705
  106OSM   H13G10878   2.490  -0.471   9.302  0.5996 -1.4272 -0.2895
  106OSM   C14F10879   2.489  -0.582   9.102  0.3124  0.1859 -0.4839
  106OSM   H14F10880   2.483  -0.669   9.170  1.7224 -0.9100 -1.7074
  106OSM   H14G10881   2.596  -0.579   9.074  0.6991 -3.6295  0.0452
  106OSM   C15F10882   2.395  -0.605   8.990 -0.7126 -0.1073  0.3797
  106OSM   H15F10883   2.400  -0.527   8.911 -0.0400 -0.9329 -0.4184
  106OSM   H15G10884   2.297  -0.603   9.042 -1.0532  0.0449 -0.2441
  106OSM   C16F10885   2.413  -0.744   8.922 -0.1965  0.3548 -0.0996
  106OSM   H16F10886   2.411  -0.820   9.003 -0.5260  0.9812  0.4921
  106OSM   H16G10887   2.512  -0.750   8.871 -1.1382 -1.5484 -1.8598
  106OSM   C17F10888   2.302  -0.771   8.820 -0.1450 -0.2896  0.0365
  106OSM   H17F10889   2.209  -0.794   8.878  0.5914 -1.0700  0.9484
  106OSM   H17G10890   2.344  -0.860   8.767  0.3851 -0.0837  0.1109
  106OSM   C18F10891   2.272  -0.650   8.734 -0.4361 -0.4622  0.1119
  106OSM   H18F10892   2.356  -0.590   8.692 -2.6569  1.5615 -1.6975
  106OSM   H18G10893   2.200  -0.587   8.789  1.3685 -0.1746  2.2933
  106OSM   H18H10894   2.220  -0.677   8.639  0.4460 -1.7775 -0.0363
  107OSM      N10895   5.878   5.206  10.950 -0.4904  0.3690  0.2850
  107OSM    C1510896   5.928   5.242  10.814  0.2721 -0.0250 -0.0182
  107OSM   H15A10897   5.878   5.188  10.735 -1.3493  0.6100  0.5215
  107OSM   H15B10898   6.035   5.230  10.806  0.6159  3.3870 -2.2455
  107OSM   H15C10899   5.912   5.346  10.792 -1.9801  0.0748  1.7271
  107OSM    C1410900   5.730   5.205  10.941  0.0172 -0.0343 -0.8792
  107OSM   H14A10901   5.693   5.134  10.869 -0.3392 -0.9723  0.1867
  107OSM   H14B10902   5.715   5.301  10.894  3.3271  1.1981  0.2570
  107OSM   H14C10903   5.677   5.186  11.033  2.3094 -1.0869  0.3130
  107OSM    C1310904   5.934   5.076  11.002 -0.2488 -0.0546 -0.5217
  107OSM   H13A10905   6.038   5.090  11.029 -0.1929  1.0598 -1.2496
  107OSM   H13B10906   5.943   4.992  10.934 -1.1610 -0.5219 -0.0878
  107OSM   H13C10907   5.884   5.035  11.088  1.2671  1.5245  1.1962
  107OSM    C1210908   5.911   5.312  11.051 -0.6487 -0.1458 -0.6413
  107OSM   H12A10909   6.019   5.307  11.061 -0.4409  2.9303 -0.4148
  107OSM   H12B10910   5.862   5.290  11.145 -0.4574 -2.0540 -0.9408
  107OSM    C1110911   5.861   5.462  11.023  0.2835 -0.0115  0.2614
  107OSM   H11A10912   5.884   5.528  11.110  0.8768  0.3997 -0.1983
  107OSM   H11B10913   5.752   5.473  11.006  0.4093  0.5115 -0.2375
  107OSM      P10914   5.882   5.630  10.824 -0.1068  0.1186 -0.0134
  107OSM    O1310915   5.778   5.565  10.739 -0.7463 -0.1305  0.1447
  107OSM    O1410916   5.849   5.747  10.905  0.8114 -0.3406 -0.0123
  107OSM    O1110917   6.001   5.669  10.732 -0.7287  0.1841 -0.5202
  107OSM    O1210918   5.937   5.523  10.916  0.1862  0.6485 -0.2910
  107OSM    C1S10919   6.083   5.580  10.652  0.7723  0.3020 -0.8796
  107OSM    H1S10920   6.065   5.475  10.683 -0.6345  1.2549  1.7976
  107OSM    H1T10921   6.190   5.607  10.659  1.0217 -0.3123 -2.1010
  107OSM     NF10922   6.113   5.491  10.419 -0.3988  0.1788  0.6116
  107OSM    HNF10923   6.179   5.534  10.357  1.8528 -1.0510  2.0053
  107OSM    C2S10924   6.042   5.586  10.500 -0.2509 -0.5854  0.2948
  107OSM    H2S10925   5.933   5.567  10.489 -0.6090 -0.2440  2.6832
  107OSM    C3S10926   6.052   5.737  10.445 -0.0070  0.9054 -0.5736
  107OSM    H3S10927   6.161   5.754  10.431  0.4645 -1.8099 -0.6192
  107OSM     O310928   6.011   5.840  10.530  0.1921 -0.3424 -0.3796
  107OSM    HO310929   6.002   5.801  10.617  0.6020  0.0054 -0.1807
  107OSM    C4S10930   5.990   5.740  10.304  1.0652 -0.5523  0.4369
  107OSM    H4S10931   6.065   5.713  10.228  0.3548 -0.7710 -0.1971
  107OSM    C5S10932   5.868   5.786  10.273  0.1577 -0.9023 -0.0918
  107OSM    H5S10933   5.806   5.838  10.347 -1.2513  0.7403 -2.3049
  107OSM    C6S10934   5.802   5.787  10.139  0.1524 -0.0481  0.5660
  107OSM    H6S10935   5.774   5.893  10.123 -1.0042 -0.2223  1.2952
  107OSM    H6T10936   5.714   5.720  10.142 -0.3738  0.6496  1.1893
  107OSM    C7S10937   5.897   5.753  10.022 -0.0465  0.0415  0.4093
  107OSM    H7S10938   5.933   5.648  10.012  0.1495  0.1194  0.2768
  107OSM    H7T10939   5.992   5.811  10.022  1.4247 -2.1445 -1.2598
  107OSM    C8S10940   5.832   5.796   9.884  0.3297  0.4010 -0.3122
  107OSM    H8S10941   5.776   5.891   9.897  0.5631  0.2499  2.4277
  107OSM    H8T10942   5.765   5.714   9.850  1.7256 -0.0279 -2.2455
  107OSM    C9S10943   5.935   5.810   9.768 -0.1764  0.7561 -0.3409
  107OSM    H9S10944   5.985   5.712   9.756  0.3467  0.6133  2.3175
  107OSM    H9T10945   6.019   5.882   9.785  1.8846 -1.2253 -1.5150
  107OSM   C10S10946   5.879   5.852   9.635  0.4637  0.3905  0.1992
  107OSM   H10S10947   5.830   5.952   9.642  0.1857  0.4471 -1.9083
  107OSM   H10T10948   5.805   5.781   9.593  0.1939 -0.0704  1.4296
  107OSM   C11S10949   5.992   5.856   9.533  0.2321  0.4332 -0.3107
  107OSM   H11S10950   6.035   5.754   9.527 -0.2116  0.0156  2.4189
  107OSM   H11T10951   6.079   5.923   9.551  1.3138 -1.2926  1.1710
  107OSM   C12S10952   5.945   5.880   9.387 -0.2168 -0.3059 -0.2307
  107OSM   H12S10953   5.900   5.980   9.373 -0.4663 -0.2369  0.9578
  107OSM   H12T10954   5.865   5.808   9.360 -0.9247  0.0054  0.9909
  107OSM   C13S10955   6.059   5.842   9.284  0.2307 -0.2883 -0.2523
  107OSM   H13S10956   6.095   5.739   9.308  1.7314  0.5550  1.3694
  107OSM   H13T10957   6.148   5.903   9.311 -0.3991  0.4084  0.2750
  107OSM   C14S10958   6.028   5.852   9.135  0.3944 -0.3241 -0.7106
  107OSM   H14S10959   6.025   5.955   9.094  0.3148  0.0504  0.2088
  107OSM   H14T10960   5.931   5.802   9.113 -0.4570 -0.5061  2.8610
  107OSM   C15S10961   6.152   5.792   9.051 -0.0587 -0.1068 -0.3182
  107OSM   H15S10962   6.153   5.687   9.086  1.2470 -0.1990 -0.5638
  107OSM   H15T10963   6.245   5.842   9.087  0.6981 -3.2497  2.5934
  107OSM   C16S10964   6.138   5.809   8.895  0.8498 -0.1638 -0.2896
  107OSM   H16S10965   6.124   5.917   8.871  1.9023 -0.3823 -2.0792
  107OSM   H16T10966   6.042   5.757   8.875 -1.3028  2.3492  2.4811
  107OSM   C17S10967   6.254   5.743   8.811 -0.2332 -0.3722  0.4204
  107OSM   H17S10968   6.272   5.643   8.854  0.2828 -0.0499  0.9696
  107OSM   H17T10969   6.348   5.803   8.808 -1.0181  0.8612 -0.8042
  107OSM   C18S10970   6.202   5.721   8.665 -0.1385  0.2062 -0.5316
  107OSM   H18S10971   6.092   5.723   8.648 -0.5038  4.5720  1.0716
  107OSM   H18T10972   6.247   5.632   8.616 -3.0945 -2.1010  0.6317
  107OSM   H18U10973   6.229   5.803   8.595 -1.3404 -0.3648 -1.7318
  107OSM    C1F10974   6.107   5.361  10.423  0.5275  0.7398  0.7252
  107OSM     OF10975   6.032   5.295  10.495 -0.1121 -0.2957  0.0048
  107OSM    C2F10976   6.202   5.297  10.327  0.0756  0.1782 -0.4114
  107OSM    H2F10977   6.306   5.318  10.361  0.0879  1.4431 -1.1602
  107OSM    H2G10978   6.190   5.354  10.232  3.3795  0.5448 -0.7354
  107OSM    C3F10979   6.176   5.150  10.304 -0.0225 -0.2786 -0.9307
  107OSM    H3F10980   6.069   5.143  10.274 -0.6637  0.6797  0.9727
  107OSM    H3G10981   6.185   5.095  10.400 -2.0637  0.8977  0.0157
  107OSM    C4F10982   6.265   5.077  10.195 -0.2152  0.6094  0.2675
  107OSM    H4F10983   6.239   4.970  10.213  2.6766 -0.6698 -2.2723
  107OSM    H4G10984   6.374   5.091  10.214  0.1119  0.0213 -1.0575
  107OSM    C5F10985   6.226   5.121  10.050 -0.3956 -0.3653 -0.2550
  107OSM    H5F10986   6.274   5.220  10.045 -1.5148  0.2727  1.0372
  107OSM    H5G10987   6.115   5.124  10.054 -0.4119  3.7186  0.3733
  107OSM    C6F10988   6.280   5.023   9.936 -0.1821 -0.1891 -0.4702
  107OSM    H6F10989   6.230   4.924   9.941 -2.8207  0.9242 -2.2779
  107OSM    H6G10990   6.388   5.010   9.961 -0.0759  0.3694 -0.6221
  107OSM    C7F10991   6.273   5.066   9.790  0.1610 -1.1535 -0.1243
  107OSM    H7F10992   6.325   5.162   9.769 -0.9254 -1.1710 -3.3774
  107OSM    H7G10993   6.166   5.079   9.762  0.2699  0.4959  0.1538
  107OSM    C8F10994   6.346   4.975   9.683 -0.0655 -0.0187  0.5900
  107OSM    H8F10995   6.289   4.984   9.588  0.6560 -0.2199  0.1324
  107OSM    H8G10996   6.341   4.870   9.718 -0.7250  0.1575  1.0662
  107OSM    C9F10997   6.492   5.010   9.648 -0.5527 -0.2567 -0.3408
  107OSM    H9F10998   6.575   5.008   9.721 -2.6987 -0.8370  2.2193
  107OSM   C10F10999   6.524   5.067   9.529 -0.1753  0.6621 -0.0022
  107OSM   H10F11000   6.627   5.095   9.504  1.0068 -2.5206  0.7810
  107OSM   C11F11001   6.424   5.083   9.416 -0.0146 -0.2040  0.1414
  107OSM   H11F11002   6.449   5.165   9.346 -1.4323 -0.7087 -0.9898
  107OSM   H11G11003   6.322   5.117   9.442  0.6612  3.2573 -1.2125
  107OSM   C12F11004   6.401   4.961   9.320 -0.3681  0.7557  0.0831
  107OSM   H12F11005   6.320   4.900   9.365 -2.1695  1.1440 -2.3980
  107OSM   H12G11006   6.487   4.890   9.326 -0.7856  0.2920  0.8270
  107OSM   C13F11007   6.373   5.008   9.183 -0.2285 -0.7962  0.4159
  107OSM   H13F11008   6.447   5.082   9.145 -0.2342 -2.1120 -2.4314
  107OSM   H13G11009   6.272   5.055   9.185 -0.0380  0.1807 -3.6566
  107OSM   C14F11010   6.379   4.902   9.076 -0.1209  0.8139 -0.1458
  107OSM   H14F11011   6.325   4.809   9.105  2.4756 -1.1172 -1.1187
  107OSM   H14G11012   6.484   4.869   9.061 -0.9568 -1.2176 -2.0611
  107OSM   C15F11013   6.333   4.953   8.940 -0.3571 -0.1468  0.1088
  107OSM   H15F11014   6.383   5.051   8.924  0.8850 -0.9510 -1.2007
  107OSM   H15G11015   6.224   4.971   8.930 -0.4811 -0.4383  0.8623
  107OSM   C16F11016   6.389   4.855   8.824  0.5591  0.5367 -0.5741
  107OSM   H16F11017   6.342   4.755   8.838  0.7743  0.2190 -1.9410
  107OSM   H16G11018   6.498   4.837   8.831  0.2255 -0.9491  2.0888
  107OSM   C17F11019   6.356   4.903   8.677 -0.7697  0.7014  0.2061
  107OSM   H17F11020   6.418   4.994   8.659  0.8170 -0.2524  0.6861
  107OSM   H17G11021   6.252   4.917   8.639 -0.7933 -1.7179 -0.7690
  107OSM   C18F11022   6.424   4.793   8.581 -0.5766  0.4642  0.1073
  107OSM   H18F11023   6.533   4.808   8.595 -0.5882 -0.5782  1.4930
  107OSM   H18G11024   6.393   4.815   8.476 -0.2416 -3.8063 -1.0501
  107OSM   H18H11025   6.387   4.693   8.609 -2.1563  0.2123 -2.5280
  108OSM      N11026   1.669   6.002  10.804 -0.0660  0.3847 -0.1307
  108OSM    C1511027   1.765   5.912  10.723  0.3134  0.2938  0.7472
  108OSM   H15A11028   1.818   5.836  10.778  0.6612 -0.2416 -0.3186
  108OSM   H15B11029   1.838   5.977  10.678 -0.9068  1.0262 -0.2456
  108OSM   H15C11030   1.708   5.860  10.648  2.3858 -2.1739  0.7635
  108OSM    C1411031   1.577   5.910  10.876 -0.3623 -0.6915 -0.6092
  108OSM   H14A11032   1.523   5.841  10.812 -0.1099  0.0510 -1.6499
  108OSM   H14B11033   1.496   5.958  10.928 -1.0012 -1.2179 -1.0909
  108OSM   H14C11034   1.638   5.851  10.943 -0.7953 -1.9859 -1.3075
  108OSM    C1311035   1.750   6.077  10.902  0.8136  0.1818 -0.2866
  108OSM   H13A11036   1.824   6.138  10.852  0.0082  0.4943 -1.1284
  108OSM   H13B11037   1.812   6.009  10.958  0.4107 -0.1328 -0.2214
  108OSM   H13C11038   1.678   6.127  10.966  0.4728 -0.4284 -0.1888
  108OSM    C1211039   1.597   6.101  10.712  0.2232 -0.3486  0.2781
  108OSM   H12A11040   1.515   6.149  10.763 -1.5220  0.0205 -2.6316
  108OSM   H12B11041   1.548   6.054  10.627 -1.7155  0.4745  0.8836
  108OSM    C1111042   1.678   6.214  10.643  0.3208 -0.0226 -0.1994
  108OSM   H11A11043   1.716   6.273  10.729 -0.1509 -3.7683  2.8160
  108OSM   H11B11044   1.605   6.278  10.588 -0.8025  1.0017  2.3085
  108OSM      P11045   1.762   6.094  10.412 -0.4352  0.4408  0.0790
  108OSM    O1311046   1.826   6.180  10.309 -0.4268  0.1140  0.0603
  108OSM    O1411047   1.807   5.955  10.412 -0.0291  0.4176  0.3931
  108OSM    O1111048   1.609   6.087  10.381  0.2320  0.2416 -0.1905
  108OSM    O1211049   1.775   6.153  10.563 -0.3624  0.5704  0.3311
  108OSM    C1S11050   1.551   6.036  10.265 -0.2500 -0.2477 -0.2588
  108OSM    H1S11051   1.611   6.072  10.178  2.2641  0.8616  1.8179
  108OSM    H1T11052   1.445   6.071  10.266  0.3222  1.5942  1.5180
  108OSM     NF11053   1.494   5.846  10.124  0.1297  0.1883  0.2835
  108OSM    HNF11054   1.400   5.816  10.110  0.8090 -1.5571 -0.9276
  108OSM    C2S11055   1.538   5.875  10.256  0.0736  0.2604 -0.3622
  108OSM    H2S11056   1.638   5.828  10.265 -0.0899  0.1026  0.7764
  108OSM    C3S11057   1.458   5.831  10.384 -0.8245  0.3294  0.6288
  108OSM    H3S11058   1.364   5.891  10.380 -2.0603 -1.5190  0.6864
  108OSM     O311059   1.524   5.844  10.510  0.3499 -0.7179 -0.4171
  108OSM    HO311060   1.614   5.875  10.499 -0.1043  0.9632  0.3411
  108OSM    C4S11061   1.412   5.686  10.367  0.0708 -0.4547 -0.4489
  108OSM    H4S11062   1.312   5.665  10.327 -1.1856  2.8753  0.5756
  108OSM    C5S11063   1.495   5.582  10.389 -0.2476 -0.3640  0.1139
  108OSM    H5S11064   1.594   5.606  10.430 -0.7337  0.2780  0.9470
  108OSM    C6S11065   1.463   5.436  10.368  0.2807  0.7442  0.0741
  108OSM    H6S11066   1.472   5.379  10.463  0.1196  0.2630 -0.1953
  108OSM    H6T11067   1.554   5.399  10.316 -0.4396  0.2189 -0.8566
  108OSM    C7S11068   1.331   5.399  10.303 -0.3139 -0.5747 -0.2493
  108OSM    H7S11069   1.313   5.457  10.210  0.9916 -3.0618 -2.1572
  108OSM    H7T11070   1.256   5.434  10.378  2.7998  1.4966  2.1857
  108OSM    C8S11071   1.294   5.260  10.274 -0.1563  0.0724 -0.2481
  108OSM    H8S11072   1.185   5.242  10.264 -0.1871  0.5921 -0.9010
  108OSM    H8T11073   1.335   5.200  10.358 -0.7920  1.6907  1.2835
  108OSM    C9S11074   1.364   5.191  10.156 -0.0391  0.2142 -0.2954
  108OSM    H9S11075   1.470   5.173  10.185 -1.0180 -1.2919  2.7050
  108OSM    H9T11076   1.355   5.268  10.075  1.6561 -0.2724 -1.0079
  108OSM   C10S11077   1.301   5.061  10.111 -0.5948 -0.4906 -0.3415
  108OSM   H10S11078   1.192   5.079  10.098 -0.3460  1.1084 -0.4509
  108OSM   H10T11079   1.329   4.990  10.191  1.3418  2.1963  1.5538
  108OSM   C11S11080   1.351   5.021   9.969 -0.0620  0.6453 -0.0536
  108OSM   H11S11081   1.439   4.957   9.990 -1.3038 -1.5354 -1.1616
  108OSM   H11T11082   1.380   5.101   9.897 -0.8828  1.5845  0.6233
  108OSM   C12S11083   1.259   4.932   9.885 -0.1424 -0.1530 -0.6766
  108OSM   H12S11084   1.165   4.981   9.852 -0.8476 -1.0499 -0.0449
  108OSM   H12T11085   1.231   4.842   9.944  0.9580  0.0032  0.1105
  108OSM   C13S11086   1.323   4.886   9.753  0.4315  0.3725  0.1418
  108OSM   H13S11087   1.410   4.818   9.767 -1.4104 -1.9853  0.9119
  108OSM   H13T11088   1.348   4.968   9.683 -1.2473  0.1889 -0.7052
  108OSM   C14S11089   1.211   4.805   9.677  0.0600 -0.0855 -0.0418
  108OSM   H14S11090   1.116   4.858   9.699  0.5808  1.2734 -0.9067
  108OSM   H14T11091   1.209   4.697   9.699 -0.3733  0.1128  0.9425
  108OSM   C15S11092   1.238   4.814   9.523 -0.4931  0.0813  0.0121
  108OSM   H15S11093   1.334   4.761   9.503  0.1400  1.2516 -0.1160
  108OSM   H15T11094   1.255   4.922   9.505  1.3810 -0.1483  0.1729
  108OSM   C16S11095   1.121   4.764   9.443  0.0512  0.2568 -0.6875
  108OSM   H16S11096   1.029   4.794   9.498 -1.2658 -2.3372 -1.3031
  108OSM   H16T11097   1.135   4.654   9.458  0.9904  0.7435  3.2436
  108OSM   C17S11098   1.131   4.793   9.295  0.7358 -0.3691 -0.3119
  108OSM   H17S11099   1.238   4.776   9.270  0.5970 -0.7686 -0.6507
  108OSM   H17T11100   1.109   4.900   9.275  1.6005 -0.2654 -0.7613
  108OSM   C18S11101   1.031   4.710   9.208 -0.1399  0.2207  0.0290
  108OSM   H18S11102   1.025   4.601   9.230 -3.0369  0.6109  1.5404
  108OSM   H18T11103   1.040   4.722   9.098 -0.2054  2.3624  0.2248
  108OSM   H18U11104   0.931   4.748   9.234 -0.4439 -0.5123 -0.0367
  108OSM    C1F11105   1.567   5.860  10.014  0.4512  0.2649  0.2054
  108OSM     OF11106   1.683   5.890  10.024 -0.1179 -0.4722  0.4948
  108OSM    C2F11107   1.501   5.823   9.891  0.5196  0.3774 -0.3115
  108OSM    H2F11108   1.396   5.860   9.897  0.7180  0.6993  1.9008
  108OSM    H2G11109   1.505   5.714   9.872  1.1836  0.5233 -1.1220
  108OSM    C3F11110   1.561   5.909   9.770 -0.5657 -0.6701  0.0613
  108OSM    H3F11111   1.665   5.879   9.742 -1.0554  0.9252 -4.1423
  108OSM    H3G11112   1.574   6.016   9.797  0.4940 -0.8016  0.1095
  108OSM    C4F11113   1.473   5.892   9.642  0.5707 -0.1810 -0.5991
  108OSM    H4F11114   1.380   5.952   9.639  0.8446  0.2345 -0.8466
  108OSM    H4G11115   1.441   5.785   9.647  0.9154 -0.2489  0.3990
  108OSM    C5F11116   1.540   5.910   9.517 -0.5428  0.0555  1.0165
  108OSM    H5F11117   1.480   5.855   9.440 -0.1082  0.5030  0.3436
  108OSM    H5G11118   1.640   5.862   9.512 -0.3212  0.4771  1.3726
  108OSM    C6F11119   1.536   6.054   9.456  0.0329  0.3137  0.3481
  108OSM    H6F11120   1.431   6.068   9.422  0.5063  2.3401 -0.4254
  108OSM    H6G11121   1.604   6.051   9.368 -0.5898 -0.2310 -0.1307
  108OSM    C7F11122   1.590   6.159   9.554 -0.4015  0.4507  0.1030
  108OSM    H7F11123   1.666   6.108   9.617 -0.3919 -0.6934 -0.8090
  108OSM    H7G11124   1.506   6.188   9.621 -1.6117 -0.9227 -0.7684
  108OSM    C8F11125   1.657   6.288   9.486 -0.2228  0.0533 -0.0916
  108OSM    H8F11126   1.745   6.248   9.431  0.2356  0.3689  0.3977
  108OSM    H8G11127   1.696   6.355   9.566  0.7836 -0.4138 -0.1755
  108OSM    C9F11128   1.549   6.361   9.411 -0.3303  0.1261  0.3262
  108OSM    H9F11129   1.473   6.409   9.476 -0.6479 -1.3376  1.0938
  108OSM   C10F11130   1.536   6.368   9.275 -0.1355  0.0174 -0.9817
  108OSM   H10F11131   1.454   6.430   9.237 -0.1322  0.2118 -0.6720
  108OSM   C11F11132   1.621   6.303   9.171  0.2355  0.2843  0.2339
  108OSM   H11F11133   1.706   6.252   9.221  1.3023  0.4041 -1.3880
  108OSM   H11G11134   1.678   6.372   9.104 -0.5149 -0.5991 -1.3593
  108OSM   C12F11135   1.541   6.189   9.110  0.2744  1.0205  0.1492
  108OSM   H12F11136   1.521   6.104   9.179 -0.4492  1.4403  0.4687
  108OSM   H12G11137   1.592   6.141   9.024  0.3320 -0.0171  0.7420
  108OSM   C13F11138   1.422   6.238   9.035 -0.2882 -0.5670 -0.9040
  108OSM   H13F11139   1.461   6.325   8.977 -4.2841  1.2723 -1.1222
  108OSM   H13G11140   1.356   6.284   9.112  0.2744  0.4545 -1.0140
  108OSM   C14F11141   1.331   6.140   8.956  0.0855 -0.5847  0.4411
  108OSM   H14F11142   1.248   6.205   8.923  0.6995  0.0408  0.1117
  108OSM   H14G11143   1.278   6.069   9.024 -2.1432  1.9336  1.5066
  108OSM   C15F11144   1.397   6.073   8.835  0.4451  0.1229  0.0338
  108OSM   H15F11145   1.346   5.977   8.817 -2.2241  1.3396  0.5820
  108OSM   H15G11146   1.505   6.046   8.842  0.6013  0.5729 -0.5893
  108OSM   C16F11147   1.391   6.172   8.715  0.3111 -0.2896 -0.2934
  108OSM   H16F11148   1.437   6.267   8.750 -0.5784  0.2803 -0.6226
  108OSM   H16G11149   1.285   6.206   8.707  1.1667  3.5878  2.1704
  108OSM   C17F11150   1.444   6.110   8.588 -0.7117  0.5504  0.7800
  108OSM   H17F11151   1.381   6.023   8.561  2.1268 -0.9215 -1.6335
  108OSM   H17G11152   1.549   6.075   8.598 -1.2379 -1.1607  0.5463
  108OSM   C18F11153   1.436   6.209   8.469  0.1293  0.1335  0.3574
  108OSM   H18F11154   1.485   6.303   8.499  0.5050  0.7236 -1.8748
  108OSM   H18G11155   1.327   6.226   8.454  0.0058 -0.5663  0.3967
  108OSM   H18H11156   1.476   6.170   8.372 -0.5165  1.5766 -0.5203
  109OSM      N11157   0.329   1.879  11.059  0.2417  0.3876 -0.6572
  109OSM    C1511158   0.340   1.757  11.145 -0.5188 -0.7506 -0.4799
  109OSM   H15A11159   0.416   1.685  11.119  0.7215 -0.5447  2.1671
  109OSM   H15B11160   0.252   1.695  11.138  0.5425 -2.2898 -0.8351
  109OSM   H15C11161   0.366   1.781  11.247  0.3916 -0.8127 -0.6860
  109OSM    C1411162   0.233   1.972  11.123  0.5820  0.4836  0.5425
  109OSM   H14A11163   0.212   2.060  11.064  1.6636  0.3237 -0.1167
  109OSM   H14B11164   0.255   2.011  11.221 -0.1929 -0.5017  1.1284
  109OSM   H14C11165   0.140   1.921  11.140  0.3914  0.7635  0.3396
  109OSM    C1311166   0.458   1.953  11.062 -0.2109 -0.1216  0.5709
  109OSM   H13A11167   0.452   2.048  11.012  0.0267  0.4924  1.6732
  109OSM   H13B11168   0.534   1.885  11.026  1.4308  0.3124  2.9360
  109OSM   H13C11169   0.483   1.987  11.162 -0.9848  3.5544 -0.3252
  109OSM    C1211170   0.285   1.837  10.917 -0.4571 -0.1430  0.2346
  109OSM   H12A11171   0.188   1.790  10.908  0.6379 -2.1364 -2.8487
  109OSM   H12B11172   0.357   1.761  10.890  0.2927  0.0777  1.5324
  109OSM    C1111173   0.294   1.942  10.801 -0.7071 -0.4280  0.1742
  109OSM   H11A11174   0.289   1.887  10.705 -0.4951 -0.7762  0.3615
  109OSM   H11B11175   0.398   1.979  10.802 -0.0081 -2.2555 -0.3211
  109OSM      P11176   0.248   2.203  10.788 -0.4382  0.1244  0.0537
  109OSM    O1311177   0.140   2.303  10.802  0.2578 -0.4549  0.2234
  109OSM    O1411178   0.364   2.232  10.876 -0.4662 -0.1163  0.0539
  109OSM    O1111179   0.303   2.214  10.640  0.0348  0.0225  0.8767
  109OSM    O1211180   0.202   2.048  10.806  0.1765 -0.2759 -0.0166
  109OSM    C1S11181   0.223   2.195  10.523 -0.2094  0.6972  0.2979
  109OSM    H1S11182   0.129   2.252  10.541 -0.7646 -0.1181  0.0099
  109OSM    H1T11183   0.202   2.086  10.515  0.0816  0.2956  3.6367
  109OSM     NF11184   0.214   2.213  10.270  0.0548  0.1214  0.7356
  109OSM    HNF11185   0.224   2.145  10.198 -1.4139 -0.0306  0.6619
  109OSM    C2S11186   0.302   2.226  10.388  0.1762 -0.4314 -0.2330
  109OSM    H2S11187   0.335   2.331  10.403  1.3249 -0.7019 -0.7515
  109OSM    C3S11188   0.436   2.146  10.371  0.7188  0.8078 -0.1378
  109OSM    H3S11189   0.413   2.039  10.350  1.2596  0.6879 -0.1140
  109OSM     O311190   0.513   2.136  10.495 -0.0757 -0.1904  0.5839
  109OSM    HO311191   0.450   2.164  10.562 -0.3727 -2.5596  1.3951
  109OSM    C4S11192   0.511   2.203  10.264 -0.3462  0.0553 -0.3901
  109OSM    H4S11193   0.536   2.307  10.290 -0.0530  0.2776 -1.5047
  109OSM    C5S11194   0.547   2.150  10.148  0.0828  0.4574  0.5900
  109OSM    H5S11195   0.528   2.042  10.136 -1.0556  0.7812 -0.7115
  109OSM    C6S11196   0.632   2.214  10.043 -0.1489  0.5321  0.8501
  109OSM    H6S11197   0.683   2.306  10.079 -0.6872  1.1524  0.0713
  109OSM    H6T11198   0.558   2.244   9.966  0.7366 -1.3781 -0.8327
  109OSM    C7S11199   0.748   2.127   9.977 -0.6298  0.3865  0.0583
  109OSM    H7S11200   0.714   2.023   9.963  0.9009 -0.2842  1.0620
  109OSM    H7T11201   0.832   2.109  10.047 -1.6365  1.6735  1.6546
  109OSM    C8S11202   0.792   2.170   9.838  0.1794 -0.4536 -0.2627
  109OSM    H8S11203   0.829   2.275   9.837 -1.4089  0.1403 -0.6151
  109OSM    H8T11204   0.700   2.155   9.777  1.0182 -0.5138 -1.5558
  109OSM    C9S11205   0.903   2.077   9.785  0.1866  0.0640 -0.2055
  109OSM    H9S11206   0.871   1.970   9.784 -1.6604  0.5775 -1.0510
  109OSM    H9T11207   0.973   2.064   9.870 -0.6635 -2.2350  0.2293
  109OSM   C10S11208   0.955   2.127   9.650  0.1821  0.4369 -0.0772
  109OSM   H10S11209   1.037   2.068   9.604 -1.0222 -1.8425  0.5555
  109OSM   H10T11210   0.984   2.232   9.672  1.8385 -0.1999  0.9545
  109OSM   C11S11211   0.845   2.119   9.539 -0.9919  0.5700 -0.6401
  109OSM   H11S11212   0.756   2.174   9.577 -0.4670  0.5093  0.7579
  109OSM   H11T11213   0.815   2.018   9.506  0.1089  0.0277 -0.0598
  109OSM   C12S11214   0.889   2.191   9.404 -0.5903 -0.3238  0.6549
  109OSM   H12S11215   0.990   2.157   9.372 -1.0414 -1.2050  0.1243
  109OSM   H12T11216   0.890   2.299   9.427 -2.0193 -0.3540  0.9743
  109OSM   C13S11217   0.800   2.167   9.274 -0.2650  0.2507 -1.0821
  109OSM   H13S11218   0.698   2.208   9.288  0.2608  1.8459 -1.7553
  109OSM   H13T11219   0.777   2.064   9.240 -0.2008  0.2330 -1.0724
  109OSM   C14S11220   0.858   2.242   9.144  0.2139  0.1295 -1.2479
  109OSM   H14S11221   0.922   2.169   9.091 -0.2973 -1.1532 -0.1498
  109OSM   H14T11222   0.926   2.320   9.185 -0.9902  0.8003 -0.4486
  109OSM   C15S11223   0.746   2.299   9.053 -0.0858 -0.3636  0.1938
  109OSM   H15S11224   0.779   2.398   9.015 -0.0037 -1.2622 -2.2404
  109OSM   H15T11225   0.653   2.305   9.113  0.1841 -2.5566  0.8935
  109OSM   C16S11226   0.717   2.232   8.921  0.1393  0.3171  0.3449
  109OSM   H16S11227   0.667   2.134   8.935  0.5696  0.1083  0.4438
  109OSM   H16T11228   0.816   2.219   8.872  0.8287 -1.6508  2.0722
  109OSM   C17S11229   0.630   2.321   8.826  0.2265 -0.8296 -0.0906
  109OSM   H17S11230   0.664   2.426   8.814 -1.3582 -0.4296 -1.6042
  109OSM   H17T11231   0.534   2.329   8.881 -0.6218 -0.0582 -1.5936
  109OSM   C18S11232   0.596   2.259   8.687  0.0015 -0.2899  0.0866
  109OSM   H18S11233   0.689   2.241   8.628  0.6246  3.8191 -0.5191
  109OSM   H18T11234   0.530   2.315   8.618 -0.2047 -1.0775 -0.3685
  109OSM   H18U11235   0.536   2.167   8.695  0.2420 -0.2902  2.5605
  109OSM    C1F11236   0.119   2.305  10.261  0.8440 -0.0653 -0.1690
  109OSM     OF11237   0.097   2.393  10.347  0.1646 -0.1160 -0.1168
  109OSM    C2F11238   0.022   2.290  10.144  0.3483 -0.7867 -0.5969
  109OSM    H2F11239  -0.084   2.299  10.177  0.9108 -1.1989  1.4994
  109OSM    H2G11240   0.028   2.188  10.102 -3.1056 -0.3444 -2.5812
  109OSM    C3F11241   0.055   2.397  10.039  0.1320  0.1795  0.3623
  109OSM    H3F11242   0.164   2.411  10.023  0.5988 -1.6068  1.6988
  109OSM    H3G11243   0.010   2.495  10.063  2.6370  1.3126  0.6437
  109OSM    C4F11244   0.015   2.359   9.898 -0.0860  0.5010 -0.1321
  109OSM    H4F11245  -0.092   2.327   9.895 -0.1460  0.5577  0.9665
  109OSM    H4G11246   0.085   2.278   9.868  0.2452  0.3427  0.9949
  109OSM    C5F11247   0.036   2.474   9.798 -0.2370  1.5002 -0.5277
  109OSM    H5F11248   0.141   2.506   9.814  0.3496 -1.2789  2.0912
  109OSM    H5G11249  -0.031   2.557   9.830 -0.0276  1.0499  1.1396
  109OSM    C6F11250   0.018   2.430   9.652  0.2195  0.6366 -0.1837
  109OSM    H6F11251  -0.086   2.394   9.639 -0.2138  1.5934  0.5008
  109OSM    H6G11252   0.090   2.347   9.638 -0.4462 -0.5254  2.7676
  109OSM    C7F11253   0.052   2.547   9.560 -0.2972  0.4282 -0.5175
  109OSM    H7F11254   0.142   2.593   9.605  0.0156 -0.1557 -0.5317
  109OSM    H7G11255  -0.030   2.621   9.552 -1.5936 -0.7817  0.8537
  109OSM    C8F11256   0.099   2.507   9.421  0.1089  0.5091  0.4005
  109OSM    H8F11257   0.191   2.446   9.427 -0.1936 -0.1237 -1.0376
  109OSM    H8G11258   0.133   2.603   9.377  0.5550  0.8601  1.4850
  109OSM    C9F11259  -0.003   2.428   9.335  1.1502 -0.4376  0.0483
  109OSM    H9F11260  -0.020   2.327   9.375 -0.4265  0.4026  1.6133
  109OSM   C10F11261  -0.082   2.484   9.236  0.6175 -0.0573 -0.4106
  109OSM   H10F11262  -0.150   2.417   9.181  1.6787 -0.7682 -0.8697
  109OSM   C11F11263  -0.081   2.631   9.195  0.4195 -0.1230 -0.3563
  109OSM   H11F11264  -0.011   2.693   9.254 -1.1612  0.3473  1.1054
  109OSM   H11G11265  -0.185   2.666   9.216 -1.1145 -2.0210 -3.8242
  109OSM   C12F11266  -0.064   2.645   9.044 -0.1999 -0.0380  1.0622
  109OSM   H12F11267  -0.085   2.750   9.017 -0.4579 -0.6676 -1.5011
  109OSM   H12G11268  -0.143   2.585   8.994  0.0321 -1.6403  2.5367
  109OSM   C13F11269   0.076   2.602   8.985  0.0668  0.4315 -0.1178
  109OSM   H13F11270   0.081   2.492   8.977 -1.1566  0.4456 -1.5809
  109OSM   H13G11271   0.146   2.621   9.069 -1.0000  0.0883  0.8867
  109OSM   C14F11272   0.108   2.665   8.849  0.4233 -0.4513 -0.1191
  109OSM   H14F11273   0.118   2.775   8.861 -0.1650 -0.6344  2.7483
  109OSM   H14G11274   0.026   2.657   8.775  0.3123  2.9499 -0.5453
  109OSM   C15F11275   0.227   2.605   8.765  0.0241  0.4773 -0.3367
  109OSM   H15F11276   0.233   2.497   8.791 -0.6556 -0.0043 -2.0649
  109OSM   H15G11277   0.311   2.652   8.820 -0.6391 -0.3054  1.4135
  109OSM   C16F11278   0.218   2.621   8.617  0.9069 -0.0683  0.0156
  109OSM   H16F11279   0.187   2.719   8.577 -0.0416 -0.2847  0.1919
  109OSM   H16G11280   0.140   2.551   8.580  1.4338 -1.5442  1.5113
  109OSM   C17F11281   0.350   2.579   8.554  0.2705  0.3266  0.4023
  109OSM   H17F11282   0.331   2.585   8.445 -1.5252 -0.9634  0.6041
  109OSM   H17G11283   0.368   2.472   8.581 -0.9521  0.0106  0.0028
  109OSM   C18F11284   0.470   2.666   8.596 -0.0374  0.1318 -0.3765
  109OSM   H18F11285   0.451   2.774   8.583  0.0493  0.1049 -0.7546
  109OSM   H18G11286   0.564   2.642   8.540  0.5438  2.9364 -0.7468
  109OSM   H18H11287   0.499   2.652   8.702  4.2417  0.7058 -1.2829
  110OSM      N11288   2.931   3.387  10.995  0.3106  0.0208 -0.2514
  110OSM    C1511289   3.005   3.512  11.041  0.8811  0.0092 -0.0450
  110OSM   H15A11290   2.948   3.583  11.099  2.7467 -0.1614  2.1330
  110OSM   H15B11291   3.052   3.567  10.962 -0.3910  0.4382 -0.5392
  110OSM   H15C11292   3.080   3.481  11.112 -0.2299  0.7312  1.5372
  110OSM    C1411293   2.863   3.336  11.121 -0.0905  0.3818 -0.1064
  110OSM   H14A11294   2.793   3.402  11.170  0.0009 -1.0305  2.0517
  110OSM   H14B11295   2.931   3.314  11.201  0.2189 -1.7202 -0.8789
  110OSM   H14C11296   2.806   3.248  11.096 -0.8201  0.3561  1.5343
  110OSM    C1311297   2.825   3.428  10.894 -0.2236 -0.4372  0.2744
  110OSM   H13A11298   2.765   3.340  10.880 -0.8042 -0.3851  2.2004
  110OSM   H13B11299   2.862   3.455  10.796 -4.3589  1.9171 -0.8920
  110OSM   H13C11300   2.769   3.513  10.928  0.0559  0.7725 -2.0286
  110OSM    C1211301   3.022   3.275  10.947  0.1219  0.8124 -0.3589
  110OSM   H12A11302   3.103   3.258  11.015  1.3390  1.8726 -1.5019
  110OSM   H12B11303   3.070   3.300  10.854  1.7411  1.3219  0.5799
  110OSM    C1111304   2.953   3.133  10.930  0.2291 -0.3003  0.3269
  110OSM   H11A11305   2.942   3.082  11.028  0.1261  1.8386  1.4720
  110OSM   H11B11306   3.029   3.069  10.879 -0.0576 -1.7076  1.5892
  110OSM      P11307   2.756   3.005  10.811  0.1790 -0.1589  0.3473
  110OSM    O1311308   2.859   2.932  10.738 -0.4060 -0.5127  0.4855
  110OSM    O1411309   2.676   2.939  10.923  0.1232  0.7030  0.5607
  110OSM    O1111310   2.649   3.049  10.706  0.9508 -0.6685  0.1827
  110OSM    O1211311   2.825   3.140  10.867 -0.3730  0.4374 -0.0495
  110OSM    C1S11312   2.644   3.141  10.601 -0.6113 -0.9920  0.5828
  110OSM    H1S11313   2.724   3.217  10.617 -0.5388 -1.2760  1.6550
  110OSM    H1T11314   2.546   3.193  10.611 -0.3330 -0.2002 -0.6130
  110OSM     NF11315   2.645   3.178  10.361  0.1798  0.5053 -0.0931
  110OSM    HNF11316   2.557   3.200  10.319  1.0281  0.3787 -2.0819
  110OSM    C2S11317   2.651   3.075  10.466  0.0116 -0.2783  0.3407
  110OSM    H2S11318   2.740   3.014  10.437 -1.2068 -0.9958 -2.2167
  110OSM    C3S11319   2.534   2.978  10.456  0.2857 -0.1455  0.1537
  110OSM    H3S11320   2.449   3.031  10.502 -0.5671 -1.5980  0.3169
  110OSM     O311321   2.546   2.855  10.535  0.1233  0.3010 -0.2217
  110OSM    HO311322   2.593   2.890  10.612  1.1634  2.5119 -1.7637
  110OSM    C4S11323   2.510   2.944  10.309  0.6223 -0.0735 -0.0610
  110OSM    H4S11324   2.592   2.892  10.256 -1.9401 -4.3989 -0.2283
  110OSM    C5S11325   2.394   2.959  10.231  0.6232  0.8842 -0.0293
  110OSM    H5S11326   2.315   3.012  10.286 -0.4124 -0.0078 -0.6128
  110OSM    C6S11327   2.377   2.913  10.089  0.4220  0.3836  0.6817
  110OSM    H6S11328   2.279   2.862  10.076  0.9661 -0.5025 -0.0960
  110OSM    H6T11329   2.459   2.842  10.063 -0.7586 -0.2848 -1.5014
  110OSM    C7S11330   2.388   3.029   9.988  0.5073  0.1031 -0.2448
  110OSM    H7S11331   2.485   3.082   9.999  0.7900 -0.2453 -0.9552
  110OSM    H7T11332   2.315   3.105  10.021  0.3015  0.1957 -0.8933
  110OSM    C8S11333   2.375   2.981   9.844 -0.4572 -0.0823 -0.9441
  110OSM    H8S11334   2.293   2.907   9.834  1.4868 -2.1120 -3.2863
  110OSM    H8T11335   2.464   2.916   9.833  0.3353  0.7659  0.2635
  110OSM    C9S11336   2.366   3.085   9.736 -0.0479 -0.1097  0.5602
  110OSM    H9S11337   2.450   3.156   9.748 -1.0505  1.1624  0.2967
  110OSM    H9T11338   2.271   3.134   9.766  0.9422  2.2006  0.1409
  110OSM   C10S11339   2.342   3.043   9.596 -0.1303 -0.0995  0.4706
  110OSM   H10S11340   2.356   3.133   9.531 -0.3909 -1.3594 -1.4137
  110OSM   H10T11341   2.243   2.999   9.571 -0.4096  1.1305 -0.6935
  110OSM   C11S11342   2.453   2.949   9.549  0.0288 -0.0903  0.5077
  110OSM   H11S11343   2.437   2.851   9.599  0.9586 -0.2015  0.6014
  110OSM   H11T11344   2.552   2.988   9.581 -0.2087  0.9414  0.0447
  110OSM   C12S11345   2.443   2.923   9.397 -0.0215 -0.3882  0.3574
  110OSM   H12S11346   2.337   2.927   9.364  0.3017 -1.0732 -0.8018
  110OSM   H12T11347   2.473   2.820   9.369 -1.5591 -1.3589  2.0841
  110OSM   C13S11348   2.516   3.031   9.308 -0.2077 -0.4678 -0.3816
  110OSM   H13S11349   2.619   3.055   9.343 -0.5095 -2.2364  1.9480
  110OSM   H13T11350   2.462   3.123   9.336  3.3088  1.8659 -0.5842
  110OSM   C14S11351   2.504   3.035   9.154  0.2583  0.2523 -0.0746
  110OSM   H14S11352   2.552   2.945   9.110  0.1722  1.0138 -1.8380
  110OSM   H14T11353   2.565   3.121   9.118 -0.6685  1.1695  0.4764
  110OSM   C15S11354   2.357   3.036   9.096  0.4729  0.0741  0.5872
  110OSM   H15S11355   2.299   2.960   9.153  0.8075 -2.0966 -1.7780
  110OSM   H15T11356   2.367   3.000   8.991  2.8103 -1.8770  1.3783
  110OSM   C16S11357   2.286   3.166   9.113  0.5864 -1.3927 -0.1983
  110OSM   H16S11358   2.311   3.238   9.032 -1.5443 -0.4275 -0.0776
  110OSM   H16T11359   2.305   3.225   9.205 -0.9748 -0.2897 -0.5416
  110OSM   C17S11360   2.138   3.147   9.104 -0.2182  0.6539 -0.1785
  110OSM   H17S11361   2.096   3.101   9.197  0.6577  2.4766  1.1747
  110OSM   H17T11362   2.112   3.092   9.011  2.1403 -0.3776 -0.2923
  110OSM   C18S11363   2.064   3.285   9.092 -0.7142  0.1647  0.3418
  110OSM   H18S11364   2.118   3.363   9.035 -1.6569  0.5551 -0.0367
  110OSM   H18T11365   2.065   3.334   9.192 -0.7493 -1.0747  0.9772
  110OSM   H18U11366   1.965   3.259   9.050 -0.1178  0.0607 -1.0637
  110OSM    C1F11367   2.747   3.253  10.351  0.0320  0.2396  0.3700
  110OSM     OF11368   2.847   3.243  10.420 -0.0488 -0.4051  0.0723
  110OSM    C2F11369   2.743   3.355  10.237 -0.5442  0.6345  0.4066
  110OSM    H2F11370   2.815   3.434  10.267  0.3059  0.0323  0.0175
  110OSM    H2G11371   2.638   3.391  10.229 -1.0421 -0.8366 -0.0502
  110OSM    C3F11372   2.771   3.291  10.104  0.3135  0.5116 -0.0667
  110OSM    H3F11373   2.682   3.250  10.052 -1.9404  4.5962  0.1488
  110OSM    H3G11374   2.852   3.216  10.115  0.8003  0.8614 -1.1620
  110OSM    C4F11375   2.820   3.400  10.007  1.0041  0.6665 -0.1969
  110OSM    H4F11376   2.922   3.442  10.023  0.6691  1.6051 -0.5086
  110OSM    H4G11377   2.752   3.486   9.997  1.6384  1.1396 -0.5075
  110OSM    C5F11378   2.825   3.340   9.861 -0.5229  0.1986  0.0012
  110OSM    H5F11379   2.740   3.275   9.830 -0.0937  0.2101 -1.2391
  110OSM    H5G11380   2.918   3.280   9.855 -0.2088  0.6305  0.4568
  110OSM    C6F11381   2.848   3.443   9.748  0.6125 -0.2673  0.2432
  110OSM    H6F11382   2.940   3.498   9.775  0.8026 -0.8044  0.6886
  110OSM    H6G11383   2.756   3.504   9.764  0.1707 -1.1253  1.0781
  110OSM    C7F11384   2.849   3.374   9.612  0.7506 -0.2637  0.2255
  110OSM    H7F11385   2.766   3.303   9.595 -1.8041  2.3887  0.6756
  110OSM    H7G11386   2.942   3.316   9.595 -0.0924 -1.1278 -1.7586
  110OSM    C8F11387   2.814   3.479   9.502  0.3966 -0.2399  0.2307
  110OSM    H8F11388   2.750   3.555   9.552 -2.7201 -2.6437  0.1458
  110OSM    H8G11389   2.762   3.431   9.417  2.2127  0.4661 -1.3451
  110OSM    C9F11390   2.934   3.554   9.454 -0.6411 -0.2420  0.4881
  110OSM    H9F11391   2.991   3.604   9.533  2.8224 -2.4678 -0.3539
  110OSM   C10F11392   2.973   3.563   9.326 -0.4042 -0.3967 -0.2960
  110OSM   H10F11393   3.053   3.635   9.304  0.7091 -0.8767  1.9555
  110OSM   C11F11394   2.912   3.486   9.213 -0.0828 -0.2690 -0.5018
  110OSM   H11F11395   2.894   3.381   9.245 -0.0328  0.5034  2.3180
  110OSM   H11G11396   2.988   3.467   9.135 -1.5744  0.0251 -2.0921
  110OSM   C12F11397   2.787   3.547   9.148 -0.0381  0.3354 -0.5283
  110OSM   H12F11398   2.811   3.654   9.128  0.7410  0.2213 -0.2567
  110OSM   H12G11399   2.698   3.543   9.213 -0.0356  0.5358 -0.5128
  110OSM   C13F11400   2.757   3.478   9.014  0.0577 -1.0406 -0.4841
  110OSM   H13F11401   2.856   3.453   8.971  0.7735 -1.2935  1.2282
  110OSM   H13G11402   2.705   3.557   8.955  2.8982  2.6452  1.5318
  110OSM   C14F11403   2.670   3.357   9.026  0.2696  0.3028  0.1597
  110OSM   H14F11404   2.584   3.379   9.092  0.6560 -0.9326  1.1035
  110OSM   H14G11405   2.743   3.281   9.062  1.1454 -0.1316 -2.3339
  110OSM   C15F11406   2.622   3.314   8.882 -0.2974 -0.6388 -0.0573
  110OSM   H15F11407   2.595   3.406   8.827  3.0682 -0.9176 -2.4407
  110OSM   H15G11408   2.533   3.246   8.885 -1.1025  0.4086  1.2793
  110OSM   C16F11409   2.738   3.257   8.801 -0.2128 -0.0393 -0.0356
  110OSM   H16F11410   2.791   3.180   8.860  0.1923 -0.0740 -0.4379
  110OSM   H16G11411   2.796   3.348   8.776 -1.9522  0.8022 -1.1637
  110OSM   C17F11412   2.690   3.200   8.675  0.3815 -0.2206  0.6279
  110OSM   H17F11413   2.612   3.264   8.629  1.4964  1.0140  0.3736
  110OSM   H17G11414   2.631   3.106   8.680 -0.6710  0.4547  1.0781
  110OSM   C18F11415   2.812   3.200   8.582 -0.0189  0.1253 -0.1918
  110OSM   H18F11416   2.845   3.306   8.575  0.4648  0.0788  1.0820
  110OSM   H18G11417   2.784   3.161   8.482  1.1282  0.3844 -0.6332
  110OSM   H18H11418   2.893   3.139   8.627 -1.1610 -2.7631 -1.7868
  111OSM      N11419   2.690   0.624  10.849  0.1354  0.2440 -0.0250
  111OSM    C1511420   2.578   0.546  10.909 -0.0778 -0.5566  0.1923
  111OSM   H15A11421   2.487   0.599  10.931 -2.2114 -3.8349  0.0389
  111OSM   H15B11422   2.609   0.492  10.998  0.8410  0.3374  0.4291
  111OSM   H15C11423   2.533   0.466  10.852  0.1572  0.0089 -0.8086
  111OSM    C1411424   2.734   0.723  10.951 -0.7172  0.3070 -0.2401
  111OSM   H14A11425   2.641   0.756  10.996 -1.2868 -0.7365 -0.6160
  111OSM   H14B11426   2.784   0.803  10.898 -0.0045  1.5716  2.1471
  111OSM   H14C11427   2.791   0.679  11.031 -0.0025 -1.3556 -1.6136
  111OSM    C1311428   2.802   0.524  10.821  0.2310  0.0376 -0.1556
  111OSM   H13A11429   2.864   0.502  10.907 -0.7229 -2.9697 -0.1126
  111OSM   H13B11430   2.867   0.561  10.743 -0.1097  0.7211 -0.1194
  111OSM   H13C11431   2.761   0.431  10.783 -2.3850  0.5367  1.1773
  111OSM    C1211432   2.634   0.685  10.717 -0.2400 -0.4378 -0.2434
  111OSM   H12A11433   2.561   0.759  10.748 -0.4077 -1.0225  0.7735
  111OSM   H12B11434   2.574   0.609  10.670  0.3723 -2.4470  2.0252
  111OSM    C1111435   2.733   0.756  10.619  0.1380  1.0314  0.2310
  111OSM   H11A11436   2.688   0.783  10.521  1.1394  0.3246 -0.4406
  111OSM   H11B11437   2.800   0.672  10.592 -0.0136  0.8067  0.5549
  111OSM      P11438   2.716   0.998  10.708  0.0033 -0.1883  0.6425
  111OSM    O1311439   2.615   0.970  10.810 -0.0274 -0.2714 -0.4061
  111OSM    O1411440   2.809   1.107  10.734  0.0226 -0.1584  0.1079
  111OSM    O1111441   2.644   1.015  10.560 -0.0371  0.3625 -0.5914
  111OSM    O1211442   2.801   0.862  10.681 -0.3894  0.2766  0.5770
  111OSM    C1S11443   2.711   1.048  10.445  0.6122  0.3380  0.3926
  111OSM    H1S11444   2.787   0.970  10.421  0.6744  0.6306 -0.4003
  111OSM    H1T11445   2.763   1.144  10.466  0.1410  0.6186  0.2833
  111OSM     NF11446   2.701   1.135  10.207  0.1397 -0.2696  1.1183
  111OSM    HNF11447   2.672   1.230  10.197  0.7720 -0.2450 -0.8937
  111OSM    C2S11448   2.624   1.072  10.315  0.2449 -1.0245  0.1807
  111OSM    H2S11449   2.596   0.968  10.287  1.0196 -1.3564  0.6165
  111OSM    C3S11450   2.493   1.152  10.350  0.3806  0.3267 -0.7011
  111OSM    H3S11451   2.522   1.257  10.372  2.3711 -0.5748  1.5972
  111OSM     O311452   2.430   1.114  10.479  0.2750  0.1832  1.1122
  111OSM    HO311453   2.498   1.064  10.524  0.4656 -2.0369 -1.3893
  111OSM    C4S11454   2.407   1.153  10.228  0.4308 -0.4038  0.0643
  111OSM    H4S11455   2.422   1.231  10.152  0.2591  0.5160  0.9399
  111OSM    C5S11456   2.298   1.071  10.204 -1.0340 -0.7543 -0.7871
  111OSM    H5S11457   2.276   0.999  10.284  3.7985 -2.4612 -0.6833
  111OSM    C6S11458   2.202   1.079  10.085 -0.4242  0.1434  0.0106
  111OSM    H6S11459   2.105   1.123  10.119 -1.6562 -2.0910 -0.4388
  111OSM    H6T11460   2.173   0.979  10.047 -0.7938  1.0933 -2.3392
  111OSM    C7S11461   2.246   1.147   9.963 -0.7498 -0.0583  0.5446
  111OSM    H7S11462   2.339   1.095   9.930 -0.6387 -0.1962  1.0744
  111OSM    H7T11463   2.281   1.250   9.987 -0.4559 -0.1918  0.6997
  111OSM    C8S11464   2.146   1.143   9.844 -0.2535 -0.5575  0.0273
  111OSM    H8S11465   2.066   1.217   9.864 -0.2312 -0.3986 -0.4592
  111OSM    H8T11466   2.092   1.047   9.832  0.5578 -1.0705  0.4207
  111OSM    C9S11467   2.203   1.183   9.709  0.6282 -0.8451 -0.4555
  111OSM    H9S11468   2.292   1.119   9.690  1.6285  0.0170  1.0741
  111OSM    H9T11469   2.235   1.289   9.697 -0.0866 -0.3845  1.3115
  111OSM   C10S11470   2.102   1.157   9.594 -0.8789 -0.7437  0.7846
  111OSM   H10S11471   2.120   1.208   9.497  0.6636  1.5086  2.1741
  111OSM   H10T11472   2.003   1.200   9.620 -1.5074  0.5783 -3.1678
  111OSM   C11S11473   2.081   1.008   9.572  0.1803 -0.0399  0.4219
  111OSM   H11S11474   2.025   0.955   9.652 -0.6995 -0.2182 -0.3037
  111OSM   H11T11475   2.183   0.963   9.570 -0.0630 -0.7508  2.1965
  111OSM   C12S11476   2.014   0.987   9.438  0.4980 -0.0973 -0.2523
  111OSM   H12S11477   2.049   1.059   9.361 -0.4784 -0.2102 -0.8112
  111OSM   H12T11478   1.907   1.013   9.450  0.7691  2.0150 -1.7172
  111OSM   C13S11479   2.028   0.841   9.392  0.5001  0.6912  0.1423
  111OSM   H13S11480   1.994   0.762   9.462 -0.0434  0.2717 -0.5924
  111OSM   H13T11481   2.134   0.812   9.376 -0.5998 -2.0336 -3.4051
  111OSM   C14S11482   1.959   0.825   9.256  0.5504 -0.6652 -0.5183
  111OSM   H14S11483   1.997   0.907   9.191 -0.8213  0.4584  0.0580
  111OSM   H14T11484   1.849   0.840   9.269  0.3785 -0.2780 -2.1933
  111OSM   C15S11485   1.980   0.693   9.193  0.6861  0.1211  0.1965
  111OSM   H15S11486   1.908   0.654   9.118  0.1390 -1.8943  1.6809
  111OSM   H15T11487   1.980   0.621   9.278 -0.0813  1.1212  1.0613
  111OSM   C16S11488   2.101   0.681   9.102  0.0132  0.0835 -0.1010
  111OSM   H16S11489   2.090   0.758   9.023 -1.9541  1.2334  1.2105
  111OSM   H16T11490   2.095   0.587   9.042 -2.5455  0.8413 -1.1745
  111OSM   C17S11491   2.238   0.673   9.166 -0.1917 -0.2648  0.3309
  111OSM   H17S11492   2.233   0.605   9.253  1.4093 -0.9483 -0.0894
  111OSM   H17T11493   2.269   0.775   9.198  2.1219 -0.5218 -0.8924
  111OSM   C18S11494   2.350   0.624   9.081  0.0340 -0.0900 -0.0692
  111OSM   H18S11495   2.343   0.669   8.980  2.0698  4.1754  1.4626
  111OSM   H18T11496   2.353   0.515   9.057  1.6258  0.0053 -0.3851
  111OSM   H18U11497   2.449   0.638   9.129  1.7795 -1.8108 -2.8955
  111OSM    C1F11498   2.810   1.075  10.154 -0.0748 -0.0437  0.1683
  111OSM     OF11499   2.836   0.959  10.174 -0.2407  0.4066  0.0328
  111OSM    C2F11500   2.904   1.165  10.075  0.0747 -0.5365  0.1102
  111OSM    H2F11501   3.006   1.170  10.121  0.6870 -0.6111 -1.1919
  111OSM    H2G11502   2.866   1.270  10.073 -0.2345 -0.6372 -2.6195
  111OSM    C3F11503   2.920   1.113   9.935  0.5161  0.1377  0.4149
  111OSM    H3F11504   2.830   1.097   9.872  1.4869  1.3527 -1.3839
  111OSM    H3G11505   2.980   1.020   9.945 -0.8903 -0.6923  1.3671
  111OSM    C4F11506   3.001   1.210   9.853 -0.0067  0.2346 -0.5251
  111OSM    H4F11507   3.101   1.194   9.898  0.5043  1.9690 -0.9704
  111OSM    H4G11508   2.975   1.317   9.872 -0.0613  0.2476 -0.6703
  111OSM    C5F11509   3.015   1.181   9.704  0.1872  0.4477  0.3244
  111OSM    H5F11510   3.037   1.073   9.690 -0.3376  0.5506 -1.4588
  111OSM    H5G11511   3.094   1.240   9.653  0.4371  1.2337  1.5836
  111OSM    C6F11512   2.881   1.213   9.628 -0.8808 -0.7644  0.0886
  111OSM    H6F11513   2.889   1.320   9.596 -2.9129 -1.3147 -2.6960
  111OSM    H6G11514   2.788   1.207   9.689 -0.3980  0.0991  0.9427
  111OSM    C7F11515   2.868   1.150   9.494 -0.8392  0.7497  0.2454
  111OSM    H7F11516   2.840   1.042   9.494 -0.6755  0.7052  0.7830
  111OSM    H7G11517   2.965   1.151   9.440 -2.0704  1.1340 -2.0938
  111OSM    C8F11518   2.772   1.215   9.390 -0.4401 -0.5779 -0.2801
  111OSM    H8F11519   2.680   1.245   9.445  0.4510  2.3620 -0.2007
  111OSM    H8G11520   2.735   1.135   9.323  0.6930 -0.5971 -0.9178
  111OSM    C9F11521   2.819   1.345   9.323  0.0122  0.0345 -0.3920
  111OSM    H9F11522   2.815   1.432   9.389  2.3208  0.2175 -0.4199
  111OSM   C10F11523   2.855   1.351   9.192  0.5464 -0.6679 -0.2206
  111OSM   H10F11524   2.915   1.438   9.161  0.6646 -1.3822 -2.1338
  111OSM   C11F11525   2.848   1.247   9.085 -0.1154 -0.0312 -0.5588
  111OSM   H11F11526   2.760   1.184   9.109 -1.2217  1.5915 -0.1364
  111OSM   H11G11527   2.941   1.190   9.064 -0.7138 -1.1387 -0.2990
  111OSM   C12F11528   2.795   1.301   8.947  0.6091  0.2808  0.3829
  111OSM   H12F11529   2.716   1.376   8.970 -0.7897 -0.9573 -0.2289
  111OSM   H12G11530   2.752   1.215   8.892  1.1643 -0.9803  1.8790
  111OSM   C13F11531   2.910   1.351   8.864 -0.4439 -0.0921  0.0888
  111OSM   H13F11532   2.983   1.269   8.847  2.4099  2.3966 -0.5161
  111OSM   H13G11533   2.973   1.420   8.924  0.5591  0.6496 -1.7317
  111OSM   C14F11534   2.868   1.409   8.729  0.5388  0.2069  0.1236
  111OSM   H14F11535   2.788   1.483   8.751  1.5422  1.4495 -0.3122
  111OSM   H14G11536   2.822   1.329   8.666  0.3377 -0.2043  0.7764
  111OSM   C15F11537   2.988   1.464   8.651  0.0937 -0.4221 -0.2511
  111OSM   H15F11538   3.054   1.513   8.726 -1.7556  1.8305  0.0306
  111OSM   H15G11539   2.946   1.541   8.583 -0.5670 -0.6832 -0.1424
  111OSM   C16F11540   3.066   1.354   8.576 -0.0613 -0.2713  1.1235
  111OSM   H16F11541   3.096   1.263   8.631 -0.9199 -2.1908 -1.3609
  111OSM   H16G11542   3.163   1.399   8.546 -1.9508  4.0489  0.7001
  111OSM   C17F11543   3.002   1.331   8.439 -0.4472  0.1586 -0.0833
  111OSM   H17F11544   3.003   1.428   8.384  1.1533 -0.3380 -1.0129
  111OSM   H17G11545   2.898   1.298   8.456 -0.0993 -1.5401 -1.0003
  111OSM   C18F11546   3.075   1.219   8.350  0.6109 -0.3667  0.2297
  111OSM   H18F11547   3.050   1.116   8.381 -0.3296 -0.5868 -1.1488
  111OSM   H18G11548   3.185   1.232   8.348  0.8028 -0.3604  3.8686
  111OSM   H18H11549   3.034   1.231   8.247 -1.7018 -0.1098  1.1183
  112OSM      N11550   2.018   5.170  10.708  0.5892  0.1342 -0.1641
  112OSM    C1511551   2.090   5.160  10.838  0.0765  0.6275  0.7143
  112OSM   H15A11552   2.164   5.239  10.839 -3.2232  3.9335  0.6473
  112OSM   H15B11553   2.142   5.066  10.854  2.1165  0.8725 -3.2894
  112OSM   H15C11554   2.031   5.165  10.928  1.7325  0.6194  1.8620
  112OSM    C1411555   1.953   5.302  10.702  0.1122 -0.0986  0.0658
  112OSM   H14A11556   1.893   5.306  10.613  1.7590 -1.7207 -1.2001
  112OSM   H14B11557   2.016   5.389  10.713 -1.9492  1.4510  0.1817
  112OSM   H14C11558   1.879   5.299  10.781  1.7564 -0.6892  1.6716
  112OSM    C1311559   2.124   5.153  10.607 -0.3403 -0.1781 -0.0505
  112OSM   H13A11560   2.201   5.223  10.634  0.0349 -0.6257  0.0529
  112OSM   H13B11561   2.080   5.182  10.512 -0.2557 -0.6052 -0.2219
  112OSM   H13C11562   2.165   5.054  10.613 -3.3322 -1.5014  0.7324
  112OSM    C1211563   1.909   5.067  10.682  0.2840 -0.4884 -0.5850
  112OSM   H12A11564   1.951   4.968  10.675  1.4719 -0.0061 -0.4799
  112OSM   H12B11565   1.860   5.085  10.587 -0.6533 -1.9277 -0.4083
  112OSM    C1111566   1.797   5.046  10.796  0.9654  0.0474 -0.4477
  112OSM   H11A11567   1.844   5.034  10.896  0.8788 -1.3469 -0.5638
  112OSM   H11B11568   1.745   4.950  10.778  0.3337  0.4661 -0.8738
  112OSM      P11569   1.575   5.181  10.743  0.3994  0.2147 -0.4028
  112OSM    O1311570   1.471   5.120  10.829 -0.3667  0.1673 -0.3822
  112OSM    O1411571   1.561   5.328  10.717 -0.4474  0.2651  0.0435
  112OSM    O1111572   1.599   5.105  10.612  0.2950 -0.0582  0.2112
  112OSM    O1211573   1.711   5.156  10.818 -0.4916  0.0469 -0.4888
  112OSM    C1S11574   1.537   4.982  10.585  0.0034  0.1360 -0.1921
  112OSM    H1S11575   1.433   4.982  10.623  0.5049  1.1220  1.2509
  112OSM    H1T11576   1.590   4.893  10.625 -0.2158 -1.1655 -2.5874
  112OSM     NF11577   1.455   4.838  10.394  1.1482  0.5046  0.2630
  112OSM    HNF11578   1.518   4.763  10.373  1.5969  1.0282 -0.2878
  112OSM    C2S11579   1.533   4.956  10.423  0.1423 -0.2648 -0.6106
  112OSM    H2S11580   1.483   5.045  10.378  1.2245 -0.1665 -1.6585
  112OSM    C3S11581   1.681   4.959  10.371 -0.1164 -0.9731  0.7547
  112OSM    H3S11582   1.737   4.887  10.434  0.5897 -1.2557 -0.1766
  112OSM     O311583   1.740   5.084  10.398 -0.8722  0.5219 -0.6256
  112OSM    HO311584   1.679   5.131  10.456 -1.2290 -1.6760  0.8958
  112OSM    C4S11585   1.688   4.928  10.227 -1.1393  0.2013 -0.4509
  112OSM    H4S11586   1.691   5.017  10.162  1.1748  0.0892 -0.5663
  112OSM    C5S11587   1.713   4.815  10.161  0.4167  0.0423 -1.0599
  112OSM    H5S11588   1.717   4.721  10.219 -0.6712  0.1299 -0.8200
  112OSM    C6S11589   1.718   4.798  10.016 -0.0770 -0.3473  1.1431
  112OSM    H6S11590   1.674   4.891   9.974 -1.2999  0.9639  4.8605
  112OSM    H6T11591   1.659   4.710   9.981 -1.3942  1.4525 -1.4781
  112OSM    C7S11592   1.865   4.781   9.976 -0.6211  0.6557 -0.4008
  112OSM    H7S11593   1.916   4.719  10.053 -1.5636  0.3996  0.0326
  112OSM    H7T11594   1.924   4.874   9.970 -0.1643  0.5656  1.8047
  112OSM    C8S11595   1.875   4.718   9.836 -0.6513 -0.0475 -0.2435
  112OSM    H8S11596   1.833   4.615   9.834 -0.2589 -0.2153  0.0873
  112OSM    H8T11597   1.981   4.692   9.814 -0.2571  0.3736  1.0528
  112OSM    C9S11598   1.817   4.805   9.727 -0.2659  0.0400  0.6640
  112OSM    H9S11599   1.855   4.909   9.736  0.4288 -0.0097 -1.3335
  112OSM    H9T11600   1.706   4.813   9.737 -0.2760 -0.4633  0.9940
  112OSM   C10S11601   1.846   4.758   9.579  0.3505  0.8378 -0.2148
  112OSM   H10S11602   1.953   4.757   9.549  0.3995  1.4468 -0.0880
  112OSM   H10T11603   1.798   4.828   9.507  0.1875  0.6897 -0.2508
  112OSM   C11S11604   1.791   4.616   9.546  0.7784  0.1534 -0.0425
  112OSM   H11S11605   1.692   4.602   9.594  0.7546 -0.9552 -0.3959
  112OSM   H11T11606   1.875   4.551   9.581  0.8400 -0.3451 -1.0798
  112OSM   C12S11607   1.770   4.608   9.392  0.4907  0.6579 -0.6850
  112OSM   H12S11608   1.686   4.676   9.368 -0.3643 -0.7592 -1.8220
  112OSM   H12T11609   1.724   4.512   9.362  2.0466 -0.1830 -0.4764
  112OSM   C13S11610   1.891   4.649   9.312  0.6848 -0.4657  0.2217
  112OSM   H13S11611   1.983   4.602   9.353 -0.8581 -2.9573  1.0903
  112OSM   H13T11612   1.910   4.758   9.309  1.3361 -0.5936 -1.3259
  112OSM   C14S11613   1.870   4.616   9.159  0.6330 -0.8011 -0.5998
  112OSM   H14S11614   1.875   4.506   9.147  0.6355 -0.8583 -0.0962
  112OSM   H14T11615   1.963   4.646   9.106 -0.9068 -0.6664 -3.3870
  112OSM   C15S11616   1.742   4.674   9.094 -0.8896  0.1069 -0.4440
  112OSM   H15S11617   1.746   4.785   9.101 -1.2602  0.0484  0.9730
  112OSM   H15T11618   1.656   4.632   9.150 -0.2676 -0.8438 -0.1727
  112OSM   C16S11619   1.704   4.653   8.952 -0.6629 -0.4778  0.1633
  112OSM   H16S11620   1.717   4.547   8.919 -0.3965 -0.0964 -0.9891
  112OSM   H16T11621   1.779   4.716   8.900 -1.3858  1.8940  1.8250
  112OSM   C17S11622   1.569   4.713   8.912  0.5669 -0.5637 -0.1740
  112OSM   H17S11623   1.547   4.715   8.803 -1.8320 -1.7989  0.2071
  112OSM   H17T11624   1.572   4.818   8.948 -1.5272 -0.7548  0.6605
  112OSM   C18S11625   1.446   4.638   8.973 -0.3629 -0.5950 -0.2371
  112OSM   H18S11626   1.351   4.685   8.941  0.5386  0.1288 -1.9982
  112OSM   H18T11627   1.454   4.639   9.084  1.9251 -0.2945 -0.3570
  112OSM   H18U11628   1.446   4.533   8.936 -0.8814 -0.2526 -1.2418
  112OSM    C1F11629   1.319   4.824  10.400 -0.7409  0.2813 -0.4077
  112OSM     OF11630   1.250   4.910  10.453 -0.0995 -0.3639 -0.2793
  112OSM    C2F11631   1.260   4.699  10.344  0.5778  0.4397 -0.0088
  112OSM    H2F11632   1.302   4.604  10.384 -1.4298 -1.7616 -2.7392
  112OSM    H2G11633   1.290   4.693  10.237  2.1908  1.2155  0.3700
  112OSM    C3F11634   1.108   4.700  10.360 -0.4575  0.1730 -0.3094
  112OSM    H3F11635   1.052   4.786  10.316 -1.3445  0.3818  1.1704
  112OSM    H3G11636   1.068   4.686  10.463 -1.6736 -1.4892 -0.9694
  112OSM    C4F11637   1.037   4.580  10.296  0.1609  0.7411  0.9310
  112OSM    H4F11638   0.930   4.581  10.325 -0.0634 -0.7307  0.2230
  112OSM    H4G11639   1.074   4.480  10.326  1.2239  0.6203 -0.6494
  112OSM    C5F11640   1.058   4.583  10.141  0.1384  0.0069 -0.2650
  112OSM    H5F11641   1.147   4.524  10.113 -0.0192 -0.7573  0.7786
  112OSM    H5G11642   1.096   4.685  10.116  0.1996 -0.0436 -0.3769
  112OSM    C6F11643   0.940   4.537  10.055 -0.5058 -0.1952  0.6391
  112OSM    H6F11644   0.851   4.603  10.067 -0.6123 -0.5941  2.2146
  112OSM    H6G11645   0.922   4.430  10.079 -2.7246 -0.7956 -2.8494
  112OSM    C7F11646   0.976   4.545   9.907 -0.0846 -0.5253  0.3435
  112OSM    H7F11647   1.060   4.477   9.882  0.4112  0.1303  0.1972
  112OSM    H7G11648   1.037   4.636   9.885  0.5793 -1.3764 -1.4718
  112OSM    C8F11649   0.856   4.521   9.812 -0.9632 -0.2893  0.2138
  112OSM    H8F11650   0.767   4.567   9.859 -0.4517  0.4815  0.4453
  112OSM    H8G11651   0.830   4.413   9.823  0.3368 -0.4144  3.3438
  112OSM    C9F11652   0.875   4.571   9.667  0.5097 -0.3983  0.0785
  112OSM    H9F11653   0.879   4.681   9.674 -0.2912 -0.4248  1.3851
  112OSM   C10F11654   0.880   4.505   9.552  0.6405 -0.3533 -0.2922
  112OSM   H10F11655   0.869   4.561   9.458 -1.2646  0.3666  0.3000
  112OSM   C11F11656   0.890   4.357   9.529  0.4586 -0.0470 -0.6678
  112OSM   H11F11657   0.793   4.303   9.530  1.1900 -1.4331 -1.2175
  112OSM   H11G11658   0.912   4.322   9.632 -5.3698  0.6437  1.2073
  112OSM   C12F11659   0.956   4.314   9.398 -0.4788  0.0469  0.3589
  112OSM   H12F11660   0.967   4.204   9.390  2.3373  0.2825  0.2274
  112OSM   H12G11661   1.056   4.354   9.371 -0.7015 -0.5919 -1.6029
  112OSM   C13F11662   0.862   4.355   9.278  0.1149 -0.0074  0.7922
  112OSM   H13F11663   0.847   4.465   9.280  0.3430  0.0149  1.3374
  112OSM   H13G11664   0.757   4.319   9.282 -0.6486  1.9734  0.1427
  112OSM   C14F11665   0.930   4.312   9.149  0.5583  0.2718 -0.6432
  112OSM   H14F11666   1.036   4.343   9.149  0.0662  2.0897 -1.3223
  112OSM   H14G11667   0.883   4.361   9.060 -1.4092  0.4294  0.4214
  112OSM   C15F11668   0.911   4.161   9.122  0.9383  0.3382 -0.0262
  112OSM   H15F11669   0.807   4.126   9.135  0.6290  1.2025 -0.1374
  112OSM   H15G11670   0.981   4.106   9.189 -1.2520 -0.6267  1.5790
  112OSM   C16F11671   0.955   4.138   8.975  0.6208 -0.4698  0.2236
  112OSM   H16F11672   1.044   4.202   8.955 -0.3448  1.1456  0.9015
  112OSM   H16G11673   0.873   4.180   8.914 -0.9109 -0.3871  2.2416
  112OSM   C17F11674   0.989   3.990   8.946  0.6113 -0.0211  0.2059
  112OSM   H17F11675   0.898   3.926   8.942 -0.7149  1.8251 -0.6682
  112OSM   H17G11676   1.043   3.957   9.037 -0.7761 -0.8949  0.7333
  112OSM   C18F11677   1.063   3.970   8.814  0.1690 -0.1670 -0.0063
  112OSM   H18F11678   1.002   4.000   8.727 -1.8437 -0.7907  1.1112
  112OSM   H18G11679   1.083   3.860   8.813 -0.0235 -0.1954 -0.7232
  112OSM   H18H11680   1.155   4.031   8.823 -0.1631  0.1104  2.0095
  113OSM      N11681   4.543   4.117  10.930 -0.0543 -0.2659 -0.2778
  113OSM    C1511682   4.410   4.054  10.907 -0.2740  0.6616 -0.1669
  113OSM   H15A11683   4.401   4.032  10.801 -1.5133 -1.5141  0.3192
  113OSM   H15B11684   4.332   4.124  10.931 -0.9176 -0.5294  1.3757
  113OSM   H15C11685   4.402   3.964  10.967 -2.0343  0.5889 -0.4647
  113OSM    C1411686   4.540   4.200  11.050 -0.5007 -0.9185 -0.4299
  113OSM   H14A11687   4.639   4.226  11.085 -1.8359  2.1302  1.4329
  113OSM   H14B11688   4.496   4.146  11.133 -0.7239  0.4600  0.3674
  113OSM   H14C11689   4.472   4.283  11.042 -0.6140 -0.4727  3.4731
  113OSM    C1311690   4.641   4.010  10.953  0.4496  0.7449  0.4020
  113OSM   H13A11691   4.658   3.959  10.859 -0.5962  1.3539 -0.1328
  113OSM   H13B11692   4.601   3.933  11.016 -1.2191  0.0002 -1.4438
  113OSM   H13C11693   4.730   4.048  11.001  0.5597 -1.7837  2.3873
  113OSM    C1211694   4.579   4.196  10.806 -0.6194  0.3129  0.4501
  113OSM   H12A11695   4.595   4.122  10.729  2.4222 -0.2058  1.4733
  113OSM   H12B11696   4.674   4.246  10.822  0.3811 -1.3904  0.0349
  113OSM    C1111697   4.480   4.313  10.749 -0.5416 -0.0831 -0.3475
  113OSM   H11A11698   4.384   4.262  10.725  0.7903 -1.8971 -2.2120
  113OSM   H11B11699   4.509   4.354  10.650  2.4250 -2.8793 -0.8269
  113OSM      P11700   4.523   4.558  10.839 -0.5757  0.0539 -0.0197
  113OSM    O1311701   4.484   4.638  10.954 -0.5995 -0.4411  0.2581
  113OSM    O1411702   4.667   4.530  10.833  0.4741 -0.6036 -0.4278
  113OSM    O1111703   4.479   4.620  10.704 -0.0438 -0.4515 -0.2237
  113OSM    O1211704   4.450   4.419  10.842  0.3506  0.2608  0.1993
  113OSM    C1S11705   4.350   4.606  10.637 -0.7124  0.0977  0.2493
  113OSM    H1S11706   4.266   4.661  10.685 -0.9406 -0.2260  0.2250
  113OSM    H1T11707   4.319   4.499  10.632  2.6758 -0.9576 -0.7541
  113OSM     NF11708   4.214   4.631  10.436 -0.5128 -0.0315 -0.2995
  113OSM    HNF11709   4.189   4.542  10.400 -1.1733  0.4853 -1.1732
  113OSM    C2S11710   4.352   4.643  10.482  0.3210 -0.2356 -0.0690
  113OSM    H2S11711   4.392   4.747  10.474  0.6883 -0.3344  0.4347
  113OSM    C3S11712   4.447   4.545  10.407  0.5325 -0.4751  0.8806
  113OSM    H3S11713   4.402   4.443  10.404 -0.7037  0.0643  0.1693
  113OSM     O311714   4.576   4.546  10.467  1.0005  0.1465  0.0631
  113OSM    HO311715   4.566   4.605  10.542  2.5567  2.6196 -1.4959
  113OSM    C4S11716   4.466   4.586  10.262 -0.4036  0.5024 -0.3291
  113OSM    H4S11717   4.471   4.693  10.237 -0.5842  0.5684 -0.0830
  113OSM    C5S11718   4.469   4.497  10.161  0.0111 -0.2653  0.4636
  113OSM    H5S11719   4.474   4.391  10.187  0.5577 -0.2870  0.2929
  113OSM    C6S11720   4.487   4.540  10.012  0.1830  0.4073 -0.4689
  113OSM    H6S11721   4.594   4.535   9.983  0.6180  3.8168  0.0979
  113OSM    H6T11722   4.462   4.647   9.996 -1.0721  0.2683  0.3907
  113OSM    C7S11723   4.402   4.451   9.908 -1.2327 -0.5511 -0.1832
  113OSM    H7S11724   4.300   4.494   9.900 -1.3747 -1.1092 -1.5697
  113OSM    H7T11725   4.404   4.345   9.939  2.3451 -0.3106  0.9564
  113OSM    C8S11726   4.472   4.454   9.769 -0.2063 -0.3208 -0.0427
  113OSM    H8S11727   4.578   4.424   9.780  0.1772  1.3634  1.2166
  113OSM    H8T11728   4.462   4.559   9.732 -3.3952  0.3196  2.1663
  113OSM    C9S11729   4.398   4.368   9.663 -0.0758 -0.1354  0.5802
  113OSM    H9S11730   4.288   4.384   9.663 -0.5052 -2.7149  1.1806
  113OSM    H9T11731   4.404   4.264   9.701  0.5756 -1.1062 -2.0236
  113OSM   C10S11732   4.458   4.397   9.517  0.3221  0.1870 -0.9630
  113OSM   H10S11733   4.566   4.370   9.516  0.1251 -0.6392 -0.7268
  113OSM   H10T11734   4.443   4.505   9.499 -0.3257  0.6881  2.1073
  113OSM   C11S11735   4.385   4.309   9.415 -0.6045 -0.8922  0.1714
  113OSM   H11S11736   4.287   4.356   9.390 -0.6883 -1.3130 -0.2921
  113OSM   H11T11737   4.367   4.209   9.459 -1.4765 -1.0793 -0.5792
  113OSM   C12S11738   4.456   4.289   9.287 -0.3889 -0.0969 -0.4275
  113OSM   H12S11739   4.425   4.195   9.236  0.9153  0.1704 -1.7725
  113OSM   H12T11740   4.566   4.285   9.307 -0.1542 -1.5042 -1.7674
  113OSM   C13S11741   4.432   4.409   9.190 -0.5817  0.2314 -0.2109
  113OSM   H13S11742   4.468   4.508   9.223 -1.7282  0.7188 -0.3794
  113OSM   H13T11743   4.324   4.429   9.172 -0.3510  0.7270 -1.1280
  113OSM   C14S11744   4.492   4.385   9.049 -0.5445 -0.2940  0.3823
  113OSM   H14S11745   4.603   4.388   9.057 -0.5624 -0.7283  0.8387
  113OSM   H14T11746   4.457   4.471   8.988 -2.5876 -0.3090  1.4581
  113OSM   C15S11747   4.446   4.258   8.982  0.5913 -0.1464  0.0887
  113OSM   H15S11748   4.340   4.237   9.008  0.9176 -0.0723  1.5648
  113OSM   H15T11749   4.506   4.170   9.015  1.3550  0.1770 -0.3934
  113OSM   C16S11750   4.471   4.272   8.822 -0.0520  0.0991  0.2156
  113OSM   H16S11751   4.395   4.345   8.787 -0.1521 -0.2999 -0.4280
  113OSM   H16T11752   4.425   4.188   8.765 -0.8001  0.9226 -0.4156
  113OSM   C17S11753   4.620   4.289   8.782 -0.2764  0.1483  0.4097
  113OSM   H17S11754   4.688   4.214   8.827 -1.9042 -1.2417  0.6543
  113OSM   H17T11755   4.650   4.393   8.807  0.1721 -0.5046  2.8058
  113OSM   C18S11756   4.634   4.278   8.626 -0.6102 -0.3813  0.5627
  113OSM   H18S11757   4.743   4.271   8.608 -0.9786 -1.0283 -1.6771
  113OSM   H18T11758   4.578   4.368   8.593  1.5730  0.8832  0.0859
  113OSM   H18U11759   4.579   4.189   8.588 -2.1429  0.9077 -0.3707
  113OSM    C1F11760   4.125   4.724  10.455  0.2099  0.3682  0.3512
  113OSM     OF11761   4.156   4.827  10.520 -0.0162  0.3855 -0.5050
  113OSM    C2F11762   3.989   4.700  10.391  0.3521  0.1469  0.2054
  113OSM    H2F11763   3.920   4.689  10.477 -0.4317 -1.8924 -0.6136
  113OSM    H2G11764   3.983   4.601  10.341  0.1403 -1.3229  2.9426
  113OSM    C3F11765   3.945   4.814  10.294 -0.0092  1.1125 -0.5143
  113OSM    H3F11766   3.968   4.907  10.351  2.8300 -0.1132  0.5712
  113OSM    H3G11767   3.837   4.804  10.271  0.2361 -1.3650 -0.8631
  113OSM    C4F11768   4.016   4.826  10.163  0.3095 -0.3822 -0.2300
  113OSM    H4F11769   4.125   4.832  10.183  0.2836  0.9430 -0.4361
  113OSM    H4G11770   3.985   4.925  10.123 -0.7486 -0.6878 -0.1932
  113OSM    C5F11771   3.996   4.720  10.054 -0.3344 -0.7014 -0.2929
  113OSM    H5F11772   3.888   4.718  10.028 -0.6745 -0.4919  1.0128
  113OSM    H5G11773   4.022   4.619  10.094 -1.0586 -0.1464  1.6904
  113OSM    C6F11774   4.075   4.745   9.923  0.2496 -0.7827 -0.1130
  113OSM    H6F11775   4.181   4.722   9.951  1.0393  1.9532 -0.5901
  113OSM    H6G11776   4.074   4.852   9.897  1.9355 -0.7028  0.0005
  113OSM    C7F11777   4.031   4.666   9.804 -0.2562  0.1957 -0.1036
  113OSM    H7F11778   3.935   4.703   9.762  0.6361  0.6694 -1.8338
  113OSM    H7G11779   4.017   4.562   9.839 -2.1279  0.3866 -0.1841
  113OSM    C8F11780   4.142   4.641   9.694 -0.0250  0.1180  1.0318
  113OSM    H8F11781   4.229   4.594   9.745  0.0065  0.8440  1.6648
  113OSM    H8G11782   4.185   4.737   9.660 -0.8350  0.0048 -0.3838
  113OSM    C9F11783   4.089   4.566   9.576  0.0872 -0.1877 -0.3795
  113OSM    H9F11784   4.021   4.482   9.597  1.0383 -0.3659  2.2995
  113OSM   C10F11785   4.098   4.596   9.443  0.3031 -0.3469 -0.3164
  113OSM   H10F11786   4.059   4.524   9.370 -0.2916 -0.2656 -0.0866
  113OSM   C11F11787   4.162   4.716   9.388 -0.1326  0.1740  0.1742
  113OSM   H11F11788   4.266   4.725   9.424 -0.8275  2.0503  1.8775
  113OSM   H11G11789   4.118   4.811   9.425  3.0888  2.6924 -1.8950
  113OSM   C12F11790   4.168   4.702   9.235 -0.2285  0.1591 -0.0505
  113OSM   H12F11791   4.067   4.676   9.197 -0.8819 -2.3333  2.9886
  113OSM   H12G11792   4.227   4.613   9.203  2.3700  2.2390 -1.4415
  113OSM   C13F11793   4.219   4.821   9.165  0.1366  0.1446 -0.3762
  113OSM   H13F11794   4.317   4.856   9.205 -0.7016  0.8093  1.1730
  113OSM   H13G11795   4.151   4.908   9.176  0.8270  0.7150 -0.4817
  113OSM   C14F11796   4.231   4.813   9.009 -0.1184  0.3508  0.2452
  113OSM   H14F11797   4.130   4.788   8.970  0.4766 -0.6235 -0.7705
  113OSM   H14G11798   4.295   4.725   8.986  0.2130  0.4910  0.6164
  113OSM   C15F11799   4.292   4.937   8.941  0.1834 -0.2645  0.6665
  113OSM   H15F11800   4.310   4.935   8.832 -2.0008  0.2867  0.2507
  113OSM   H15G11801   4.391   4.931   8.991  0.0310 -1.4388  0.8541
  113OSM   C16F11802   4.216   5.068   8.980  0.1557  0.1652 -0.2205
  113OSM   H16F11803   4.246   5.112   9.077  1.3506  0.3264 -0.6371
  113OSM   H16G11804   4.107   5.049   8.983  0.1854  0.1266  1.0369
  113OSM   C17F11805   4.223   5.179   8.874 -0.5820  0.0773 -0.6537
  113OSM   H17F11806   4.248   5.143   8.771 -0.2009  2.1506 -1.3511
  113OSM   H17G11807   4.310   5.245   8.894 -0.8484 -0.0646  1.0348
  113OSM   C18F11808   4.107   5.281   8.858  1.1557 -0.0636 -0.0660
  113OSM   H18F11809   4.070   5.312   8.958  1.9368 -1.5301  0.7197
  113OSM   H18G11810   4.021   5.231   8.809  0.5254 -1.0368  1.9194
  113OSM   H18H11811   4.129   5.378   8.810 -0.4745 -0.2248 -1.1915
  114OSM      N11812   2.491   2.680  11.147 -0.5793  0.3229  0.5122
  114OSM    C1511813   2.518   2.709  11.288 -0.0416  0.0212 -0.2021
  114OSM   H15A11814   2.553   2.615  11.329 -1.4518 -1.4443 -2.2136
  114OSM   H15B11815   2.425   2.732  11.339  0.1401 -1.2891  0.7816
  114OSM   H15C11816   2.573   2.800  11.310 -2.1650  1.1241  0.8702
  114OSM    C1411817   2.621   2.677  11.068  1.1114  0.2006  0.2690
  114OSM   H14A11818   2.596   2.705  10.967  2.3985  1.6642  0.3210
  114OSM   H14B11819   2.671   2.582  11.082  0.0489 -0.0691  2.6837
  114OSM   H14C11820   2.689   2.746  11.115 -0.5543  1.2057  1.3040
  114OSM    C1311821   2.421   2.547  11.128  1.0631  0.5118  0.2508
  114OSM   H13A11822   2.481   2.460  11.148  0.5366  0.0816 -0.0085
  114OSM   H13B11823   2.381   2.532  11.029  0.3241 -0.5816  0.6925
  114OSM   H13C11824   2.338   2.539  11.197  0.0031  2.3856 -0.7320
  114OSM    C1211825   2.414   2.798  11.098  0.2256  0.8492 -0.0446
  114OSM   H12A11826   2.481   2.882  11.094  1.1895  0.1160 -3.6529
  114OSM   H12B11827   2.332   2.816  11.166  3.0080  1.6952  3.3423
  114OSM    C1111828   2.365   2.791  10.946 -0.1183  0.1726 -0.1569
  114OSM   H11A11829   2.453   2.780  10.879  0.1873 -1.1999  0.4363
  114OSM   H11B11830   2.334   2.894  10.917  0.7556  0.4546 -0.1148
  114OSM      P11831   2.112   2.726  10.937  0.3113 -0.1350 -0.0021
  114OSM    O1311832   2.036   2.604  10.989 -0.1822 -0.3927  0.7487
  114OSM    O1411833   2.103   2.855  11.009  0.4016  0.2872 -0.3182
  114OSM    O1111834   2.057   2.759  10.795 -0.1937  0.1253 -0.2351
  114OSM    O1211835   2.259   2.689  10.923  0.2312 -0.1435  0.0611
  114OSM    C1S11836   2.052   2.670  10.684  0.6705 -0.0581  0.2170
  114OSM    H1S11837   2.024   2.566  10.711  0.3196 -1.0501 -3.4083
  114OSM    H1T11838   2.155   2.659  10.643 -0.1477 -1.5617 -1.6051
  114OSM     NF11839   1.951   2.617  10.476 -0.3839  0.7706  0.3972
  114OSM    HNF11840   2.020   2.601  10.405  2.0399 -0.5568  2.8787
  114OSM    C2S11841   1.971   2.723  10.567  0.4514 -0.3818  0.3209
  114OSM    H2S11842   1.873   2.761  10.601  0.1016  1.0938 -2.0755
  114OSM    C3S11843   2.053   2.839  10.497  0.0159 -0.3616 -0.1362
  114OSM    H3S11844   2.147   2.793  10.461 -0.0343 -0.2160 -0.4579
  114OSM     O311845   2.083   2.949  10.580 -0.4698 -0.2335 -0.1333
  114OSM    HO311846   2.090   2.913  10.669 -2.2206  0.6186  0.4017
  114OSM    C4S11847   1.972   2.897  10.383 -0.1076 -0.1929  0.1386
  114OSM    H4S11848   1.881   2.955  10.407  1.7920  2.6365  0.9493
  114OSM    C5S11849   2.007   2.880  10.255 -0.1996 -0.3038  0.3069
  114OSM    H5S11850   2.088   2.808  10.236  0.5933  0.2486  1.4332
  114OSM    C6S11851   1.928   2.928  10.130 -0.2718 -0.4942 -0.1245
  114OSM    H6S11852   1.878   3.024  10.158 -1.3992 -0.5325 -1.8754
  114OSM    H6T11853   1.838   2.865  10.111  0.8065 -2.3588  0.7548
  114OSM    C7S11854   2.002   2.945   9.994 -0.5408  0.5235 -0.6949
  114OSM    H7S11855   2.062   2.853   9.985 -3.2699 -1.6757  1.6273
  114OSM    H7T11856   2.072   3.031   9.993 -2.4193  2.2096  1.4279
  114OSM    C8S11857   1.903   2.954   9.875  0.7554  0.3000  0.3509
  114OSM    H8S11858   1.845   3.048   9.885  0.6018  0.2770 -0.2732
  114OSM    H8T11859   1.838   2.864   9.866  0.8139  0.2328  0.6147
  114OSM    C9S11860   1.989   2.936   9.750 -0.9944  0.1642  0.9713
  114OSM    H9S11861   2.045   2.841   9.761 -0.7193  0.2323  0.2287
  114OSM    H9T11862   2.065   3.013   9.724 -0.3167 -1.0627 -0.9015
  114OSM   C10S11863   1.904   2.926   9.620  0.1232  0.3369  0.3215
  114OSM   H10S11864   1.848   3.021   9.602 -1.3064 -0.7501 -1.2470
  114OSM   H10T11865   1.816   2.860   9.635 -1.4378  2.0273 -0.9702
  114OSM   C11S11866   1.988   2.887   9.494  0.8074 -0.8693 -0.2196
  114OSM   H11S11867   2.029   2.785   9.509 -0.9597 -1.6350 -0.4137
  114OSM   H11T11868   2.074   2.952   9.466  2.1913 -2.5750 -0.1382
  114OSM   C12S11869   1.891   2.889   9.374 -0.8533 -0.2023  0.4024
  114OSM   H12S11870   1.885   2.994   9.339 -1.1132 -0.7925 -1.4647
  114OSM   H12T11871   1.799   2.834   9.402  0.2279 -2.2442  0.1644
  114OSM   C13S11872   1.966   2.818   9.253 -0.0046 -0.1139  0.5665
  114OSM   H13S11873   1.969   2.712   9.284 -2.2940 -0.8307 -1.3697
  114OSM   H13T11874   2.071   2.852   9.245 -0.7405  1.9877 -1.3529
  114OSM   C14S11875   1.906   2.841   9.113  0.1732  0.3858  0.0964
  114OSM   H14S11876   1.887   2.951   9.111  0.4614  0.5509  2.7804
  114OSM   H14T11877   1.806   2.794   9.102  0.5024 -0.0884 -1.0524
  114OSM   C15S11878   1.998   2.797   9.003  0.0981  0.2545 -0.3639
  114OSM   H15S11879   2.023   2.689   9.001  1.0705  0.4747 -2.4261
  114OSM   H15T11880   2.097   2.845   9.023  0.3135  0.3153 -1.5370
  114OSM   C16S11881   1.953   2.846   8.870  1.0239 -0.3498  0.1675
  114OSM   H16S11882   2.031   2.820   8.796  1.9615 -0.9913  1.3296
  114OSM   H16T11883   1.941   2.956   8.870 -3.1883 -0.6379  0.0694
  114OSM   C17S11884   1.833   2.775   8.823 -0.4378  0.6085 -0.3783
  114OSM   H17S11885   1.747   2.798   8.890 -0.2223  2.7783 -0.7725
  114OSM   H17T11886   1.862   2.668   8.834 -0.7417  0.2389 -2.6651
  114OSM   C18S11887   1.807   2.808   8.672 -0.6169 -0.1713  0.1992
  114OSM   H18S11888   1.805   2.918   8.656  0.9373 -0.2422 -0.6362
  114OSM   H18T11889   1.699   2.789   8.651 -0.5226  1.4021 -2.0961
  114OSM   H18U11890   1.865   2.752   8.596 -2.4449 -0.4836 -1.0493
  114OSM    C1F11891   1.868   2.518  10.495 -0.0726  0.0840  0.2565
  114OSM     OF11892   1.769   2.540  10.566  0.6581 -0.2202  0.3528
  114OSM    C2F11893   1.918   2.382  10.446  0.2312  0.0765 -0.3696
  114OSM    H2F11894   1.898   2.305  10.523  1.1807  0.4140  0.2293
  114OSM    H2G11895   2.027   2.389  10.423  0.0205 -1.1565 -1.8562
  114OSM    C3F11896   1.866   2.335  10.309  0.0524  0.5892 -0.0700
  114OSM    H3F11897   1.894   2.411  10.233 -2.4209 -0.7270 -2.4922
  114OSM    H3G11898   1.755   2.329  10.301  0.1486 -1.1702 -0.3912
  114OSM    C4F11899   1.901   2.189  10.286 -0.5422  0.7039  0.4144
  114OSM    H4F11900   1.864   2.129  10.371 -0.5943  0.6929  0.3838
  114OSM    H4G11901   2.012   2.191  10.288 -0.5355  3.2439  1.2361
  114OSM    C5F11902   1.845   2.142  10.148  0.1076 -0.6648  0.0688
  114OSM    H5F11903   1.735   2.142  10.157  0.2142  0.4111  1.6759
  114OSM    H5G11904   1.859   2.033  10.129 -2.4075 -1.5267  2.5002
  114OSM    C6F11905   1.888   2.233  10.021 -0.2910 -0.2838 -0.0453
  114OSM    H6F11906   1.998   2.233  10.005 -0.2300  1.9288  0.0848
  114OSM    H6G11907   1.857   2.337  10.039 -1.1339  0.0568 -2.9446
  114OSM    C7F11908   1.819   2.192   9.892  0.0378  0.2218  0.4080
  114OSM    H7F11909   1.709   2.180   9.899 -0.2656  2.8356  1.3188
  114OSM    H7G11910   1.867   2.094   9.870  2.3215  1.6428 -1.4339
  114OSM    C8F11911   1.844   2.286   9.777 -0.5567  0.4052  0.0848
  114OSM    H8F11912   1.830   2.228   9.683 -0.8562 -1.4596  1.2323
  114OSM    H8G11913   1.951   2.314   9.778 -0.8667  1.6946  1.9115
  114OSM    C9F11914   1.754   2.408   9.792 -0.7637 -0.4721 -0.0229
  114OSM    H9F11915   1.712   2.418   9.893  0.4139  0.7401  0.3730
  114OSM   C10F11916   1.707   2.486   9.689  0.9394 -0.0750  0.4047
  114OSM   H10F11917   1.630   2.561   9.713 -0.9693 -1.7635 -0.2203
  114OSM   C11F11918   1.738   2.477   9.541  0.2081 -0.4174 -0.6082
  114OSM   H11F11919   1.727   2.371   9.509 -1.7993 -0.2654 -0.5536
  114OSM   H11G11920   1.845   2.504   9.529 -0.3555  4.2436  2.3033
  114OSM   C12F11921   1.656   2.592   9.472 -0.4362 -0.6888  0.0578
  114OSM   H12F11922   1.688   2.689   9.515  0.5842 -1.2247  0.5538
  114OSM   H12G11923   1.549   2.568   9.486 -0.6605 -1.7053 -2.6988
  114OSM   C13F11924   1.664   2.587   9.322 -0.1101 -0.4069  0.4303
  114OSM   H13F11925   1.625   2.487   9.292 -2.7584  1.0210 -1.3988
  114OSM   H13G11926   1.768   2.603   9.288 -0.3727  0.2143 -0.0914
  114OSM   C14F11927   1.585   2.700   9.254  0.2926 -1.1118 -0.0180
  114OSM   H14F11928   1.655   2.786   9.256 -0.1386 -0.7461  1.7587
  114OSM   H14G11929   1.494   2.732   9.309  0.2837 -1.8731  0.4354
  114OSM   C15F11930   1.543   2.658   9.110  0.3508  0.0730  0.2534
  114OSM   H15F11931   1.487   2.563   9.117  1.3959 -0.5504  0.3363
  114OSM   H15G11932   1.632   2.634   9.047 -0.7307 -1.0643 -0.8891
  114OSM   C16F11933   1.460   2.765   9.034 -0.2112  0.0562  0.3588
  114OSM   H16F11934   1.512   2.863   9.040  1.0831 -0.7012  2.2610
  114OSM   H16G11935   1.370   2.779   9.097 -0.1643  0.0523  0.4269
  114OSM   C17F11936   1.417   2.728   8.894  0.4437 -0.7852 -0.0501
  114OSM   H17F11937   1.502   2.736   8.824  1.9975 -1.6441  1.6481
  114OSM   H17G11938   1.348   2.811   8.870  2.2887  1.6685  2.4678
  114OSM   C18F11939   1.353   2.591   8.881 -0.9554  0.0913 -0.0721
  114OSM   H18F11940   1.252   2.583   8.927 -0.6735 -1.7696  0.3102
  114OSM   H18G11941   1.410   2.504   8.921  0.7354  0.8806 -0.6776
  114OSM   H18H11942   1.353   2.559   8.775  1.3948 -1.4748  0.3250
  115OSM      N11943   1.284   2.858   5.900 -0.3533 -0.1341 -0.3445
  115OSM    C1511944   1.348   2.791   5.788 -0.2791  1.3055  0.5476
  115OSM   H15A11945   1.297   2.704   5.749  0.9097  1.2770 -1.0761
  115OSM   H15B11946   1.435   2.745   5.833 -2.0205 -1.9841  0.8604
  115OSM   H15C11947   1.367   2.855   5.702 -2.0810 -0.2324 -1.0806
  115OSM    C1411948   1.370   2.977   5.942  0.2552 -0.3399 -0.0349
  115OSM   H14A11949   1.475   2.959   5.955 -0.2207 -4.2657 -0.4544
  115OSM   H14B11950   1.330   3.028   6.028 -0.3645  1.4099 -1.2971
  115OSM   H14C11951   1.353   3.045   5.859  0.3950 -0.9514 -0.5722
  115OSM    C1311952   1.142   2.897   5.855 -0.6093 -0.0074 -0.4517
  115OSM   H13A11953   1.143   2.946   5.758 -2.4081 -0.0340 -0.5165
  115OSM   H13B11954   1.111   2.966   5.932  0.5451  2.0330 -1.7148
  115OSM   H13C11955   1.076   2.814   5.837 -0.3952 -0.2523 -0.1167
  115OSM    C1211956   1.275   2.769   6.025  0.1830  0.0450  0.2424
  115OSM   H12A11957   1.205   2.690   6.003  1.4615 -0.7164 -1.2894
  115OSM   H12B11958   1.236   2.824   6.110 -1.6679 -1.4344  0.4174
  115OSM    C1111959   1.401   2.698   6.071 -0.3556  0.4500 -0.0396
  115OSM   H11A11960   1.378   2.655   6.171 -1.7023 -0.9784 -0.9283
  115OSM   H11B11961   1.488   2.766   6.083  0.2601  0.0896 -2.1244
  115OSM      P11962   1.390   2.461   5.972 -0.1159 -0.0570  0.0998
  115OSM    O1311963   1.298   2.436   5.851 -0.0905  0.1151 -0.0103
  115OSM    O1411964   1.512   2.377   5.977  0.1391  0.1127  0.1612
  115OSM    O1111965   1.312   2.443   6.099 -0.0938 -0.0073  0.5627
  115OSM    O1211966   1.437   2.601   5.974 -0.5482  0.4157  0.7943
  115OSM    C1S11967   1.370   2.385   6.223  0.0694 -0.4634 -0.0266
  115OSM    H1S11968   1.449   2.443   6.273  0.4865  1.0212 -2.2664
  115OSM    H1T11969   1.408   2.283   6.198 -1.1086 -1.5062  2.1303
  115OSM     NF11970   1.314   2.302   6.455  0.3174  0.0228 -1.2345
  115OSM    HNF11971   1.292   2.208   6.478  0.9785 -0.7409 -3.4241
  115OSM    C2S11972   1.258   2.357   6.333 -0.5037  0.1685 -0.5702
  115OSM    H2S11973   1.213   2.457   6.355 -0.4404  0.2744 -0.9208
  115OSM    C3S11974   1.136   2.272   6.271  0.6166  0.3971  0.1691
  115OSM    H3S11975   1.178   2.175   6.235  1.7806  1.5275 -1.6872
  115OSM     O311976   1.070   2.322   6.154  0.0913 -0.0072  0.3529
  115OSM    HO311977   1.120   2.398   6.123 -2.0451  1.7971  1.1362
  115OSM    C4S11978   1.024   2.249   6.366 -0.0230 -0.0920  0.1224
  115OSM    H4S11979   0.975   2.345   6.389  0.6681  0.6393 -1.2996
  115OSM    C5S11980   0.977   2.127   6.405  0.2584  0.4696  0.1094
  115OSM    H5S11981   1.017   2.039   6.353 -0.2001 -1.4665  2.8757
  115OSM    C6S11982   0.865   2.096   6.501  0.5905 -0.5224 -1.0588
  115OSM    H6S11983   0.901   2.019   6.572 -0.8278 -0.4886 -0.2670
  115OSM    H6T11984   0.782   2.051   6.442  0.0865  0.0889 -0.8428
  115OSM    C7S11985   0.811   2.206   6.588 -0.1886  0.1863  0.0619
  115OSM    H7S11986   0.771   2.288   6.524  0.4813  0.2288 -0.3199
  115OSM    H7T11987   0.893   2.264   6.636 -0.1420  0.4566 -0.3373
  115OSM    C8S11988   0.706   2.163   6.694  0.0492  0.4647 -0.0838
  115OSM    H8S11989   0.734   2.083   6.766 -1.3695  0.4019  0.4158
  115OSM    H8T11990   0.622   2.123   6.634  0.1948 -0.7780  0.5065
  115OSM    C9S11991   0.664   2.278   6.783 -0.1903 -0.0439 -0.3352
  115OSM    H9S11992   0.603   2.348   6.722 -3.0126  0.3768  2.6545
  115OSM    H9T11993   0.758   2.333   6.807 -0.6827  0.4948  0.4071
  115OSM   C10S11994   0.585   2.252   6.912  0.2555 -0.0930  0.8550
  115OSM   H10S11995   0.642   2.204   6.995  1.3427 -0.7522 -0.2483
  115OSM   H10T11996   0.502   2.182   6.888  2.2017 -2.1182 -0.3791
  115OSM   C11S11997   0.517   2.383   6.953 -0.7739 -0.2332  1.0502
  115OSM   H11S11998   0.476   2.435   6.864  1.1567  0.2608  0.3935
  115OSM   H11T11999   0.603   2.448   6.980  0.1501  0.3428 -2.7922
  115OSM   C12S12000   0.421   2.379   7.070  0.1781  0.0087 -0.2313
  115OSM   H12S12001   0.344   2.299   7.061 -0.1817  0.3727 -0.4379
  115OSM   H12T12002   0.369   2.477   7.068 -1.1131 -0.5723  1.7638
  115OSM   C13S12003   0.486   2.370   7.205  0.3973  0.2865  0.0873
  115OSM   H13S12004   0.535   2.465   7.233 -0.5144  0.3415  1.6317
  115OSM   H13T12005   0.564   2.291   7.200  0.0410 -0.2510  1.9562
  115OSM   C14S12006   0.389   2.328   7.320 -0.3675 -0.6589  0.8416
  115OSM   H14S12007   0.340   2.229   7.310  0.3038 -0.9825  0.6538
  115OSM   H14T12008   0.307   2.400   7.340 -0.2262 -0.0846 -0.5256
  115OSM   C15S12009   0.473   2.308   7.449 -0.2192 -0.1401  0.0624
  115OSM   H15S12010   0.505   2.409   7.483  1.5542 -0.2090 -1.2457
  115OSM   H15T12011   0.559   2.243   7.419 -1.0599 -1.2474 -0.0117
  115OSM   C16S12012   0.396   2.240   7.561  0.7270 -0.3638 -0.1810
  115OSM   H16S12013   0.340   2.150   7.527  1.2346 -0.9743  0.5543
  115OSM   H16T12014   0.313   2.308   7.589 -0.0374 -1.8108  1.1959
  115OSM   C17S12015   0.469   2.215   7.693 -0.2519 -0.5591  0.3582
  115OSM   H17S12016   0.387   2.196   7.766  0.1858 -1.2255  0.6799
  115OSM   H17T12017   0.526   2.307   7.719  0.6493 -1.0226  0.0476
  115OSM   C18S12018   0.561   2.091   7.680  0.7955 -0.2883  0.3258
  115OSM   H18S12019   0.581   2.049   7.781 -0.3910  0.1486  0.7556
  115OSM   H18T12020   0.655   2.137   7.642 -1.3667  4.7395  0.3188
  115OSM   H18U12021   0.504   2.020   7.617  2.9294 -0.6170 -1.3536
  115OSM    C1F12022   1.396   2.379   6.526 -0.5072  0.5574  0.2889
  115OSM     OF12023   1.388   2.498   6.520 -0.3851 -0.4666  0.7640
  115OSM    C2F12024   1.490   2.316   6.625 -0.6925 -0.0428 -0.3358
  115OSM    H2F12025   1.557   2.241   6.579 -1.9924 -0.7562 -1.1404
  115OSM    H2G12026   1.420   2.279   6.703 -1.3431  0.6167 -0.5864
  115OSM    C3F12027   1.588   2.424   6.695 -0.0600 -0.0667  0.8884
  115OSM    H3F12028   1.535   2.497   6.761 -2.0326 -0.3603 -0.2896
  115OSM    H3G12029   1.626   2.486   6.611  0.2763 -1.0249  0.3188
  115OSM    C4F12030   1.709   2.362   6.767  0.5962 -0.2076 -0.8943
  115OSM    H4F12031   1.745   2.280   6.701  1.9246 -1.0121  0.7278
  115OSM    H4G12032   1.669   2.314   6.859 -0.7629  1.1402 -0.7536
  115OSM    C5F12033   1.816   2.464   6.790  0.0706  0.0584 -0.2020
  115OSM    H5F12034   1.776   2.535   6.866 -0.3607 -0.7121  0.3118
  115OSM    H5G12035   1.832   2.525   6.699  1.2493 -3.0150 -2.2195
  115OSM    C6F12036   1.950   2.415   6.844 -0.5317  0.1340  0.8540
  115OSM    H6F12037   2.014   2.353   6.778  0.7068  1.1680  1.0530
  115OSM    H6G12038   1.930   2.351   6.933 -0.3717 -2.2506 -0.7291
  115OSM    C7F12039   2.055   2.521   6.886  0.2865  0.0928 -0.9484
  115OSM    H7F12040   2.019   2.541   6.989 -0.3933 -2.7366 -0.5593
  115OSM    H7G12041   2.038   2.614   6.828 -0.2300  0.6309  0.0341
  115OSM    C8F12042   2.195   2.457   6.899 -0.1498  0.5145  0.4048
  115OSM    H8F12043   2.220   2.411   6.800  1.9189  1.4111  0.4532
  115OSM    H8G12044   2.201   2.381   6.980  1.1024  1.3804  1.1526
  115OSM    C9F12045   2.303   2.564   6.918 -0.1144 -0.3768 -0.4019
  115OSM    H9F12046   2.370   2.583   6.833 -0.9314  0.0719 -0.9592
  115OSM   C10F12047   2.332   2.633   7.029  0.3895 -0.1236 -0.2083
  115OSM   H10F12048   2.416   2.702   7.014  1.9379 -2.1900 -1.5918
  115OSM   C11F12049   2.256   2.627   7.161 -0.4893 -0.3896 -0.3110
  115OSM   H11F12050   2.190   2.539   7.175 -1.0707  0.3090  1.7511
  115OSM   H11G12051   2.184   2.713   7.161  1.5280  1.4833  2.2697
  115OSM   C12F12052   2.346   2.651   7.275  0.6393 -0.7770 -0.7674
  115OSM   H12F12053   2.386   2.754   7.265 -2.0329  0.4587  0.1913
  115OSM   H12G12054   2.430   2.579   7.274  0.5640 -0.8819  0.0305
  115OSM   C13F12055   2.279   2.638   7.415 -0.3547  0.2788 -0.2492
  115OSM   H13F12056   2.253   2.530   7.428  2.8371 -0.6680 -0.7722
  115OSM   H13G12057   2.186   2.698   7.425  0.8230  2.3365 -1.1105
  115OSM   C14F12058   2.384   2.657   7.525 -0.4315 -0.0865  0.6654
  115OSM   H14F12059   2.446   2.745   7.501 -1.0913  0.3346  0.4664
  115OSM   H14G12060   2.443   2.564   7.540 -0.5585 -0.0943  1.1683
  115OSM   C15F12061   2.319   2.665   7.667  0.4186 -0.6113  0.5170
  115OSM   H15F12062   2.244   2.585   7.689 -0.9717  0.0369 -1.5493
  115OSM   H15G12063   2.255   2.755   7.665 -1.1421 -1.6804  0.2891
  115OSM   C16F12064   2.416   2.679   7.787 -0.1913  0.3470 -0.4131
  115OSM   H16F12065   2.500   2.747   7.762  1.9020 -1.6169  0.8224
  115OSM   H16G12066   2.449   2.573   7.798 -0.4490  0.3079  0.0080
  115OSM   C17F12067   2.354   2.711   7.922 -0.0214 -0.1070  0.2577
  115OSM   H17F12068   2.273   2.638   7.942  1.5445 -1.6221  1.4059
  115OSM   H17G12069   2.299   2.806   7.906 -0.5059 -0.3072  0.6917
  115OSM   C18F12070   2.445   2.711   8.043  0.9310 -0.2872 -0.3994
  115OSM   H18F12071   2.510   2.622   8.058 -0.1386 -1.1771 -0.9367
  115OSM   H18G12072   2.393   2.725   8.140 -0.8103  0.3120 -1.3848
  115OSM   H18H12073   2.514   2.798   8.039  0.3110  0.2534  0.3951
  116OSM      N12074   0.918   6.703   6.037  0.0955 -0.6182  0.0122
  116OSM    C1512075   0.845   6.576   6.070  0.9030  0.2708 -0.6392
  116OSM   H15A12076   0.844   6.556   6.176 -0.8570  0.4748 -0.5844
  116OSM   H15B12077   0.885   6.491   6.017 -0.2409  0.0542 -1.1858
  116OSM   H15C12078   0.741   6.597   6.050  0.6256 -1.2793 -0.9182
  116OSM    C1412079   1.053   6.692   6.094 -0.3466  0.2327 -0.5253
  116OSM   H14A12080   1.101   6.598   6.076 -3.1689 -1.0745 -1.9161
  116OSM   H14B12081   1.044   6.680   6.201  0.0789  0.3847 -0.4723
  116OSM   H14C12082   1.117   6.776   6.072 -0.9236  1.2009  1.2396
  116OSM    C1312083   0.929   6.709   5.887  0.3350  0.1052  0.3511
  116OSM   H13A12084   0.831   6.703   5.843  0.3064 -0.0050  0.4292
  116OSM   H13B12085   0.991   6.623   5.864 -0.6084 -1.7942  3.9885
  116OSM   H13C12086   0.973   6.803   5.858 -2.1325  1.0846 -0.4378
  116OSM    C1212087   0.848   6.823   6.092 -0.6753  0.0250 -0.4505
  116OSM   H12A12088   0.908   6.913   6.082 -1.7375  0.7045 -0.8929
  116OSM   H12B12089   0.851   6.812   6.200  1.0143 -0.1856 -0.4877
  116OSM    C1112090   0.706   6.851   6.042  0.5323  0.1729 -0.6070
  116OSM   H11A12091   0.712   6.886   5.936 -0.2700  1.3901 -0.2699
  116OSM   H11B12092   0.666   6.939   6.097  0.5432 -1.2708  1.8531
  116OSM      P12093   0.518   6.746   6.181  0.2655  0.0344  0.3235
  116OSM    O1312094   0.422   6.853   6.169  0.4874 -0.2336  0.4087
  116OSM    O1412095   0.465   6.603   6.204  0.0142  0.2514 -0.5056
  116OSM    O1112096   0.609   6.800   6.285 -0.1297  0.0277  0.0996
  116OSM    O1212097   0.611   6.748   6.054  0.5208 -0.7354 -0.0853
  116OSM    C1S12098   0.698   6.723   6.366 -0.1717  0.8160  0.0092
  116OSM    H1S12099   0.772   6.665   6.307 -1.7417 -2.6980  1.2317
  116OSM    H1T12100   0.642   6.634   6.402  1.4617 -0.1570  0.2208
  116OSM     NF12101   0.881   6.742   6.541 -0.0049 -0.4100 -0.2848
  116OSM    HNF12102   0.875   6.685   6.622 -2.1084  2.2703  1.6405
  116OSM    C2S12103   0.758   6.799   6.490 -0.2153 -0.4816  0.4051
  116OSM    H2S12104   0.778   6.905   6.466 -0.1275 -0.4985  0.4016
  116OSM    C3S12105   0.639   6.817   6.594  0.6321  0.5400 -0.1472
  116OSM    H3S12106   0.624   6.715   6.636  1.4640  0.5045  0.0731
  116OSM     O312107   0.514   6.851   6.537 -0.0120 -0.2757  0.4543
  116OSM    HO312108   0.525   6.865   6.443 -2.4824 -1.7727 -0.1354
  116OSM    C4S12109   0.682   6.899   6.711 -0.5594 -0.0646  1.1939
  116OSM    H4S12110   0.706   6.837   6.799 -3.2087 -1.7208  0.8800
  116OSM    C5S12111   0.668   7.030   6.718  0.4102  0.1776 -0.4990
  116OSM    H5S12112   0.630   7.083   6.629  3.4145  1.6873 -1.0204
  116OSM    C6S12113   0.697   7.113   6.838 -0.2320  0.6394 -0.5257
  116OSM    H6S12114   0.603   7.157   6.877  0.6244  1.5931  0.5366
  116OSM    H6T12115   0.767   7.196   6.814 -0.3396  1.7520  2.5091
  116OSM    C7S12116   0.754   7.036   6.965 -0.0518 -0.5057  0.9665
  116OSM    H7S12117   0.848   6.988   6.928 -0.5470 -0.2036 -0.7757
  116OSM    H7T12118   0.690   6.955   7.006 -3.1019  2.1846  1.9693
  116OSM    C8S12119   0.785   7.140   7.079 -0.4356  0.3182 -0.2679
  116OSM    H8S12120   0.686   7.184   7.104 -0.2548  0.5828 -0.0001
  116OSM    H8T12121   0.840   7.224   7.031  0.1573  0.5789  0.8356
  116OSM    C9S12122   0.854   7.079   7.195  0.4114 -0.1861 -0.0213
  116OSM    H9S12123   0.952   7.035   7.165  1.0400  0.9860  0.2707
  116OSM    H9T12124   0.785   7.011   7.249  0.7444 -0.2307  0.3579
  116OSM   C10S12125   0.887   7.186   7.304 -0.2516  0.0467 -0.0559
  116OSM   H10S12126   0.812   7.268   7.309  0.9514  1.4573 -2.7264
  116OSM   H10T12127   0.980   7.241   7.276 -1.1074  1.1217 -0.9229
  116OSM   C11S12128   0.909   7.124   7.436 -0.2878 -0.6364 -0.5898
  116OSM   H11S12129   0.982   7.040   7.432  1.0947  0.3317  1.8232
  116OSM   H11T12130   0.812   7.083   7.472 -0.8387 -1.2045 -2.6053
  116OSM   C12S12131   0.947   7.239   7.539 -0.2763 -0.2784  0.3688
  116OSM   H12S12132   0.938   7.333   7.481  1.4958  0.8658  1.8244
  116OSM   H12T12133   1.050   7.222   7.577  0.3549  0.4810 -0.9490
  116OSM   C13S12134   0.861   7.253   7.668  0.0575 -0.7321  0.2296
  116OSM   H13S12135   0.857   7.153   7.715 -0.0413  0.0401  1.9172
  116OSM   H13T12136   0.757   7.287   7.646  0.8512  0.1517 -2.6925
  116OSM   C14S12137   0.924   7.359   7.766  0.1362 -0.4541 -0.6259
  116OSM   H14S12138   0.888   7.458   7.730 -2.3303 -0.3339  1.8149
  116OSM   H14T12139   1.035   7.353   7.763  0.1463 -0.9915  0.3018
  116OSM   C15S12140   0.882   7.328   7.908  0.1720 -0.2059 -0.3555
  116OSM   H15S12141   0.946   7.251   7.957  0.3212  0.1858  0.0722
  116OSM   H15T12142   0.775   7.298   7.913  0.0267  0.3596  0.0098
  116OSM   C16S12143   0.913   7.449   7.996  0.4949 -0.1515  0.6819
  116OSM   H16S12144   0.853   7.537   7.964  0.9296  0.2735  1.0349
  116OSM   H16T12145   1.014   7.487   7.970 -0.6156  1.4061 -1.7161
  116OSM   C17S12146   0.903   7.436   8.145 -0.1379  0.2290  0.0554
  116OSM   H17S12147   0.994   7.378   8.174  1.1096  1.2255 -1.6527
  116OSM   H17T12148   0.814   7.379   8.179 -0.2263  0.9699  1.0986
  116OSM   C18S12149   0.905   7.564   8.225  0.0094  0.3658 -1.0025
  116OSM   H18S12150   0.877   7.544   8.331  3.0258  2.0078  0.2221
  116OSM   H18T12151   0.833   7.641   8.191  0.6089  1.2730 -0.2496
  116OSM   H18U12152   1.013   7.591   8.219  0.8488 -1.7568  1.8884
  116OSM    C1F12153   0.998   6.763   6.483  0.1004  0.2286 -0.6696
  116OSM     OF12154   1.008   6.816   6.372  0.2258 -0.3223 -0.0107
  116OSM    C2F12155   1.116   6.733   6.570  0.8336 -0.0871  0.6887
  116OSM    H2F12156   1.103   6.755   6.678  1.1303 -0.4119  0.7937
  116OSM    H2G12157   1.198   6.801   6.538 -0.4433  1.5988  0.8403
  116OSM    C3F12158   1.163   6.590   6.546  0.1579 -0.1111 -0.2253
  116OSM    H3F12159   1.181   6.584   6.437 -1.3395 -0.8588 -0.4599
  116OSM    H3G12160   1.091   6.508   6.569  1.6146 -1.2169  0.5792
  116OSM    C4F12161   1.292   6.551   6.624 -0.2845  1.2790  0.7209
  116OSM    H4F12162   1.309   6.448   6.586  1.1297  0.2085  3.8639
  116OSM    H4G12163   1.272   6.555   6.734 -1.5645 -0.1857  0.5777
  116OSM    C5F12164   1.414   6.639   6.606  0.5412  1.0729  0.5288
  116OSM    H5F12165   1.412   6.676   6.502  1.3620 -1.7911 -0.6145
  116OSM    H5G12166   1.499   6.567   6.609  0.5774  1.1125  0.4575
  116OSM    C6F12167   1.434   6.755   6.707 -0.5676  0.4755  0.5563
  116OSM    H6F12168   1.370   6.840   6.674 -1.2010  0.1544  0.9602
  116OSM    H6G12169   1.536   6.796   6.688 -0.7116  0.0019 -1.5295
  116OSM    C7F12170   1.418   6.729   6.854 -1.1078  0.0925 -0.1695
  116OSM    H7F12171   1.472   6.635   6.879 -2.4977 -0.4652  0.8612
  116OSM    H7G12172   1.309   6.709   6.865 -0.9407 -2.1901 -1.8426
  116OSM    C8F12173   1.459   6.845   6.942  0.7730 -0.1878  0.1856
  116OSM    H8F12174   1.416   6.838   7.044  0.4961 -0.2035  0.0674
  116OSM    H8G12175   1.405   6.935   6.906  0.0111 -0.6957  0.0392
  116OSM    C9F12176   1.607   6.861   6.949  1.0695 -1.6228  0.2713
  116OSM    H9F12177   1.652   6.899   6.857 -0.3339  2.3847  1.0710
  116OSM   C10F12178   1.679   6.850   7.058 -0.2996  0.1285  0.0054
  116OSM   H10F12179   1.787   6.866   7.053 -0.3636  0.5409 -0.0510
  116OSM   C11F12180   1.640   6.810   7.198  1.2327  0.4881  0.8122
  116OSM   H11F12181   1.683   6.709   7.213 -1.2369 -0.6542  0.6725
  116OSM   H11G12182   1.531   6.807   7.217  0.6284  1.3397 -2.0935
  116OSM   C12F12183   1.706   6.898   7.315  0.0224 -0.1563  0.2839
  116OSM   H12F12184   1.692   7.006   7.296  1.2879  0.1882  1.1787
  116OSM   H12G12185   1.817   6.891   7.311  0.1620  1.0128  1.3005
  116OSM   C13F12186   1.652   6.855   7.452 -0.4541 -0.3833 -0.0582
  116OSM   H13F12187   1.688   6.753   7.476 -0.8095 -0.2936  0.9051
  116OSM   H13G12188   1.543   6.842   7.438 -0.1254 -2.5195 -0.9229
  116OSM   C14F12189   1.677   6.953   7.567 -0.1137 -0.4126  0.1582
  116OSM   H14F12190   1.639   6.904   7.659 -0.8788 -0.0448  0.0550
  116OSM   H14G12191   1.627   7.050   7.541 -0.1279 -0.3922  0.2634
  116OSM   C15F12192   1.823   6.978   7.600 -0.6757 -0.0104  0.1781
  116OSM   H15F12193   1.884   7.008   7.512  0.9116  1.5475  1.7189
  116OSM   H15G12194   1.869   6.886   7.641  1.2752  1.8091  2.3515
  116OSM   C16F12195   1.839   7.067   7.722  0.4256 -0.9363 -0.6436
  116OSM   H16F12196   1.797   7.028   7.817  0.0684  1.7930  0.4327
  116OSM   H16G12197   1.807   7.173   7.709 -0.4273 -1.0400  0.4715
  116OSM   C17F12198   1.989   7.090   7.755  0.0293 -0.1306  0.1422
  116OSM   H17F12199   2.046   7.083   7.660  0.9883  1.8584  0.5063
  116OSM   H17G12200   2.022   7.018   7.833  1.9049  0.7699  0.2227
  116OSM   C18F12201   2.024   7.229   7.822  0.4455 -0.1823  0.3048
  116OSM   H18F12202   2.036   7.311   7.747 -0.9985 -0.2852 -0.0781
  116OSM   H18G12203   2.118   7.227   7.881  0.5442  2.4825  0.3782
  116OSM   H18H12204   1.934   7.248   7.884 -0.5128 -3.5488  0.1294
  117OSM      N12205   6.075   6.806   6.217  0.0704  0.0870  0.1336
  117OSM    C1512206   6.054   6.948   6.272  0.4597 -0.2697 -0.0215
  117OSM   H15A12207   6.139   6.976   6.333  0.9699  1.3694 -1.3946
  117OSM   H15B12208   5.966   6.957   6.333  0.9493  0.7851  0.5570
  117OSM   H15C12209   6.061   7.027   6.198 -2.0351 -0.4905 -0.5716
  117OSM    C1412210   5.959   6.764   6.124  0.0365  0.1441 -0.3997
  117OSM   H14A12211   5.970   6.662   6.090  1.3932 -0.6787  2.2385
  117OSM   H14B12212   5.959   6.839   6.046  0.3163  0.1933 -0.3530
  117OSM   H14C12213   5.864   6.775   6.174  0.5167  1.0395  0.3379
  117OSM    C1312214   6.198   6.818   6.127 -0.0733 -0.2446 -0.4413
  117OSM   H13A12215   6.289   6.823   6.184 -0.0823 -2.4654 -0.1442
  117OSM   H13B12216   6.182   6.906   6.067  0.4939 -1.4260 -2.4404
  117OSM   H13C12217   6.201   6.727   6.068 -2.2295  0.0065 -1.0423
  117OSM    C1212218   6.118   6.699   6.323  0.1703 -0.0219  1.0698
  117OSM   H12A12219   6.120   6.604   6.272 -2.1965  0.2777  0.2785
  117OSM   H12B12220   6.034   6.685   6.389 -1.3635 -0.0531 -0.7889
  117OSM    C1112221   6.259   6.721   6.392  0.8562  0.3984 -0.0023
  117OSM   H11A12222   6.254   6.663   6.487 -2.6976 -0.8096 -0.7441
  117OSM   H11B12223   6.258   6.828   6.424  1.7814  0.3502  0.2169
  117OSM      P12224   6.431   6.551   6.272 -0.4068 -0.5011 -0.1191
  117OSM    O1312225   6.320   6.471   6.219 -0.4412  0.1163 -0.6292
  117OSM    O1412226   6.548   6.559   6.184 -0.3065 -0.3723  0.2622
  117OSM    O1112227   6.473   6.495   6.413  0.1620  0.2063  0.0462
  117OSM    O1212228   6.375   6.699   6.307  0.4089  0.4941 -0.3036
  117OSM    C1S12229   6.569   6.555   6.496 -0.3512 -0.5923 -0.2465
  117OSM    H1S12230   6.527   6.651   6.533 -1.2675 -1.1748  0.2609
  117OSM    H1T12231   6.664   6.582   6.445  0.4827  0.4222  1.7470
  117OSM     NF12232   6.684   6.525   6.714 -0.1030 -0.3001 -1.2070
  117OSM    HNF12233   6.782   6.512   6.704  0.0286 -1.4239  0.8648
  117OSM    C2S12234   6.613   6.456   6.613 -1.0465 -0.2257  0.7529
  117OSM    H2S12235   6.517   6.415   6.652 -1.7811 -0.1256 -0.8844
  117OSM    C3S12236   6.691   6.335   6.550 -0.8328  0.3328 -0.4342
  117OSM    H3S12237   6.784   6.368   6.499 -1.0197  2.7945  0.6760
  117OSM     O312238   6.603   6.266   6.463  0.0293  0.3949  0.0966
  117OSM    HO312239   6.526   6.320   6.444 -1.4446 -0.9976  1.7210
  117OSM    C4S12240   6.727   6.246   6.660  0.4829  0.9631 -0.3873
  117OSM    H4S12241   6.633   6.210   6.705  1.3605 -3.2194 -1.4698
  117OSM    C5S12242   6.848   6.219   6.718  0.1479  0.3121 -0.3255
  117OSM    H5S12243   6.942   6.267   6.686  1.0373 -1.0877  0.1172
  117OSM    C6S12244   6.878   6.125   6.833 -0.0646 -0.0161  0.5556
  117OSM    H6S12245   6.960   6.056   6.804 -1.1007 -0.4502 -1.6133
  117OSM    H6T12246   6.788   6.062   6.855  0.3557 -0.9293 -0.2388
  117OSM    C7S12247   6.915   6.203   6.959 -0.5521  0.8170 -0.0271
  117OSM    H7S12248   6.838   6.272   7.000  1.4890  2.0702  1.9288
  117OSM    H7T12249   7.008   6.262   6.947 -0.4480  0.5765 -0.4433
  117OSM    C8S12250   6.949   6.117   7.088 -0.1649  0.4657 -0.4093
  117OSM    H8S12251   7.018   6.032   7.068  0.6882  1.0743 -0.1164
  117OSM    H8T12252   6.849   6.079   7.117 -0.8459  2.9407  0.7348
  117OSM    C9S12253   7.003   6.192   7.215 -0.2706  1.0687 -0.3595
  117OSM    H9S12254   6.924   6.267   7.239 -2.0236 -1.3256  2.0403
  117OSM    H9T12255   7.096   6.243   7.183  0.7011 -0.3690  0.0937
  117OSM   C10S12256   7.014   6.107   7.339 -0.2363 -0.6248  0.0563
  117OSM   H10S12257   7.070   6.014   7.317 -1.4037 -1.8286  1.8826
  117OSM   H10T12258   6.914   6.073   7.373 -0.2144  0.1816  0.9704
  117OSM   C11S12259   7.080   6.194   7.450 -0.6705  0.2099  0.4509
  117OSM   H11S12260   7.029   6.293   7.448 -1.2233 -0.0859 -0.6880
  117OSM   H11T12261   7.189   6.209   7.434 -0.8747  0.7898 -0.4988
  117OSM   C12S12262   7.075   6.131   7.589 -0.4869 -0.3441  0.2851
  117OSM   H12S12263   7.116   6.028   7.580 -0.4319 -0.3292  0.3612
  117OSM   H12T12264   6.972   6.130   7.631 -0.8609  1.8373 -0.4706
  117OSM   C13S12265   7.165   6.208   7.694 -0.0270 -0.4712 -0.2818
  117OSM   H13S12266   7.123   6.310   7.711 -2.4893 -1.5337  0.4893
  117OSM   H13T12267   7.268   6.221   7.655  0.8975 -2.0766  1.4738
  117OSM   C14S12268   7.178   6.146   7.828 -0.1137  0.3306 -0.9574
  117OSM   H14S12269   7.231   6.051   7.806 -1.6592 -0.2631 -2.3127
  117OSM   H14T12270   7.081   6.131   7.881  1.0406 -1.0725  0.8576
  117OSM   C15S12271   7.267   6.224   7.924  0.3348 -0.2800  0.5763
  117OSM   H15S12272   7.230   6.327   7.941 -0.9953 -0.6661  0.1685
  117OSM   H15T12273   7.355   6.242   7.858 -0.7681  0.8966 -0.6544
  117OSM   C16S12274   7.315   6.157   8.054 -0.2100  0.6144  0.6669
  117OSM   H16S12275   7.398   6.216   8.097 -0.0801 -0.5815  2.1401
  117OSM   H16T12276   7.330   6.050   8.025 -0.9372  0.2969  1.4127
  117OSM   C17S12277   7.203   6.143   8.150  0.5265 -0.1262  0.1602
  117OSM   H17S12278   7.120   6.077   8.116  0.2446  0.7890 -0.9689
  117OSM   H17T12279   7.166   6.247   8.162 -0.3861 -0.6091  2.0802
  117OSM   C18S12280   7.257   6.096   8.286 -0.5493  0.1389  0.7010
  117OSM   H18S12281   7.350   6.153   8.307 -0.8739  0.8242  0.2954
  117OSM   H18T12282   7.284   5.988   8.288 -2.5905 -0.4083  0.8081
  117OSM   H18U12283   7.178   6.125   8.359 -1.2862  4.5845 -1.5319
  117OSM    C1F12284   6.625   6.597   6.804  0.9161 -0.3298  0.8465
  117OSM     OF12285   6.503   6.619   6.794  0.1242  0.6909 -0.3559
  117OSM    C2F12286   6.717   6.649   6.912  0.2044 -0.2730 -0.1252
  117OSM    H2F12287   6.787   6.724   6.869 -1.7132  0.9996 -1.2132
  117OSM    H2G12288   6.775   6.566   6.957  2.5068  1.4004  0.1932
  117OSM    C3F12289   6.628   6.710   7.021 -0.2014 -0.3262  0.3238
  117OSM    H3F12290   6.556   6.638   7.064 -2.0665  2.5566  2.4624
  117OSM    H3G12291   6.578   6.795   6.969  0.8967 -1.4951 -2.8627
  117OSM    C4F12292   6.719   6.760   7.143  0.2077 -0.4178  0.3631
  117OSM    H4F12293   6.778   6.845   7.104 -0.1554 -0.2154  0.2498
  117OSM    H4G12294   6.795   6.681   7.164  1.3125  0.2023 -1.1394
  117OSM    C5F12295   6.646   6.787   7.275  0.0406 -0.2476  0.3323
  117OSM    H5F12296   6.559   6.718   7.288  1.6257 -2.0905  1.7748
  117OSM    H5G12297   6.602   6.888   7.268 -2.6474 -1.4270 -1.3472
  117OSM    C6F12298   6.738   6.779   7.390 -0.1349  0.1526  0.1382
  117OSM    H6F12299   6.816   6.857   7.376 -0.2531 -0.1089 -2.3584
  117OSM    H6G12300   6.783   6.678   7.402 -0.0610 -0.0214 -1.4872
  117OSM    C7F12301   6.654   6.810   7.512 -0.1039  0.3888 -0.3144
  117OSM    H7F12302   6.607   6.714   7.541 -1.0869  0.8657 -0.2806
  117OSM    H7G12303   6.578   6.889   7.491  1.2753  1.5530 -1.1308
  117OSM    C8F12304   6.742   6.855   7.634  0.8040 -0.0452 -0.6010
  117OSM    H8F12305   6.803   6.947   7.624 -2.0305  1.7903 -2.2836
  117OSM    H8G12306   6.811   6.773   7.665  1.6728  1.2779  1.1484
  117OSM    C9F12307   6.636   6.878   7.743  0.0723 -0.1987 -0.1143
  117OSM    H9F12308   6.552   6.808   7.749 -1.0800  0.9191 -2.0936
  117OSM   C10F12309   6.627   6.982   7.834  0.0623  0.2989  0.7542
  117OSM   H10F12310   6.543   6.973   7.905 -2.2046 -0.0862 -1.8140
  117OSM   C11F12311   6.723   7.097   7.845 -0.9082 -0.8638  0.1410
  117OSM   H11F12312   6.665   7.191   7.839 -0.5679 -0.6972 -0.5993
  117OSM   H11G12313   6.798   7.117   7.766  2.1643  1.5232  3.3471
  117OSM   C12F12314   6.803   7.096   7.974 -0.1977 -0.3529  0.3984
  117OSM   H12F12315   6.903   7.144   7.968  0.4414 -1.5396  1.2022
  117OSM   H12G12316   6.830   6.991   7.997  1.0462 -0.0375  0.4470
  117OSM   C13F12317   6.722   7.157   8.089  0.0064 -0.0435  0.4660
  117OSM   H13F12318   6.618   7.117   8.082  0.1503 -0.7537  1.9390
  117OSM   H13G12319   6.712   7.263   8.060  0.8263  0.4222  1.8397
  117OSM   C14F12320   6.792   7.159   8.231 -0.2166 -0.0648  0.7106
  117OSM   H14F12321   6.899   7.184   8.213 -0.4166 -0.5476 -1.3391
  117OSM   H14G12322   6.799   7.056   8.274  0.7434 -0.1483  0.3862
  117OSM   C15F12323   6.728   7.266   8.317  0.4737 -0.0665 -1.1728
  117OSM   H15F12324   6.620   7.252   8.293  0.5117  1.7709 -2.6570
  117OSM   H15G12325   6.763   7.369   8.292  0.1139  0.7040  1.2401
  117OSM   C16F12326   6.761   7.267   8.467 -0.2522  0.3745 -0.6258
  117OSM   H16F12327   6.727   7.365   8.507 -4.2292 -0.7177 -0.9152
  117OSM   H16G12328   6.870   7.264   8.489 -0.9588 -1.6098  3.8635
  117OSM   C17F12329   6.702   7.151   8.552  0.0147 -0.3960 -0.3645
  117OSM   H17F12330   6.602   7.127   8.512 -0.3163 -1.0374  0.7812
  117OSM   H17G12331   6.760   7.062   8.522 -1.1826 -0.5405 -2.3880
  117OSM   C18F12332   6.713   7.173   8.706  0.1380 -0.0285 -0.2533
  117OSM   H18F12333   6.637   7.240   8.751 -0.4019 -1.3922  0.9470
  117OSM   H18G12334   6.811   7.217   8.737 -1.1537  2.3461  0.7456
  117OSM   H18H12335   6.707   7.075   8.757 -1.6552 -0.6734 -1.6285
  118OSM      N12336   1.612   2.013   6.102 -0.8724 -0.7999  0.5987
  118OSM    C1512337   1.706   1.899   6.074 -0.2348 -0.3440  0.0530
  118OSM   H15A12338   1.787   1.899   6.146  0.2340  0.3760 -0.4615
  118OSM   H15B12339   1.742   1.905   5.972  1.6403 -3.3724  0.4104
  118OSM   H15C12340   1.656   1.803   6.074 -0.0476 -0.4846 -2.0437
  118OSM    C1412341   1.478   1.981   6.045  0.1578  0.1563  0.0715
  118OSM   H14A12342   1.400   2.052   6.068  0.7776  0.0783  2.6285
  118OSM   H14B12343   1.443   1.885   6.081 -2.1918  0.0585 -2.1604
  118OSM   H14C12344   1.477   1.981   5.937  1.6924  0.9285  0.0271
  118OSM    C1312345   1.594   2.036   6.246  0.6557  0.6599 -0.6292
  118OSM   H13A12346   1.531   2.119   6.276 -0.9030 -0.0498 -1.8573
  118OSM   H13B12347   1.694   2.051   6.284  0.4994 -1.4891  0.8097
  118OSM   H13C12348   1.556   1.952   6.302  0.7570  0.5282 -0.7586
  118OSM    C1212349   1.661   2.141   6.033  0.5877 -0.3605  0.4449
  118OSM   H12A12350   1.579   2.211   6.041 -1.6122 -2.8283  0.9457
  118OSM   H12B12351   1.674   2.112   5.929 -1.3183  0.0647  0.0552
  118OSM    C1112352   1.785   2.202   6.088 -0.5679  0.4392 -0.2107
  118OSM   H11A12353   1.761   2.212   6.196  0.1816  0.6866 -0.0613
  118OSM   H11B12354   1.799   2.303   6.046  0.0616 -0.0350 -1.1637
  118OSM      P12355   2.032   2.176   6.120 -0.0881 -0.1685  0.3167
  118OSM    O1312356   2.144   2.095   6.072  0.6852 -0.3320 -0.2372
  118OSM    O1412357   2.040   2.318   6.085 -0.2911 -0.6205  0.1622
  118OSM    O1112358   2.018   2.166   6.278 -0.2309  0.6827  0.1847
  118OSM    O1212359   1.899   2.111   6.058 -0.2435 -0.7311 -0.2625
  118OSM    C1S12360   2.042   2.024   6.322 -0.2445 -0.2505 -0.1323
  118OSM    H1S12361   2.151   2.003   6.315  0.2075  1.0433  2.0402
  118OSM    H1T12362   1.985   1.948   6.265 -0.8270 -1.8616  2.4260
  118OSM     NF12363   2.046   1.869   6.517  0.5776 -0.5106  0.2982
  118OSM    HNF12364   1.970   1.808   6.536  1.3132 -2.0920 -1.5303
  118OSM    C2S12365   2.015   2.006   6.471 -0.0850 -0.3357 -0.8026
  118OSM    H2S12366   2.087   2.075   6.520  1.8114 -2.5841 -0.2056
  118OSM    C3S12367   1.874   2.040   6.512 -0.2030 -0.6502  0.0139
  118OSM    H3S12368   1.812   1.951   6.487 -0.9608 -0.3847  0.8746
  118OSM     O312369   1.806   2.151   6.449 -0.0394 -0.3165 -0.2500
  118OSM    HO312370   1.866   2.163   6.374  0.1164  1.4335  0.1085
  118OSM    C4S12371   1.879   2.061   6.661 -0.0840 -0.5085  0.9009
  118OSM    H4S12372   1.959   2.132   6.688 -0.2567 -0.7449  2.1092
  118OSM    C5S12373   1.805   1.997   6.752 -0.3914 -0.9925 -0.2476
  118OSM    H5S12374   1.723   1.931   6.720 -0.2902 -1.0580 -0.3740
  118OSM    C6S12375   1.814   2.019   6.904 -0.0948  0.2165 -0.2304
  118OSM    H6S12376   1.799   1.923   6.958  0.1505 -1.0678 -2.3220
  118OSM    H6T12377   1.732   2.090   6.930 -0.8125 -0.2546 -1.1509
  118OSM    C7S12378   1.948   2.065   6.955  0.2465  0.8947  0.1460
  118OSM    H7S12379   1.952   2.171   6.921  0.7056  1.8799  2.9869
  118OSM    H7T12380   2.034   1.999   6.932 -1.6416 -2.3314  1.7206
  118OSM    C8S12381   1.960   2.071   7.108 -0.6330 -0.0972 -0.2969
  118OSM    H8S12382   2.049   2.137   7.118 -0.4623  0.0963 -2.4642
  118OSM    H8T12383   1.978   1.971   7.155  0.3807 -0.0688 -0.5894
  118OSM    C9S12384   1.842   2.149   7.174 -0.0407 -0.7279 -0.2187
  118OSM    H9S12385   1.753   2.086   7.193  0.1832 -1.0159 -0.1187
  118OSM    H9T12386   1.816   2.234   7.107  0.8543 -0.7718 -0.6445
  118OSM   C10S12387   1.882   2.226   7.303 -0.2701  0.5122 -0.6574
  118OSM   H10S12388   1.949   2.309   7.273 -0.6994  1.4525  0.8816
  118OSM   H10T12389   1.945   2.165   7.371 -1.7919  2.5217  2.8151
  118OSM   C11S12390   1.757   2.264   7.386  0.4172 -0.4801 -0.4438
  118OSM   H11S12391   1.699   2.331   7.319  3.1717  1.2190 -1.2861
  118OSM   H11T12392   1.798   2.332   7.464  0.1407  0.8867 -1.4546
  118OSM   C12S12393   1.689   2.145   7.444 -0.2686  0.1029 -0.7397
  118OSM   H12S12394   1.759   2.060   7.454  1.9732  1.6718 -2.2841
  118OSM   H12T12395   1.598   2.123   7.383 -0.0502 -2.6773 -0.1577
  118OSM   C13S12396   1.633   2.164   7.589 -0.2232  0.0857  0.6200
  118OSM   H13S12397   1.553   2.241   7.592  0.6111  1.1128 -1.5008
  118OSM   H13T12398   1.709   2.207   7.658 -0.1287  3.0179 -1.1344
  118OSM   C14S12399   1.582   2.031   7.648  0.0399  0.4061 -0.6713
  118OSM   H14S12400   1.667   1.972   7.688 -0.4156  0.2684  0.1029
  118OSM   H14T12401   1.523   1.977   7.571 -1.6816  1.7471 -0.3549
  118OSM   C15S12402   1.478   2.047   7.760 -0.8179 -0.0085  0.4377
  118OSM   H15S12403   1.441   1.946   7.789 -2.3145 -0.3096 -2.2167
  118OSM   H15T12404   1.388   2.097   7.717  0.3291  1.8694  0.1314
  118OSM   C16S12405   1.522   2.122   7.886  0.6397  0.2016 -0.8453
  118OSM   H16S12406   1.433   2.144   7.949  0.2922 -1.6847 -0.6414
  118OSM   H16T12407   1.546   2.226   7.854 -1.1454  0.9466  0.0780
  118OSM   C17S12408   1.640   2.064   7.961  0.0744  0.5159  0.6090
  118OSM   H17S12409   1.721   2.023   7.896 -0.4127 -1.0941  0.9850
  118OSM   H17T12410   1.597   1.975   8.011 -0.8674 -1.4311 -3.2804
  118OSM   C18S12411   1.698   2.163   8.056 -0.6700  0.2499 -0.2504
  118OSM   H18S12412   1.792   2.128   8.105 -1.1255  1.1520  1.3256
  118OSM   H18T12413   1.622   2.190   8.132 -0.5809  0.2163 -0.1484
  118OSM   H18U12414   1.718   2.255   7.996  1.8065 -0.0949 -0.0768
  118OSM    C1F12415   2.159   1.818   6.513 -0.0402  0.3038 -0.6804
  118OSM     OF12416   2.260   1.882   6.485 -0.3509 -0.0768  0.1840
  118OSM    C2F12417   2.157   1.673   6.550  0.3209 -0.0161  0.4646
  118OSM    H2F12418   2.177   1.616   6.457 -2.8938 -0.9184  0.1921
  118OSM    H2G12419   2.054   1.650   6.588  0.1652 -0.7044 -0.3566
  118OSM    C3F12420   2.259   1.626   6.655  0.4408  0.3241  0.3184
  118OSM    H3F12421   2.360   1.660   6.626  0.0053  0.0451 -1.6610
  118OSM    H3G12422   2.251   1.515   6.661 -1.0433  0.3676 -0.4150
  118OSM    C4F12423   2.234   1.690   6.793  0.8144 -0.2512 -0.1084
  118OSM    H4F12424   2.124   1.692   6.811  0.9715 -0.3168  0.9371
  118OSM    H4G12425   2.270   1.795   6.796  0.9650 -0.3220  1.0674
  118OSM    C5F12426   2.299   1.608   6.904  0.0647 -0.0088 -0.6713
  118OSM    H5F12427   2.409   1.613   6.887  0.1011 -0.2994 -0.5291
  118OSM    H5G12428   2.260   1.504   6.902  0.9832 -0.4061  0.6447
  118OSM    C6F12429   2.288   1.660   7.052 -0.0040 -0.5385  0.0302
  118OSM    H6F12430   2.339   1.758   7.055 -2.8686  1.0486  0.5543
  118OSM    H6G12431   2.324   1.585   7.126  0.0322 -2.0755 -1.4849
  118OSM    C7F12432   2.138   1.688   7.084  0.5916  0.8136 -0.3222
  118OSM    H7F12433   2.077   1.597   7.068 -0.5356  1.5706 -0.4260
  118OSM    H7G12434   2.095   1.765   7.017 -1.4172 -0.0136 -0.0409
  118OSM    C8F12435   2.120   1.757   7.223  0.0982 -0.1140  0.3012
  118OSM    H8F12436   2.012   1.779   7.234  0.9289  3.7351  2.6906
  118OSM    H8G12437   2.175   1.854   7.223 -1.1494  0.6230  1.5162
  118OSM    C9F12438   2.157   1.685   7.353 -0.0925  0.1334 -0.0053
  118OSM    H9F12439   2.136   1.577   7.347 -1.2296  0.4146 -3.3435
  118OSM   C10F12440   2.191   1.747   7.464 -0.2325  0.4289 -0.6608
  118OSM   H10F12441   2.201   1.688   7.557 -0.9239  1.9995  0.4507
  118OSM   C11F12442   2.213   1.901   7.487 -0.1175  0.0418 -0.2081
  118OSM   H11F12443   2.236   1.953   7.391  1.4735 -0.4300 -0.1148
  118OSM   H11G12444   2.312   1.920   7.535 -0.5415  1.1749  0.2467
  118OSM   C12F12445   2.108   1.973   7.573  0.2236 -0.3428  0.3571
  118OSM   H12F12446   2.096   1.922   7.671  2.3464  0.6578  1.1913
  118OSM   H12G12447   2.010   1.979   7.521  0.3422 -1.3459 -0.0143
  118OSM   C13F12448   2.160   2.112   7.609 -0.2815 -0.0515 -1.2339
  118OSM   H13F12449   2.193   2.165   7.517  0.1978  2.0644  0.0747
  118OSM   H13G12450   2.243   2.096   7.682 -1.7141 -0.1300  0.4301
  118OSM   C14F12451   2.050   2.190   7.695 -0.2911  0.3142 -0.1348
  118OSM   H14F12452   1.998   2.127   7.771 -0.4909 -0.4406 -0.8797
  118OSM   H14G12453   1.980   2.225   7.617  1.3184  1.9068 -0.9286
  118OSM   C15F12454   2.115   2.308   7.770  0.3746  0.9566  0.8710
  118OSM   H15F12455   2.033   2.380   7.790  0.0617  0.7984  0.1918
  118OSM   H15G12456   2.184   2.351   7.694 -0.9715  0.4636 -0.6917
  118OSM   C16F12457   2.189   2.278   7.896 -0.3015 -0.2600 -0.7707
  118OSM   H16F12458   2.234   2.376   7.925 -2.2946  1.3961 -2.9157
  118OSM   H16G12459   2.272   2.209   7.868  0.8523  0.8220 -0.1540
  118OSM   C17F12460   2.113   2.209   8.006  0.6859 -0.3672 -0.3679
  118OSM   H17F12461   2.074   2.110   7.972 -1.6950  0.0166  1.0001
  118OSM   H17G12462   2.021   2.260   8.042  2.0847  0.3451  2.4168
  118OSM   C18F12463   2.196   2.214   8.139 -0.4686 -0.2533 -0.4017
  118OSM   H18F12464   2.304   2.213   8.113 -0.5612  0.5309 -0.8608
  118OSM   H18G12465   2.167   2.130   8.205  0.7192  1.9675  3.2238
  118OSM   H18H12466   2.176   2.311   8.189  1.7011  0.8414 -1.5171
  119OSM      N12467   4.573   1.987   5.575  0.1886  0.0507 -0.6533
  119OSM    C1512468   4.628   1.921   5.450 -0.2963  0.0223 -0.3486
  119OSM   H15A12469   4.549   1.859   5.411  1.3204 -1.4234 -1.4626
  119OSM   H15B12470   4.725   1.875   5.458 -0.7315 -0.7865  0.3209
  119OSM   H15C12471   4.641   2.005   5.383  1.3752  0.2104  0.1694
  119OSM    C1412472   4.672   2.084   5.635  0.8751  0.1509 -0.3721
  119OSM   H14A12473   4.768   2.041   5.657  1.0171 -0.5677 -2.1717
  119OSM   H14B12474   4.633   2.131   5.724  0.3137 -2.9424  1.1566
  119OSM   H14C12475   4.685   2.159   5.558 -1.5666  1.0050 -0.0297
  119OSM    C1312476   4.441   2.066   5.539 -0.3470 -0.3879 -0.4801
  119OSM   H13A12477   4.453   2.131   5.454  1.6102 -0.9357 -0.6828
  119OSM   H13B12478   4.399   2.110   5.627 -1.2177 -3.1798  0.6102
  119OSM   H13C12479   4.368   1.992   5.510 -0.7647  0.5007 -1.8075
  119OSM    C1212480   4.548   1.876   5.679 -0.7263 -0.4396 -0.8844
  119OSM   H12A12481   4.642   1.830   5.705 -0.6522  0.6262  0.9079
  119OSM   H12B12482   4.488   1.793   5.644 -1.2658 -0.5605  0.2717
  119OSM    C1112483   4.476   1.916   5.814  0.6807 -0.4138 -0.3847
  119OSM   H11A12484   4.515   2.010   5.860 -0.4868 -0.0493 -0.0841
  119OSM   H11B12485   4.490   1.829   5.881  0.6734 -1.7991 -2.1206
  119OSM      P12486   4.247   2.054   5.861 -0.2380 -0.0192  0.2498
  119OSM    O1312487   4.148   2.104   5.762  0.4623  0.1951 -0.2544
  119OSM    O1412488   4.199   2.002   5.986 -0.2699  0.3658  0.1998
  119OSM    O1112489   4.354   2.160   5.902 -0.0793 -0.2681  0.0011
  119OSM    O1212490   4.334   1.938   5.797  0.2032  0.0778  0.7050
  119OSM    C1S12491   4.328   2.270   5.979 -0.0342 -0.0868 -0.0258
  119OSM    H1S12492   4.243   2.262   6.050 -0.7029 -1.0067 -0.9058
  119OSM    H1T12493   4.294   2.354   5.915 -1.3765 -2.6346 -2.9180
  119OSM     NF12494   4.399   2.399   6.175 -0.1729  0.0340 -0.1144
  119OSM    HNF12495   4.405   2.498   6.170  0.9768  0.0379  0.8236
  119OSM    C2S12496   4.449   2.304   6.073  0.7050  0.0079 -0.2191
  119OSM    H2S12497   4.484   2.213   6.127 -0.1927 -0.9066 -1.1430
  119OSM    C3S12498   4.562   2.360   5.995  0.2584 -0.4167 -0.4016
  119OSM    H3S12499   4.532   2.442   5.927  0.5801  0.4236  0.4472
  119OSM     O312500   4.602   2.255   5.906  0.0239 -0.5723  0.2008
  119OSM    HO312501   4.524   2.202   5.888 -0.5982  0.7486 -1.1426
  119OSM    C4S12502   4.679   2.412   6.080 -0.2317  0.2605  0.7513
  119OSM    H4S12503   4.673   2.516   6.115  0.4718  0.6947 -0.3530
  119OSM    C5S12504   4.773   2.327   6.124  0.1338  0.5476  0.7212
  119OSM    H5S12505   4.762   2.224   6.087  0.3268  1.1424 -1.0727
  119OSM    C6S12506   4.894   2.353   6.215 -0.8816 -0.2452  0.2381
  119OSM    H6S12507   4.899   2.463   6.230  0.7940 -0.0777 -1.1933
  119OSM    H6T12508   4.986   2.319   6.162 -0.5011 -1.8863  1.8604
  119OSM    C7S12509   4.910   2.282   6.350 -0.0614  0.6303  0.2367
  119OSM    H7S12510   4.938   2.176   6.335 -0.4075  0.6284 -0.4189
  119OSM    H7T12511   4.806   2.282   6.390 -0.5365 -0.5295 -0.9447
  119OSM    C8S12512   5.010   2.348   6.446  0.1044 -0.6031  0.3417
  119OSM    H8S12513   5.010   2.459   6.455  1.9541 -0.4435 -1.0547
  119OSM    H8T12514   5.114   2.321   6.416  0.4792  3.1960 -2.6501
  119OSM    C9S12515   4.985   2.291   6.588  0.2665 -0.2651 -0.0599
  119OSM    H9S12516   4.974   2.181   6.579 -2.0876 -0.0893  0.2466
  119OSM    H9T12517   4.892   2.322   6.639  1.9798  0.4602  2.8328
  119OSM   C10S12518   5.099   2.316   6.686 -0.0922 -0.3368 -0.6637
  119OSM   H10S12519   5.106   2.425   6.707  1.1760 -0.6017  0.3875
  119OSM   H10T12520   5.194   2.283   6.640 -0.4724  0.2635 -1.9429
  119OSM   C11S12521   5.084   2.247   6.817 -0.2960  0.3657  0.0531
  119OSM   H11S12522   5.149   2.297   6.892 -0.7918  2.6734 -0.9492
  119OSM   H11T12523   5.116   2.142   6.798  0.3362  0.1770  1.9439
  119OSM   C12S12524   4.939   2.239   6.862  0.2055 -0.4086  0.1045
  119OSM   H12S12525   4.871   2.187   6.791  1.8964 -1.3032 -0.9452
  119OSM   H12T12526   4.909   2.346   6.868 -0.2269 -0.5579  0.6870
  119OSM   C13S12527   4.916   2.173   7.000  0.0679  0.7486  0.1985
  119OSM   H13S12528   4.824   2.224   7.037 -0.3818  0.5204 -0.5835
  119OSM   H13T12529   4.995   2.196   7.074  0.8237 -0.1654 -0.3086
  119OSM   C14S12530   4.895   2.019   6.980 -0.0309 -1.0231 -0.5009
  119OSM   H14S12531   4.994   1.987   6.939  0.1387 -0.8081 -0.2605
  119OSM   H14T12532   4.821   2.004   6.898  0.0354  0.9380 -0.9556
  119OSM   C15S12533   4.851   1.951   7.116  0.3949  0.2894 -0.3122
  119OSM   H15S12534   4.875   1.843   7.109  0.9557  0.1488  2.4732
  119OSM   H15T12535   4.742   1.971   7.118  0.4030  0.4259  1.9027
  119OSM   C16S12536   4.906   2.006   7.241 -0.3215 -0.3802 -0.0521
  119OSM   H16S12537   4.883   2.115   7.243  2.3320  0.2703 -0.2830
  119OSM   H16T12538   5.010   1.979   7.270 -0.8104 -0.0973  2.1134
  119OSM   C17S12539   4.838   1.958   7.371  0.2242  0.1317  0.6347
  119OSM   H17S12540   4.840   1.847   7.369 -0.7549  0.0846  1.8214
  119OSM   H17T12541   4.735   1.998   7.362  0.6325  0.9626 -0.7737
  119OSM   C18S12542   4.908   2.016   7.494 -0.0159  0.0392 -0.1696
  119OSM   H18S12543   5.013   1.982   7.513  0.0715 -0.3113 -1.2266
  119OSM   H18T12544   4.856   1.974   7.582  0.5869 -0.9064 -0.2441
  119OSM   H18U12545   4.913   2.127   7.493 -1.4731  0.1476  0.9750
  119OSM    C1F12546   4.326   2.351   6.280  0.2370 -0.0247 -0.0858
  119OSM     OF12547   4.309   2.230   6.294  0.9697  0.2457 -0.2639
  119OSM    C2F12548   4.258   2.455   6.363  0.1635  0.1929 -0.0174
  119OSM    H2F12549   4.150   2.459   6.339  0.5813 -0.4845 -2.2266
  119OSM    H2G12550   4.303   2.555   6.347  0.9481  0.1347  1.6135
  119OSM    C3F12551   4.281   2.424   6.508  0.4881 -0.1198  0.2080
  119OSM    H3F12552   4.247   2.516   6.560  1.7186  0.4205  0.0921
  119OSM    H3G12553   4.388   2.409   6.535  0.4580 -1.0529 -0.1549
  119OSM    C4F12554   4.192   2.322   6.581  0.7502  0.1446  0.2111
  119OSM    H4F12555   4.219   2.331   6.688  0.3007 -2.3104  0.5893
  119OSM    H4G12556   4.226   2.217   6.570  0.0938 -0.2645  1.7972
  119OSM    C5F12557   4.039   2.342   6.572 -1.2975  0.3795 -0.3279
  119OSM    H5F12558   4.002   2.334   6.467  0.2873 -1.1762 -0.8118
  119OSM    H5G12559   4.020   2.450   6.592 -1.0182 -0.0154  2.4178
  119OSM    C6F12560   3.961   2.250   6.673 -0.0083 -0.0703  0.2148
  119OSM    H6F12561   4.003   2.273   6.773 -0.3043  2.0057 -0.1002
  119OSM    H6G12562   3.985   2.142   6.660 -0.0375 -0.0404 -0.0991
  119OSM    C7F12563   3.812   2.273   6.679  0.2788 -0.6114  0.7947
  119OSM    H7F12564   3.765   2.180   6.716 -1.6804 -0.4299 -1.0441
  119OSM    H7G12565   3.773   2.282   6.575  1.6550  0.0293  0.3007
  119OSM    C8F12566   3.768   2.394   6.762  0.4993 -0.4110 -0.8955
  119OSM    H8F12567   3.841   2.475   6.740  1.6171 -0.4488  2.2853
  119OSM    H8G12568   3.794   2.374   6.868 -0.6852 -0.3162 -0.5803
  119OSM    C9F12569   3.625   2.433   6.743 -0.2580 -0.3498 -0.2915
  119OSM    H9F12570   3.604   2.492   6.653  0.2411  1.0526  0.4893
  119OSM   C10F12571   3.523   2.419   6.831 -0.2851  0.2532  0.3279
  119OSM   H10F12572   3.426   2.465   6.808 -0.8303 -1.1881 -0.3978
  119OSM   C11F12573   3.540   2.356   6.967 -0.7008 -0.0977  0.3582
  119OSM   H11F12574   3.643   2.320   6.989 -0.6232 -0.6432 -0.8190
  119OSM   H11G12575   3.470   2.270   6.972  1.1454 -1.6126  2.0774
  119OSM   C12F12576   3.498   2.456   7.071 -0.3967 -0.0270 -0.4121
  119OSM   H12F12577   3.402   2.511   7.061  0.5496  1.7020 -0.4080
  119OSM   H12G12578   3.563   2.545   7.087  0.6553 -0.8929  0.2271
  119OSM   C13F12579   3.508   2.386   7.211  0.6329 -0.6071  0.1968
  119OSM   H13F12580   3.606   2.336   7.219  1.3503  0.8011  0.5433
  119OSM   H13G12581   3.424   2.314   7.223  2.0075 -3.2098 -3.7784
  119OSM   C14F12582   3.487   2.474   7.333  0.1557 -0.3061 -0.0378
  119OSM   H14F12583   3.382   2.510   7.328 -0.2115 -1.4087 -1.0488
  119OSM   H14G12584   3.550   2.564   7.316  1.2665 -0.4868  2.6237
  119OSM   C15F12585   3.526   2.416   7.466 -0.2375 -0.4722  0.0401
  119OSM   H15F12586   3.634   2.391   7.456 -0.4041 -0.3930 -2.6036
  119OSM   H15G12587   3.461   2.329   7.487 -1.8070  0.5294 -0.5320
  119OSM   C16F12588   3.524   2.511   7.579 -0.0714  0.7684 -0.4073
  119OSM   H16F12589   3.419   2.543   7.595  0.3434  1.8351  0.3054
  119OSM   H16G12590   3.584   2.605   7.575 -0.5281  1.0141 -2.1747
  119OSM   C17F12591   3.549   2.440   7.717  0.8948  1.1225  0.2926
  119OSM   H17F12592   3.647   2.390   7.727  0.1600 -0.2263  1.1259
  119OSM   H17G12593   3.471   2.361   7.714 -0.1953  2.1743  0.2522
  119OSM   C18F12594   3.519   2.540   7.826  0.6582  0.7156  0.7254
  119OSM   H18F12595   3.476   2.490   7.915  1.7957 -1.4451  0.1234
  119OSM   H18G12596   3.460   2.629   7.794  1.6244  1.7538  1.7440
  119OSM   H18H12597   3.607   2.594   7.868  0.8979 -0.2142  1.4442
  120OSM      N12598   0.636   5.901   6.293 -0.3565  0.3964  0.3888
  120OSM    C1512599   0.763   5.916   6.207  0.1020 -0.1756  0.1489
  120OSM   H15A12600   0.780   6.018   6.175  0.9676  0.4782  2.5395
  120OSM   H15B12601   0.754   5.853   6.119 -0.2100 -0.6313  0.5027
  120OSM   H15C12602   0.849   5.872   6.254 -0.5195 -3.2047 -1.2940
  120OSM    C1412603   0.526   5.985   6.234 -0.4848  0.2942  0.0964
  120OSM   H14A12604   0.520   6.080   6.284 -2.8821  1.2392 -1.7433
  120OSM   H14B12605   0.430   5.940   6.251 -0.7262  1.3579  1.7515
  120OSM   H14C12606   0.536   6.001   6.127 -0.8918  2.3625  0.3191
  120OSM    C1312607   0.595   5.759   6.291 -0.1179  0.5035  0.0405
  120OSM   H13A12608   0.680   5.699   6.321 -0.1798  0.0233 -0.7490
  120OSM   H13B12609   0.573   5.731   6.190  0.2728  0.3327 -0.0010
  120OSM   H13C12610   0.508   5.744   6.354 -2.2803  0.2303 -2.8463
  120OSM    C1212611   0.665   5.942   6.431 -0.5492 -1.3044  0.7926
  120OSM   H12A12612   0.748   5.878   6.458  0.4725  0.4632  2.0263
  120OSM   H12B12613   0.580   5.918   6.494 -1.3400 -0.3690  0.1055
  120OSM    C1112614   0.696   6.092   6.454 -0.2062 -0.1026 -0.0867
  120OSM   H11A12615   0.715   6.103   6.563 -2.7334  1.2201  0.2838
  120OSM   H11B12616   0.603   6.148   6.431 -0.2595 -0.3919 -0.5941
  120OSM      P12617   0.833   6.282   6.342  0.0845 -0.2563 -0.6263
  120OSM    O1312618   0.983   6.297   6.333 -0.6648 -0.0948 -0.0602
  120OSM    O1412619   0.758   6.322   6.226 -0.5961 -0.5103 -0.1294
  120OSM    O1112620   0.778   6.365   6.461 -0.3814  0.3540 -0.0173
  120OSM    O1212621   0.808   6.137   6.380  0.6040 -0.3040 -0.4200
  120OSM    C1S12622   0.831   6.354   6.596 -0.1274 -0.4621 -0.1757
  120OSM    H1S12623   0.919   6.421   6.608  0.3569 -0.8106 -1.6490
  120OSM    H1T12624   0.860   6.250   6.622 -1.4290 -0.6366  0.7179
  120OSM     NF12625   0.787   6.409   6.834 -0.8295  0.4533  0.1848
  120OSM    HNF12626   0.806   6.320   6.874 -1.6597  0.5321  0.7825
  120OSM    C2S12627   0.721   6.406   6.705 -0.1802  0.5200  0.6167
  120OSM    H2S12628   0.703   6.508   6.666  3.1043  1.4314  1.1895
  120OSM    C3S12629   0.589   6.328   6.694 -0.3362  0.0509 -0.7952
  120OSM    H3S12630   0.598   6.217   6.694  0.7373  0.1095 -2.2663
  120OSM     O312631   0.520   6.356   6.568 -0.3163 -0.0838  0.5087
  120OSM    HO312632   0.584   6.372   6.499 -0.6824  0.0622  0.2014
  120OSM    C4S12633   0.504   6.371   6.810  0.1805  0.0464  0.4171
  120OSM    H4S12634   0.523   6.300   6.892 -0.2441  0.3291  0.7679
  120OSM    C5S12635   0.399   6.457   6.813  0.3462  0.9193 -1.0912
  120OSM    H5S12636   0.358   6.507   6.723 -2.8493 -0.8859 -0.8029
  120OSM    C6S12637   0.310   6.473   6.931  0.5842  0.1129 -0.2530
  120OSM    H6S12638   0.334   6.394   7.005  0.6599  0.9240  0.6054
  120OSM    H6T12639   0.204   6.447   6.910 -0.2489  0.4229  3.0542
  120OSM    C7S12640   0.323   6.606   7.007 -0.5419 -0.6327 -0.9827
  120OSM    H7S12641   0.289   6.683   6.934 -1.3850 -0.6476 -0.6174
  120OSM    H7T12642   0.429   6.614   7.038 -0.5226 -4.3413  0.4336
  120OSM    C8S12643   0.241   6.618   7.132 -0.3449 -0.1528  0.2592
  120OSM    H8S12644   0.149   6.555   7.131 -0.6712  0.3082  0.6797
  120OSM    H8T12645   0.210   6.723   7.153  1.0724  0.7291 -1.7510
  120OSM    C9S12646   0.317   6.552   7.254 -1.0198  0.7261 -0.1848
  120OSM    H9S12647   0.337   6.445   7.230  0.8816  0.6667  1.4721
  120OSM    H9T12648   0.244   6.549   7.338 -1.0672  0.8316 -0.2215
  120OSM   C10S12649   0.444   6.625   7.309 -0.1161  0.5902 -0.2174
  120OSM   H10S12650   0.412   6.730   7.323  1.2407  1.0493 -0.3954
  120OSM   H10T12651   0.525   6.613   7.234 -1.5088 -1.5851 -1.4994
  120OSM   C11S12652   0.507   6.565   7.439 -0.0098 -0.0429  0.0412
  120OSM   H11S12653   0.606   6.612   7.459  1.5011 -2.2839 -1.6549
  120OSM   H11T12654   0.541   6.460   7.437  0.1081 -0.0313  1.0167
  120OSM   C12S12655   0.418   6.556   7.555 -0.0816  0.1517  0.2315
  120OSM   H12S12656   0.472   6.497   7.633 -2.1892 -1.9129  0.2378
  120OSM   H12T12657   0.327   6.498   7.527 -0.5956  0.7117  0.7239
  120OSM   C13S12658   0.379   6.697   7.600 -0.7309 -0.5386  0.1238
  120OSM   H13S12659   0.338   6.759   7.517  0.9228 -1.9817 -1.8916
  120OSM   H13T12660   0.464   6.754   7.641 -0.5228  1.8719 -3.2279
  120OSM   C14S12661   0.277   6.693   7.712  0.3317  0.3044  0.0110
  120OSM   H14S12662   0.214   6.604   7.689 -1.5819  1.9593 -1.6062
  120OSM   H14T12663   0.209   6.780   7.701  0.2755  0.0457 -2.0181
  120OSM   C15S12664   0.345   6.682   7.851  0.2752 -0.1404 -0.3076
  120OSM   H15S12665   0.415   6.767   7.865  1.7725 -1.3806  0.0164
  120OSM   H15T12666   0.403   6.588   7.857  0.1245 -0.1683  1.1992
  120OSM   C16S12667   0.242   6.696   7.962 -0.1274 -0.2940  0.1217
  120OSM   H16S12668   0.146   6.643   7.945 -0.6325  0.3178  0.9970
  120OSM   H16T12669   0.203   6.798   7.943  0.1324  0.5500  3.5216
  120OSM   C17S12670   0.303   6.690   8.101 -1.1001 -1.1148 -0.7393
  120OSM   H17S12671   0.220   6.724   8.167  0.4625  0.0192  0.7046
  120OSM   H17T12672   0.385   6.764   8.095 -1.4212 -0.8245 -1.9666
  120OSM   C18S12673   0.352   6.553   8.152  0.5791  0.0762  1.0837
  120OSM   H18S12674   0.282   6.482   8.103  0.8350  0.9538 -0.6405
  120OSM   H18T12675   0.347   6.555   8.263  0.4455  1.0063  1.0699
  120OSM   H18U12676   0.456   6.533   8.118  0.2193 -0.7060  0.4372
  120OSM    C1F12677   0.864   6.511   6.869 -0.3445 -0.3900 -0.2081
  120OSM     OF12678   0.879   6.607   6.800  0.4709  0.0985  0.3635
  120OSM    C2F12679   0.928   6.495   7.011  0.1400  0.1214  0.1039
  120OSM    H2F12680   0.983   6.399   7.018  0.5250  0.3740  0.5923
  120OSM    H2G12681   0.853   6.511   7.092  1.2575  2.3007  0.7843
  120OSM    C3F12682   1.031   6.602   7.056 -0.0193 -0.0498 -0.1772
  120OSM    H3F12683   0.975   6.698   7.062 -0.2211 -0.2026  0.4789
  120OSM    H3G12684   1.103   6.614   6.973  2.1630 -2.5025  1.1846
  120OSM    C4F12685   1.096   6.582   7.188 -0.2590 -0.1695 -0.4329
  120OSM    H4F12686   1.160   6.492   7.196 -0.3231 -0.1218  0.6934
  120OSM    H4G12687   1.015   6.562   7.262 -0.7990  0.9735 -0.6898
  120OSM    C5F12688   1.181   6.694   7.239  0.2945  0.0990  0.7683
  120OSM    H5F12689   1.122   6.787   7.225 -1.2317 -0.9724 -0.2284
  120OSM    H5G12690   1.268   6.713   7.172 -1.1927 -1.5436 -1.8388
  120OSM    C6F12691   1.213   6.684   7.389 -0.5649 -0.2691 -0.6222
  120OSM    H6F12692   1.322   6.694   7.403 -0.8753  0.8593  1.2047
  120OSM    H6G12693   1.182   6.583   7.424  1.0889 -0.7219 -0.4225
  120OSM    C7F12694   1.156   6.795   7.473 -0.0406 -0.3521  0.0035
  120OSM    H7F12695   1.050   6.779   7.501  0.2108 -1.0285  0.6005
  120OSM    H7G12696   1.147   6.888   7.413 -1.4537 -0.6527 -0.2820
  120OSM    C8F12697   1.236   6.835   7.602  0.6738 -0.9710  0.5632
  120OSM    H8F12698   1.335   6.876   7.571 -0.4004  0.0812 -1.7551
  120OSM    H8G12699   1.240   6.745   7.668 -0.9965 -1.9670 -0.6047
  120OSM    C9F12700   1.164   6.938   7.680 -0.9424 -0.1142 -0.0684
  120OSM    H9F12701   1.058   6.914   7.699 -0.8448 -1.0333 -0.6432
  120OSM   C10F12702   1.212   7.061   7.718 -0.0319  0.2368 -0.2493
  120OSM   H10F12703   1.143   7.135   7.761  0.3999  1.2375 -1.2227
  120OSM   C11F12704   1.357   7.106   7.697  0.2678 -0.4353 -0.1017
  120OSM   H11F12705   1.362   7.186   7.620  0.7706  1.4981  1.8320
  120OSM   H11G12706   1.422   7.027   7.655 -0.7575 -1.4845  0.2356
  120OSM   C12F12707   1.435   7.148   7.827 -0.3947 -0.1531 -0.3274
  120OSM   H12F12708   1.535   7.162   7.780 -1.5779 -0.0745 -2.9871
  120OSM   H12G12709   1.450   7.065   7.899 -2.3561  0.6921  1.1540
  120OSM   C13F12710   1.376   7.263   7.900 -0.1790 -0.4286 -0.1302
  120OSM   H13F12711   1.272   7.234   7.924  0.2316 -0.8134  1.2584
  120OSM   H13G12712   1.380   7.338   7.818  2.6377 -0.7996 -0.4389
  120OSM   C14F12713   1.447   7.302   8.031 -0.3279 -0.2437  0.3907
  120OSM   H14F12714   1.444   7.209   8.093  1.6752 -0.9175 -0.4312
  120OSM   H14G12715   1.394   7.389   8.075 -0.8004  0.8787 -2.2394
  120OSM   C15F12716   1.595   7.331   8.007 -0.4050  0.6957  0.3155
  120OSM   H15F12717   1.606   7.424   7.946  1.6847  0.1587 -0.2036
  120OSM   H15G12718   1.627   7.240   7.953 -0.8774 -0.5982  2.1105
  120OSM   C16F12719   1.678   7.355   8.139  0.3212  0.8345  0.2929
  120OSM   H16F12720   1.781   7.357   8.099 -0.6092  1.1875 -2.2789
  120OSM   H16G12721   1.672   7.272   8.213  1.6936  0.7663  0.3535
  120OSM   C17F12722   1.650   7.490   8.196  0.3705  0.2615  0.2839
  120OSM   H17F12723   1.549   7.495   8.243  0.2906 -1.6663  0.3871
  120OSM   H17G12724   1.646   7.568   8.118 -0.6257  1.9854  1.9761
  120OSM   C18F12725   1.747   7.534   8.301 -0.6904  0.0512  0.0318
  120OSM   H18F12726   1.717   7.629   8.349 -0.1633 -0.2358  0.9460
  120OSM   H18G12727   1.855   7.539   8.273 -1.1799 -0.7678 -2.2314
  120OSM   H18H12728   1.735   7.454   8.377  0.5528 -0.1267  0.0638
  121OSM      N12729   2.428   2.050   5.815 -0.3602  0.4091  0.5408
  121OSM    C1512730   2.446   1.937   5.919  0.4540 -0.5880 -0.2186
  121OSM   H15A12731   2.397   1.844   5.895 -0.1782 -0.6296  1.1900
  121OSM   H15B12732   2.401   1.969   6.012  1.6390 -3.2314  1.3704
  121OSM   H15C12733   2.547   1.907   5.943  1.9207  3.2788 -0.7956
  121OSM    C1412734   2.498   2.008   5.689 -0.2347 -0.3075 -0.3151
  121OSM   H14A12735   2.491   2.084   5.612  0.3678  0.3037  0.2230
  121OSM   H14B12736   2.459   1.916   5.648  0.0067 -0.1475 -0.9237
  121OSM   H14C12737   2.600   1.975   5.699  0.3378  0.9464 -1.6500
  121OSM    C1312738   2.287   2.076   5.784  0.7938  0.2670  0.3517
  121OSM   H13A12739   2.271   2.160   5.718  0.7045  0.2930  0.4060
  121OSM   H13B12740   2.224   2.077   5.872 -0.0530  2.7188 -0.1997
  121OSM   H13C12741   2.258   1.987   5.730  1.2304  0.1788  0.2603
  121OSM    C1212742   2.497   2.176   5.864  0.0628  0.2732 -0.1405
  121OSM   H12A12743   2.496   2.248   5.784 -2.2615 -0.8167 -1.1930
  121OSM   H12B12744   2.600   2.153   5.889  1.2961 -0.3566 -4.9138
  121OSM    C1112745   2.422   2.251   5.976 -0.0531  0.6265  0.4070
  121OSM   H11A12746   2.400   2.175   6.053 -0.3974 -2.1592 -2.2177
  121OSM   H11B12747   2.325   2.282   5.932  0.6433 -0.5849 -2.2138
  121OSM      P12748   2.622   2.352   6.131  0.3569  0.0708 -0.1239
  121OSM    O1312749   2.720   2.256   6.083 -0.7618  1.0266 -0.4172
  121OSM    O1412750   2.667   2.493   6.149  0.8251 -0.5655  0.3471
  121OSM    O1112751   2.572   2.307   6.272  0.4479  0.3676 -0.9890
  121OSM    O1212752   2.500   2.360   6.027 -0.1645  0.3921 -0.3258
  121OSM    C1S12753   2.552   2.164   6.303  0.2534  0.3574  0.2891
  121OSM    H1S12754   2.627   2.092   6.263  0.9431  1.8879 -1.2679
  121OSM    H1T12755   2.454   2.129   6.262  1.3680 -1.1597 -1.2424
  121OSM     NF12756   2.529   1.995   6.480 -0.0020 -0.2897 -0.3556
  121OSM    HNF12757   2.441   1.953   6.502  0.1958  0.1513  1.3764
  121OSM    C2S12758   2.542   2.132   6.459  0.3319 -0.2425 -0.0132
  121OSM    H2S12759   2.641   2.169   6.493  1.8837 -1.3695 -2.9461
  121OSM    C3S12760   2.427   2.222   6.529 -1.0425 -0.3185  0.6727
  121OSM    H3S12761   2.331   2.185   6.486 -0.1881 -1.2166 -0.5226
  121OSM     O312762   2.446   2.366   6.500  0.7851  0.2104  0.3465
  121OSM    HO312763   2.491   2.374   6.416 -0.9376  0.6956 -0.5713
  121OSM    C4S12764   2.417   2.210   6.674 -0.0649  0.0008  0.1418
  121OSM    H4S12765   2.475   2.280   6.736 -1.3836  1.1947  0.0750
  121OSM    C5S12766   2.353   2.110   6.738 -0.1230  0.6141 -0.6030
  121OSM    H5S12767   2.292   2.038   6.680  1.2127 -1.3530  0.3363
  121OSM    C6S12768   2.325   2.097   6.885 -0.1676  0.1371 -0.1267
  121OSM    H6S12769   2.330   1.989   6.911 -1.4040 -0.1117 -0.8770
  121OSM    H6T12770   2.222   2.126   6.914 -0.7946 -1.8208 -0.2236
  121OSM    C7S12771   2.424   2.162   6.980 -0.3369  0.5957 -0.4736
  121OSM    H7S12772   2.432   2.271   6.963  0.1373  1.4570  3.9592
  121OSM    H7T12773   2.527   2.132   6.952 -0.1468 -0.8573  1.5385
  121OSM    C8S12774   2.402   2.148   7.130  0.1823 -0.5007 -0.6103
  121OSM    H8S12775   2.397   2.046   7.173 -0.0712 -0.6593 -1.0143
  121OSM    H8T12776   2.307   2.197   7.159  1.3699  0.4516  1.9715
  121OSM    C9S12777   2.510   2.217   7.211 -0.3311 -0.6562  1.1863
  121OSM    H9S12778   2.517   2.321   7.174 -1.5381 -0.6138  1.0322
  121OSM    H9T12779   2.612   2.176   7.197 -0.4735 -0.4016 -0.9622
  121OSM   C10S12780   2.475   2.209   7.363 -0.5791  0.4312 -1.0207
  121OSM   H10S12781   2.465   2.100   7.383 -0.3204  0.3592 -1.2646
  121OSM   H10T12782   2.377   2.259   7.378 -0.6656 -0.3926  1.5815
  121OSM   C11S12783   2.580   2.255   7.471 -0.5558  0.4767  0.1665
  121OSM   H11S12784   2.610   2.362   7.460 -0.1848  0.7111  2.8038
  121OSM   H11T12785   2.670   2.190   7.464  1.0197  2.2945  2.0716
  121OSM   C12S12786   2.525   2.231   7.608  0.6223 -0.2748  0.3678
  121OSM   H12S12787   2.507   2.126   7.641  0.2347  0.1401  1.5323
  121OSM   H12T12788   2.426   2.280   7.610 -0.5506 -2.2618 -2.6487
  121OSM   C13S12789   2.607   2.312   7.712 -0.1693  0.1527  0.0032
  121OSM   H13S12790   2.591   2.414   7.671  1.0902 -0.4633 -2.2106
  121OSM   H13T12791   2.717   2.296   7.714 -0.4894 -2.3638 -0.3114
  121OSM   C14S12792   2.552   2.309   7.856  0.0814 -0.5548 -0.2646
  121OSM   H14S12793   2.517   2.207   7.882  2.2747 -1.0963  0.7662
  121OSM   H14T12794   2.462   2.373   7.865  0.6642  0.3002 -0.4396
  121OSM   C15S12795   2.658   2.349   7.966  0.4758 -0.9264 -0.0218
  121OSM   H15S12796   2.600   2.391   8.051  3.5586 -1.2276  2.3773
  121OSM   H15T12797   2.715   2.435   7.925  2.5743 -1.1632  2.2072
  121OSM   C16S12798   2.741   2.231   8.001  0.1143 -0.6116 -0.1473
  121OSM   H16S12799   2.779   2.179   7.911 -2.1495 -0.5985 -1.1556
  121OSM   H16T12800   2.677   2.147   8.036  0.7708 -1.5881 -1.1952
  121OSM   C17S12801   2.841   2.268   8.115 -0.6051  0.6511  0.2507
  121OSM   H17S12802   2.895   2.353   8.069 -2.6539  0.8364 -2.0026
  121OSM   H17T12803   2.903   2.176   8.116 -1.8546 -0.2221  0.0963
  121OSM   C18S12804   2.780   2.306   8.251  0.9499  0.1468 -0.8257
  121OSM   H18S12805   2.859   2.353   8.312 -0.6605  0.1272  1.4036
  121OSM   H18T12806   2.730   2.223   8.306  0.3270  0.3727 -1.0369
  121OSM   H18U12807   2.697   2.380   8.246  0.6934 -0.1333 -0.7259
  121OSM    C1F12808   2.625   1.908   6.463  0.2832 -0.3830  0.0479
  121OSM     OF12809   2.738   1.934   6.431 -0.4375 -0.5117 -0.1468
  121OSM    C2F12810   2.587   1.761   6.484 -0.5370  0.5032 -0.5813
  121OSM    H2F12811   2.608   1.706   6.390  1.8861  0.1493  0.0859
  121OSM    H2G12812   2.478   1.765   6.507 -0.6340  0.2964 -1.0069
  121OSM    C3F12813   2.672   1.697   6.594 -0.3104 -0.0669  0.4647
  121OSM    H3F12814   2.781   1.710   6.579  0.0470 -3.3573 -0.7411
  121OSM    H3G12815   2.653   1.587   6.603 -0.2920 -0.2674 -1.5631
  121OSM    C4F12816   2.617   1.761   6.729 -0.2447  0.1677  0.2398
  121OSM    H4F12817   2.515   1.722   6.749  0.0033 -0.4929  0.2485
  121OSM    H4G12818   2.611   1.871   6.714  3.7772  0.5365  0.1410
  121OSM    C5F12819   2.708   1.720   6.842 -0.3186 -0.4729  0.1993
  121OSM    H5F12820   2.811   1.756   6.821 -0.7483  1.6588  1.4205
  121OSM    H5G12821   2.709   1.609   6.852 -1.6193 -0.4691  0.6154
  121OSM    C6F12822   2.660   1.788   6.970 -0.1095  0.7807  0.3105
  121OSM    H6F12823   2.563   1.737   6.983  0.6688 -1.3311 -1.5556
  121OSM    H6G12824   2.637   1.896   6.955 -2.2089  0.4925  1.1334
  121OSM    C7F12825   2.756   1.757   7.083  0.2041  0.2247  0.1770
  121OSM    H7F12826   2.854   1.796   7.049 -0.8420 -1.1528 -5.3254
  121OSM    H7G12827   2.763   1.647   7.099  0.9242 -0.0834 -1.8597
  121OSM    C8F12828   2.719   1.844   7.214  0.1143  0.3584 -0.0353
  121OSM    H8F12829   2.705   1.950   7.184  1.7105  0.8376  0.7941
  121OSM    H8G12830   2.810   1.845   7.277  0.1844  0.5060 -0.1394
  121OSM    C9F12831   2.594   1.812   7.287  0.3161 -0.3878 -0.1506
  121OSM    H9F12832   2.512   1.792   7.216 -0.7351  1.2667  0.5512
  121OSM   C10F12833   2.576   1.806   7.418  0.0028 -0.2553  0.1616
  121OSM   H10F12834   2.475   1.779   7.451 -0.1920  0.8687  0.5439
  121OSM   C11F12835   2.674   1.823   7.532 -0.4557 -1.2444  0.2725
  121OSM   H11F12836   2.720   1.924   7.520 -4.1656  0.6300  0.3015
  121OSM   H11G12837   2.754   1.746   7.525  0.0783 -0.6118 -1.1275
  121OSM   C12F12838   2.604   1.815   7.665  0.1384 -0.5898 -0.3751
  121OSM   H12F12839   2.563   1.715   7.691 -2.9831  0.5203 -0.5954
  121OSM   H12G12840   2.519   1.886   7.665  1.6744  1.3540  0.7866
  121OSM   C13F12841   2.702   1.850   7.780  0.4365  0.2771  0.4702
  121OSM   H13F12842   2.738   1.952   7.758 -2.1277  0.9818 -0.8588
  121OSM   H13G12843   2.786   1.777   7.789  0.6596  0.8121  4.0007
  121OSM   C14F12844   2.623   1.867   7.914  0.3227  0.3004  0.1685
  121OSM   H14F12845   2.558   1.777   7.918  0.3525  0.2586 -0.2685
  121OSM   H14G12846   2.545   1.946   7.914  0.2102  0.2982  2.7884
  121OSM   C15F12847   2.715   1.878   8.040 -0.6192 -0.0643  0.8575
  121OSM   H15F12848   2.665   1.895   8.138  1.3750 -0.4771  2.0205
  121OSM   H15G12849   2.774   1.973   8.039 -0.9733  0.1626  1.1951
  121OSM   C16F12850   2.817   1.768   8.045  0.2611  0.6049  0.6679
  121OSM   H16F12851   2.909   1.797   7.990  0.5815 -2.3059 -0.4908
  121OSM   H16G12852   2.775   1.676   8.001 -0.9485  1.5715 -0.2930
  121OSM   C17F12853   2.865   1.735   8.185 -0.0863  0.2386  0.3320
  121OSM   H17F12854   2.780   1.711   8.252 -0.5921  0.0130 -0.3756
  121OSM   H17G12855   2.901   1.832   8.226 -2.6709  1.6892 -0.6212
  121OSM   C18F12856   2.989   1.640   8.198  0.0788  0.7178  0.6018
  121OSM   H18F12857   3.029   1.635   8.301  0.6066  0.5444  0.3948
  121OSM   H18G12858   3.061   1.684   8.125 -0.0943  2.0347  1.2067
  121OSM   H18H12859   2.965   1.538   8.161  0.5385  1.0626 -0.7357
  122OSM      N12860   3.422   4.441   6.185  0.2947 -0.1625 -0.4303
  122OSM    C1512861   3.541   4.509   6.226  0.1966 -0.0714  0.1281
  122OSM   H15A12862   3.623   4.440   6.231  1.1435  1.1007  3.1437
  122OSM   H15B12863   3.529   4.546   6.326  1.4650 -0.1634  0.3267
  122OSM   H15C12864   3.571   4.592   6.163 -0.4263 -0.3964 -0.6167
  122OSM    C1412865   3.307   4.541   6.178 -0.5667 -0.1667 -0.1584
  122OSM   H14A12866   3.306   4.590   6.274 -0.4965 -1.1595  0.3555
  122OSM   H14B12867   3.211   4.493   6.166 -0.1388 -1.0173 -0.2188
  122OSM   H14C12868   3.315   4.616   6.100 -0.2235 -1.5734 -1.5298
  122OSM    C1312869   3.455   4.396   6.050 -0.1391 -0.2883  0.0237
  122OSM   H13A12870   3.544   4.335   6.039 -0.4067 -0.7584  0.4043
  122OSM   H13B12871   3.482   4.485   5.995  1.4750  0.3476  1.7370
  122OSM   H13C12872   3.366   4.350   6.011 -0.5553 -0.6755  1.3979
  122OSM    C1212873   3.393   4.320   6.281  0.5377  0.0379 -0.0888
  122OSM   H12A12874   3.309   4.270   6.236 -0.0911  0.8500  0.1665
  122OSM   H12B12875   3.365   4.355   6.379  1.2682 -1.7839  0.8229
  122OSM    C1112876   3.507   4.220   6.302 -0.9729 -1.0238  0.4066
  122OSM   H11A12877   3.510   4.171   6.402 -0.0590  0.0682  0.9351
  122OSM   H11B12878   3.604   4.273   6.305 -1.6917  0.3549  0.0905
  122OSM      P12879   3.411   4.015   6.168  0.3355  0.1746 -0.2577
  122OSM    O1312880   3.276   4.074   6.176 -0.0726  0.4697 -0.0839
  122OSM    O1412881   3.443   3.939   6.043  0.0051  0.1302  0.0013
  122OSM    O1112882   3.426   3.926   6.296 -0.6673  0.6029  0.2357
  122OSM    O1212883   3.522   4.126   6.194 -0.6144 -0.6148 -0.2135
  122OSM    C1S12884   3.540   3.842   6.314 -0.3679  0.5380  0.2814
  122OSM    H1S12885   3.635   3.898   6.304 -0.0604  0.6594  3.1036
  122OSM    H1T12886   3.527   3.762   6.237 -2.8781 -0.3652  1.5266
  122OSM     NF12887   3.655   3.694   6.459 -0.2779  0.3807 -0.5756
  122OSM    HNF12888   3.642   3.595   6.465 -1.3411  0.6000  2.2856
  122OSM    C2S12889   3.540   3.780   6.452  0.3133  0.1312  0.4796
  122OSM    H2S12890   3.551   3.864   6.523 -1.9131  1.0829 -0.2120
  122OSM    C3S12891   3.410   3.710   6.486  1.0544 -0.0764  0.9298
  122OSM    H3S12892   3.382   3.636   6.407 -1.3497  0.8701  0.8166
  122OSM     O312893   3.301   3.797   6.477  0.1609  0.1653 -0.1269
  122OSM    HO312894   3.339   3.865   6.422  0.3725 -1.1176 -1.6617
  122OSM    C4S12895   3.414   3.643   6.617 -0.6710 -0.0793 -0.4409
  122OSM    H4S12896   3.442   3.537   6.621  0.2679  0.0687 -2.1433
  122OSM    C5S12897   3.405   3.715   6.728  0.3300  0.6531 -0.9736
  122OSM    H5S12898   3.394   3.824   6.724 -0.0854  0.6155 -0.9423
  122OSM    C6S12899   3.426   3.656   6.868 -0.1822  0.8058 -0.0304
  122OSM    H6S12900   3.339   3.684   6.930 -1.4669 -0.8352 -1.0043
  122OSM    H6T12901   3.515   3.710   6.906  1.2819 -1.3076 -0.2813
  122OSM    C7S12902   3.462   3.505   6.878 -0.1417 -0.2887  0.6427
  122OSM    H7S12903   3.566   3.481   6.846 -0.8175  0.4864 -2.5004
  122OSM    H7T12904   3.394   3.445   6.813  0.0904 -1.0790  1.1045
  122OSM    C8S12905   3.433   3.440   7.018 -0.7461 -0.1742 -0.3025
  122OSM    H8S12906   3.467   3.335   7.020 -1.0347 -0.4147 -3.1540
  122OSM    H8T12907   3.323   3.450   7.025 -0.7963  0.2610 -1.4423
  122OSM    C9S12908   3.509   3.512   7.131 -0.8883  0.2527  0.1392
  122OSM    H9S12909   3.458   3.608   7.151 -2.5705 -0.4499 -0.5473
  122OSM    H9T12910   3.612   3.536   7.098 -1.1076 -1.2524 -1.8109
  122OSM   C10S12911   3.507   3.439   7.268 -0.7891  0.4824  0.3537
  122OSM   H10S12912   3.535   3.332   7.261 -0.4787  0.5412  0.6606
  122OSM   H10T12913   3.398   3.446   7.290 -1.1584 -0.5106 -0.9680
  122OSM   C11S12914   3.605   3.507   7.371  0.5341 -1.0023 -0.1711
  122OSM   H11S12915   3.605   3.617   7.355 -1.8708 -0.5738  2.0696
  122OSM   H11T12916   3.700   3.456   7.346  1.2622 -0.5057  1.4845
  122OSM   C12S12917   3.588   3.473   7.514 -0.5600  0.2474  0.5078
  122OSM   H12S12918   3.558   3.366   7.516  0.8715 -0.3588 -2.8982
  122OSM   H12T12919   3.507   3.542   7.547 -0.0309  0.1312  2.1340
  122OSM   C13S12920   3.717   3.483   7.601  0.2874 -0.1024 -0.4913
  122OSM   H13S12921   3.787   3.556   7.556 -0.1306  0.4376 -0.2735
  122OSM   H13T12922   3.765   3.384   7.586 -0.0321 -0.1785 -1.0412
  122OSM   C14S12923   3.683   3.520   7.746  0.5182 -0.3334  0.0488
  122OSM   H14S12924   3.635   3.435   7.800 -0.2426 -1.4284 -2.2348
  122OSM   H14T12925   3.601   3.595   7.741  0.5376 -0.3363 -0.3298
  122OSM   C15S12926   3.781   3.585   7.835 -0.0915  0.1193  0.1827
  122OSM   H15S12927   3.822   3.662   7.768  0.8769  0.4771  1.1545
  122OSM   H15T12928   3.851   3.510   7.878  0.2275  1.2983  1.8276
  122OSM   C16S12929   3.715   3.644   7.963  0.4544  0.3578  0.7744
  122OSM   H16S12930   3.666   3.562   8.020  0.7916  0.5365  1.3240
  122OSM   H16T12931   3.636   3.714   7.926 -0.2618 -0.3249  0.9834
  122OSM   C17S12932   3.820   3.720   8.051 -0.6327 -0.5828  0.2429
  122OSM   H17S12933   3.838   3.809   7.987  0.4651 -0.3551  0.8383
  122OSM   H17T12934   3.911   3.657   8.064 -1.0146 -1.3885 -0.8177
  122OSM   C18S12935   3.755   3.763   8.180  0.2535 -0.0864 -0.2937
  122OSM   H18S12936   3.815   3.826   8.250 -0.7065 -0.5502  1.0038
  122OSM   H18T12937   3.719   3.673   8.235 -2.1690 -0.0749 -1.7308
  122OSM   H18U12938   3.670   3.827   8.150  0.2285 -0.5445 -1.2019
  122OSM    C1F12939   3.779   3.744   6.473 -0.4665  0.2399  0.7745
  122OSM     OF12940   3.801   3.865   6.485  0.4800 -0.6427  0.5306
  122OSM    C2F12941   3.886   3.639   6.466  0.2957  0.0678  0.1225
  122OSM    H2F12942   3.906   3.618   6.359  0.2603 -3.7506  0.7503
  122OSM    H2G12943   3.856   3.538   6.501 -0.2272  1.1380  3.0996
  122OSM    C3F12944   4.011   3.684   6.538 -0.1749  0.4785 -0.0432
  122OSM    H3F12945   4.052   3.783   6.507 -0.5894  0.2473 -1.3837
  122OSM    H3G12946   4.098   3.617   6.523 -0.1738  0.4362  0.1517
  122OSM    C4F12947   3.982   3.691   6.693 -0.2908  0.6720  0.0068
  122OSM    H4F12948   3.951   3.587   6.716 -0.4997  0.3684 -1.5086
  122OSM    H4G12949   3.903   3.765   6.714  1.1041  2.0215  0.7007
  122OSM    C5F12950   4.109   3.732   6.775  0.4142  0.2334  0.4222
  122OSM    H5F12951   4.067   3.767   6.871 -0.1571  1.8157 -0.3704
  122OSM    H5G12952   4.143   3.827   6.729 -0.9063  1.1303  1.2297
  122OSM    C6F12953   4.209   3.623   6.803  0.2840  0.4617 -0.1932
  122OSM    H6F12954   4.211   3.540   6.730  1.9739  0.7915 -0.5653
  122OSM    H6G12955   4.172   3.568   6.892 -0.2224  4.0150  2.0359
  122OSM    C7F12956   4.353   3.676   6.816 -0.1606  0.2312 -0.3247
  122OSM    H7F12957   4.356   3.753   6.897 -0.5863 -0.3163  0.2154
  122OSM    H7G12958   4.375   3.733   6.723  2.6830  2.0355  1.2831
  122OSM    C8F12959   4.460   3.562   6.828 -0.4064 -0.2021  0.3759
  122OSM    H8F12960   4.452   3.503   6.735 -0.1824  0.8294 -0.3148
  122OSM    H8G12961   4.423   3.505   6.916 -2.3623 -0.5725 -0.6208
  122OSM    C9F12962   4.602   3.608   6.842  0.0184 -0.4897  0.1775
  122OSM    H9F12963   4.629   3.674   6.759 -2.9664  0.1212 -0.4426
  122OSM   C10F12964   4.681   3.585   6.949 -0.0264  0.6036  0.6140
  122OSM   H10F12965   4.785   3.623   6.953  1.2459 -2.5283  0.0552
  122OSM   C11F12966   4.657   3.509   7.071 -0.0619  0.4296 -0.7327
  122OSM   H11F12967   4.548   3.491   7.078 -0.0957  1.1741  1.8893
  122OSM   H11G12968   4.678   3.571   7.161  0.4403 -0.2172 -0.3951
  122OSM   C12F12969   4.729   3.368   7.093 -0.2093  0.0084  0.0520
  122OSM   H12F12970   4.838   3.379   7.078 -0.0314 -0.2576  1.0685
  122OSM   H12G12971   4.688   3.305   7.012  0.9220 -1.4076  0.5338
  122OSM   C13F12972   4.710   3.314   7.231  0.4191 -0.2346  0.5315
  122OSM   H13F12973   4.600   3.305   7.240  0.2203  1.9221  0.6908
  122OSM   H13G12974   4.746   3.382   7.311  1.1851  0.4947 -0.3993
  122OSM   C14F12975   4.782   3.180   7.260 -0.1057  0.3427 -0.0442
  122OSM   H14F12976   4.763   3.148   7.365  0.7410 -2.4540 -0.6495
  122OSM   H14G12977   4.893   3.187   7.252  0.1097 -2.0945 -0.0172
  122OSM   C15F12978   4.731   3.068   7.168  0.0662  0.3534  0.2844
  122OSM   H15F12979   4.769   3.091   7.066 -1.2883 -0.4050 -0.4212
  122OSM   H15G12980   4.620   3.073   7.159 -0.2705 -1.5987  2.5727
  122OSM   C16F12981   4.775   2.928   7.216 -0.4072 -0.4515 -0.3065
  122OSM   H16F12982   4.882   2.931   7.246 -1.0297  0.7753  2.0346
  122OSM   H16G12983   4.780   2.862   7.126 -0.3507 -1.6109  0.5273
  122OSM   C17F12984   4.689   2.863   7.326 -0.5750  0.3831 -0.2946
  122OSM   H17F12985   4.583   2.874   7.292 -0.1960  2.5015 -0.9558
  122OSM   H17G12986   4.704   2.914   7.423  1.1805  0.0487 -0.3593
  122OSM   C18F12987   4.721   2.720   7.335 -0.3675 -0.1593  0.3247
  122OSM   H18F12988   4.701   2.658   7.245 -1.6621  0.1228  0.4003
  122OSM   H18G12989   4.678   2.672   7.425 -0.0434 -0.9759  0.0540
  122OSM   H18H12990   4.830   2.711   7.353 -0.3039  2.1644  1.4616
  123OSM      N12991   1.473   5.808   6.325 -0.0280 -0.7752  0.1923
  123OSM    C1512992   1.573   5.701   6.328  0.2253  0.0975 -0.0730
  123OSM   H15A12993   1.550   5.626   6.254 -0.1771  1.8039 -1.7547
  123OSM   H15B12994   1.584   5.660   6.428 -2.1602 -0.0279  0.1832
  123OSM   H15C12995   1.665   5.746   6.291  0.5242 -0.5293 -0.1037
  123OSM    C1412996   1.508   5.929   6.411  0.3997  0.1244 -0.7464
  123OSM   H14A12997   1.457   5.938   6.506 -1.1872 -1.5423 -1.3630
  123OSM   H14B12998   1.487   6.019   6.356  1.8747  1.1792  0.3359
  123OSM   H14C12999   1.610   5.927   6.446 -0.8370  0.1838  3.3625
  123OSM    C1313000   1.457   5.852   6.184 -0.1033  0.8819 -0.4352
  123OSM   H13A13001   1.555   5.883   6.153  0.4144  0.3549  0.6087
  123OSM   H13B13002   1.388   5.932   6.163  0.0122  0.4133 -2.9309
  123OSM   H13C13003   1.418   5.772   6.123 -0.7934  0.4559  0.5354
  123OSM    C1213004   1.334   5.761   6.373 -0.0045 -0.7360  0.3455
  123OSM   H12A13005   1.294   5.687   6.305  1.9267 -0.7037 -0.8947
  123OSM   H12B13006   1.260   5.839   6.371 -1.4961 -2.1034 -0.0768
  123OSM    C1113007   1.321   5.681   6.502  0.8852 -0.2493 -0.6480
  123OSM   H11A13008   1.371   5.736   6.585 -1.4690  2.9470 -1.1600
  123OSM   H11B13009   1.371   5.582   6.496  0.1021 -0.8264  1.3607
  123OSM      P13010   1.133   5.655   6.677  0.5425 -0.0120  0.2039
  123OSM    O1313011   1.003   5.717   6.672  0.3113 -0.0423 -0.2680
  123OSM    O1413012   1.134   5.517   6.732  0.0444 -0.0953 -0.7430
  123OSM    O1113013   1.228   5.743   6.777  0.2759  0.1275 -0.0411
  123OSM    O1213014   1.179   5.668   6.524 -1.1030 -0.0300  0.1143
  123OSM    C1S13015   1.232   5.884   6.758 -0.3005  0.1479  0.3445
  123OSM    H1S13016   1.139   5.933   6.794 -0.2340 -0.1016  0.8661
  123OSM    H1T13017   1.257   5.912   6.653 -1.8110  0.0988 -0.0453
  123OSM     NF13018   1.352   6.088   6.828 -0.1380  0.3962 -0.3083
  123OSM    HNF13019   1.429   6.125   6.778  1.3078  0.1998  1.6763
  123OSM    C2S13020   1.352   5.947   6.834  0.3662  0.1586  0.1223
  123OSM    H2S13021   1.333   5.916   6.939  1.5764  0.4171  0.4432
  123OSM    C3S13022   1.497   5.890   6.800  0.2888 -0.5305  0.0711
  123OSM    H3S13023   1.530   5.921   6.699 -1.3044 -0.6178 -0.5158
  123OSM     O313024   1.506   5.749   6.802  0.0321 -0.2517  0.0330
  123OSM    HO313025   1.416   5.720   6.817 -0.2811  0.2259 -0.8493
  123OSM    C4S13026   1.596   5.930   6.909  0.3987 -0.1155 -0.3307
  123OSM    H4S13027   1.565   5.897   7.010  0.1530 -0.9023 -0.6583
  123OSM    C5S13028   1.710   5.998   6.900  0.1604  0.2540  0.8605
  123OSM    H5S13029   1.749   6.009   6.797 -2.2176  0.7726 -0.0456
  123OSM    C6S13030   1.812   6.023   7.004 -0.5550 -0.2211  0.1757
  123OSM    H6S13031   1.830   6.133   6.999  0.6329 -0.4539 -2.4515
  123OSM    H6T13032   1.905   5.968   6.980 -0.1793  1.2868 -2.2154
  123OSM    C7S13033   1.781   5.982   7.149  0.2114  0.5177  0.2720
  123OSM    H7S13034   1.762   5.873   7.147  1.0561  0.3747 -0.7564
  123OSM    H7T13035   1.682   6.019   7.184 -2.1012 -4.7086  0.1546
  123OSM    C8S13036   1.893   6.014   7.246 -0.0038  0.5635 -0.1196
  123OSM    H8S13037   1.925   6.120   7.241  3.3787 -0.3175  0.2192
  123OSM    H8T13038   1.989   5.960   7.230 -0.7323 -0.1041 -2.5921
  123OSM    C9S13039   1.869   5.991   7.394  0.4241  0.0798 -0.5010
  123OSM    H9S13040   1.844   5.885   7.413 -1.0786  0.5633  0.4673
  123OSM    H9T13041   1.776   6.048   7.417  0.0695  0.6253 -2.9962
  123OSM   C10S13042   1.979   6.017   7.495 -0.5465 -1.3027  0.0851
  123OSM   H10S13043   1.992   6.127   7.485  0.9388 -1.4771 -0.1620
  123OSM   H10T13044   2.078   5.975   7.469  0.4617 -0.5953  2.5022
  123OSM   C11S13045   1.941   5.976   7.636 -0.1529 -0.4682 -0.0089
  123OSM   H11S13046   2.003   6.018   7.719 -1.7107 -2.1294  2.1379
  123OSM   H11T13047   1.950   5.866   7.646 -0.4210 -0.4007  1.1872
  123OSM   C12S13048   1.792   6.008   7.672 -0.0503 -0.6410  0.3190
  123OSM   H12S13049   1.726   5.959   7.597 -0.2700 -1.7138  1.1862
  123OSM   H12T13050   1.773   6.117   7.660  3.2162  0.0175  0.0732
  123OSM   C13S13051   1.759   5.960   7.817  0.3698 -0.2232  0.0601
  123OSM   H13S13052   1.810   5.863   7.836 -3.0445 -2.5151 -1.2989
  123OSM   H13T13053   1.650   5.939   7.829  0.7605 -2.0302  0.9140
  123OSM   C14S13054   1.784   6.062   7.928 -0.3267 -0.7308 -0.2557
  123OSM   H14S13055   1.719   6.152   7.927  0.3067 -0.1651  2.1818
  123OSM   H14T13056   1.884   6.109   7.921  0.0485 -1.0840  2.0670
  123OSM   C15S13057   1.773   6.003   8.073 -0.7069  0.9411  0.0073
  123OSM   H15S13058   1.843   5.918   8.087  0.5273  1.2362 -3.3140
  123OSM   H15T13059   1.675   5.954   8.094 -0.4290 -0.1418 -1.0717
  123OSM   C16S13060   1.802   6.115   8.168 -0.0648 -0.4112  0.0517
  123OSM   H16S13061   1.732   6.193   8.135 -0.9545 -1.6845 -1.1851
  123OSM   H16T13062   1.907   6.151   8.164 -1.4745  4.7188  1.4512
  123OSM   C17S13063   1.775   6.094   8.323  0.0898  0.5254  0.8920
  123OSM   H17S13064   1.828   6.006   8.366 -1.2796 -0.4315  0.7078
  123OSM   H17T13065   1.667   6.068   8.323  0.2574 -0.2477  0.0908
  123OSM   C18S13066   1.789   6.208   8.417  0.0185 -0.2143 -0.0174
  123OSM   H18S13067   1.727   6.193   8.508 -0.7165 -0.7965 -0.6003
  123OSM   H18T13068   1.752   6.306   8.380  1.1579  0.9073  1.7083
  123OSM   H18U13069   1.898   6.219   8.432  0.1880 -0.2119 -1.1635
  123OSM    C1F13070   1.256   6.164   6.881  0.4323  0.3511  0.0116
  123OSM     OF13071   1.167   6.117   6.951  0.6158 -0.3100 -0.4167
  123OSM    C2F13072   1.266   6.309   6.855 -0.4386  0.5762  0.0722
  123OSM    H2F13073   1.167   6.347   6.822  0.4026  2.4221 -0.4380
  123OSM    H2G13074   1.339   6.337   6.776 -0.9391  1.1838 -0.1785
  123OSM    C3F13075   1.314   6.380   6.985 -0.2780  0.0343 -0.4315
  123OSM    H3F13076   1.242   6.353   7.066  1.7326 -0.9202  1.1181
  123OSM    H3G13077   1.307   6.489   6.966  0.9982 -0.1030 -1.8908
  123OSM    C4F13078   1.456   6.339   7.029 -0.1708 -0.1802  0.1641
  123OSM    H4F13079   1.522   6.325   6.941  0.6374  2.1195  0.3535
  123OSM    H4G13080   1.449   6.233   7.063 -1.3741 -0.5183 -1.0509
  123OSM    C5F13081   1.515   6.427   7.142 -0.1082  0.1822  0.2864
  123OSM    H5F13082   1.485   6.533   7.123  2.3365  1.4584  2.8232
  123OSM    H5G13083   1.625   6.419   7.145 -0.1404 -1.3526 -1.3037
  123OSM    C6F13084   1.458   6.403   7.289 -0.6587 -0.0399  0.6732
  123OSM    H6F13085   1.350   6.388   7.269 -0.1938 -0.8422 -1.5077
  123OSM    H6G13086   1.480   6.495   7.347  0.6967 -0.0390  0.1986
  123OSM    C7F13087   1.521   6.279   7.355  0.0535 -0.1236  0.4141
  123OSM    H7F13088   1.629   6.299   7.342  0.4852 -1.3848  1.8407
  123OSM    H7G13089   1.495   6.182   7.306  3.0954 -1.5843  1.4900
  123OSM    C8F13090   1.497   6.254   7.509  0.5376 -0.0451 -0.4236
  123OSM    H8F13091   1.550   6.333   7.566 -0.5016  0.4430 -0.1132
  123OSM    H8G13092   1.546   6.156   7.526  2.2668  0.4123 -2.2927
  123OSM    C9F13093   1.353   6.247   7.543 -0.2924  0.4059 -0.0420
  123OSM    H9F13094   1.306   6.165   7.486  0.5462  0.5901 -1.0312
  123OSM   C10F13095   1.285   6.336   7.615  0.1223 -0.1721 -0.3878
  123OSM   H10F13096   1.181   6.309   7.639 -0.4223  1.8744 -0.2161
  123OSM   C11F13097   1.331   6.455   7.683  0.1766 -1.0142  0.1045
  123OSM   H11F13098   1.256   6.537   7.674  1.7914  0.4401 -0.7827
  123OSM   H11G13099   1.426   6.483   7.632  0.2287  0.1312  0.8006
  123OSM   C12F13100   1.357   6.422   7.827  0.3211 -0.5257 -0.6531
  123OSM   H12F13101   1.448   6.363   7.850  0.5782 -0.3155 -1.1180
  123OSM   H12G13102   1.277   6.358   7.870 -1.4695  0.4645 -2.3266
  123OSM   C13F13103   1.365   6.547   7.912 -0.6286  0.2960  0.3118
  123OSM   H13F13104   1.286   6.623   7.893 -0.2882  0.9679  1.4718
  123OSM   H13G13105   1.463   6.596   7.897  0.0723  0.0558  3.4269
  123OSM   C14F13106   1.350   6.514   8.060  0.0177 -0.0793 -1.3072
  123OSM   H14F13107   1.383   6.603   8.117 -0.5233 -1.0234  0.5586
  123OSM   H14G13108   1.423   6.435   8.086  2.4442  2.5267  0.3151
  123OSM   C15F13109   1.204   6.495   8.099 -0.5509 -0.4140 -0.1964
  123OSM   H15F13110   1.161   6.402   8.054 -1.5918 -0.4427  0.8105
  123OSM   H15G13111   1.139   6.578   8.063  1.9636  1.5183 -0.5137
  123OSM   C16F13112   1.191   6.477   8.250  0.6243  0.0101  0.0708
  123OSM   H16F13113   1.218   6.574   8.296  0.6009  0.3838 -0.6781
  123OSM   H16G13114   1.263   6.405   8.294  1.7026  1.6492  1.0943
  123OSM   C17F13115   1.048   6.422   8.290 -0.2385 -0.0656 -0.3090
  123OSM   H17F13116   1.031   6.317   8.257 -2.8922  0.3464 -0.4240
  123OSM   H17G13117   0.980   6.481   8.225  0.0170 -0.3867 -0.8748
  123OSM   C18F13118   1.027   6.444   8.445 -0.1978 -0.3292  0.6741
  123OSM   H18F13119   1.017   6.552   8.467  1.1626  0.0390 -0.4020
  123OSM   H18G13120   1.125   6.400   8.474  0.2936 -0.0907 -0.5421
  123OSM   H18H13121   0.944   6.385   8.489  0.9807  0.2022  3.9127
  124OSM      N13122   6.599   0.101   6.183 -0.2388  0.5183 -0.6254
  124OSM    C1513123   6.517   0.112   6.056 -0.8815  0.2733  0.1861
  124OSM   H15A13124   6.464   0.206   6.048  1.4297  1.5225 -1.5512
  124OSM   H15B13125   6.455   0.024   6.051  1.2843 -1.3118 -0.1981
  124OSM   H15C13126   6.577   0.112   5.966  0.0152  0.0246  0.7640
  124OSM    C1413127   6.676  -0.024   6.180  0.9889  0.2232 -0.1663
  124OSM   H14A13128   6.610  -0.109   6.188 -0.6469  1.3499 -0.9897
  124OSM   H14B13129   6.752  -0.024   6.257  0.2983  0.2664  0.5249
  124OSM   H14C13130   6.738  -0.043   6.094 -1.6942  1.2026 -2.4776
  124OSM    C1313131   6.693   0.223   6.191 -0.0682 -0.9031 -0.3955
  124OSM   H13A13132   6.633   0.313   6.192 -1.0774 -1.5655  0.1243
  124OSM   H13B13133   6.762   0.226   6.107  1.9426  0.3549  1.1982
  124OSM   H13C13134   6.758   0.224   6.277  0.1438  0.1534 -0.5576
  124OSM    C1213135   6.515   0.109   6.305  0.1805  0.2862 -0.0585
  124OSM   H12A13136   6.578   0.103   6.393  0.1373 -0.6298 -0.0807
  124OSM   H12B13137   6.468   0.012   6.312  1.4327 -0.3388  0.0173
  124OSM    C1113138   6.412   0.221   6.333  0.1079 -0.1448  1.0761
  124OSM   H11A13139   6.470   0.315   6.343 -1.6059  1.4931 -2.5777
  124OSM   H11B13140   6.366   0.204   6.433  2.6183 -2.3414  1.9883
  124OSM      P13141   6.255   0.378   6.196 -0.2928 -0.1289 -0.0373
  124OSM    O1313142   6.354   0.456   6.122 -0.7517  0.1942 -0.5318
  124OSM    O1413143   6.120   0.360   6.128 -0.1323 -0.9307 -0.3404
  124OSM    O1113144   6.238   0.443   6.329  0.3049 -0.0607 -0.5815
  124OSM    O1213145   6.315   0.239   6.231 -0.0937  0.0960  0.1136
  124OSM    C1S13146   6.120   0.444   6.411 -0.2811  0.3270  0.2793
  124OSM    H1S13147   6.039   0.384   6.365  0.5149 -0.6094  0.0744
  124OSM    H1T13148   6.092   0.552   6.415  0.9536  0.7312 -0.9878
  124OSM     NF13149   6.019   0.378   6.622  0.1797  0.1314 -0.6842
  124OSM    HNF13150   6.020   0.450   6.691 -4.3363 -0.0966 -0.1416
  124OSM    C2S13151   6.149   0.383   6.554  0.2736  0.0149 -0.1839
  124OSM    H2S13152   6.185   0.279   6.535 -0.7662 -0.7011  1.5061
  124OSM    C3S13153   6.252   0.470   6.625 -0.3600  0.3321 -0.0484
  124OSM    H3S13154   6.197   0.566   6.638  0.3426  0.6168  0.9318
  124OSM     O313155   6.370   0.496   6.552 -0.2413 -0.8070 -0.2307
  124OSM    HO313156   6.334   0.489   6.463  1.3132 -0.7780 -0.8853
  124OSM    C4S13157   6.282   0.410   6.756 -0.5040  0.5364 -0.0074
  124OSM    H4S13158   6.228   0.465   6.834 -1.1269  0.6822 -0.5254
  124OSM    C5S13159   6.377   0.319   6.792  0.2053  0.1243 -1.2277
  124OSM    H5S13160   6.441   0.273   6.716  0.8156 -0.5053 -0.3568
  124OSM    C6S13161   6.401   0.263   6.929  0.4617  0.1457 -0.2451
  124OSM    H6S13162   6.398   0.354   6.993 -0.4343  0.8541 -1.2749
  124OSM    H6T13163   6.488   0.194   6.940  1.4417  1.1355 -1.5450
  124OSM    C7S13164   6.279   0.174   6.974  0.1129  0.2035 -0.0709
  124OSM    H7S13165   6.290   0.084   6.909  0.6636  0.0897  0.1729
  124OSM    H7T13166   6.184   0.227   6.954 -1.1709 -2.2455 -0.8523
  124OSM    C8S13167   6.286   0.134   7.125  0.5945 -0.6858 -0.4745
  124OSM    H8S13168   6.381   0.082   7.147 -0.3507 -2.5498 -0.5992
  124OSM    H8T13169   6.207   0.057   7.143  0.2668 -0.6879 -1.8169
  124OSM    C9S13170   6.255   0.253   7.227  0.3602 -0.3037  0.4447
  124OSM    H9S13171   6.170   0.313   7.189 -0.4819 -1.0025  1.1826
  124OSM    H9T13172   6.347   0.313   7.240  0.2769 -0.2222  0.6665
  124OSM   C10S13173   6.216   0.197   7.366 -0.3955 -0.1805 -0.0174
  124OSM   H10S13174   6.294   0.118   7.377  1.5312  1.5505 -0.5137
  124OSM   H10T13175   6.117   0.148   7.364 -0.6575  0.3444 -2.1685
  124OSM   C11S13176   6.253   0.288   7.484  0.2049 -0.3196  0.2517
  124OSM   H11S13177   6.166   0.355   7.498  0.4321 -0.1094  0.7023
  124OSM   H11T13178   6.349   0.344   7.477  0.1237  0.1006  2.0194
  124OSM   C12S13179   6.243   0.213   7.621  0.5341  0.0002  0.1753
  124OSM   H12S13180   6.321   0.134   7.626  2.2414  1.5495 -0.6762
  124OSM   H12T13181   6.141   0.169   7.620  0.6208 -0.2125  0.6942
  124OSM   C13S13182   6.274   0.307   7.737  0.3761 -0.3660  0.5199
  124OSM   H13S13183   6.204   0.394   7.739 -0.5779 -1.1313  0.7394
  124OSM   H13T13184   6.375   0.353   7.737  0.4556 -0.5210  1.6121
  124OSM   C14S13185   6.240   0.247   7.877 -0.5471  0.2943 -0.0139
  124OSM   H14S13186   6.303   0.156   7.890 -1.7778 -0.4888  0.6378
  124OSM   H14T13187   6.133   0.216   7.881 -0.4521 -0.2354 -1.0435
  124OSM   C15S13188   6.277   0.336   7.996  0.4494 -0.8419 -0.0683
  124OSM   H15S13189   6.235   0.436   7.970  0.1068 -1.6480 -2.9755
  124OSM   H15T13190   6.386   0.346   8.012  0.8072 -0.1049 -2.6113
  124OSM   C16S13191   6.221   0.281   8.129 -0.6154 -0.9181 -0.7656
  124OSM   H16S13192   6.260   0.177   8.142 -0.8087 -0.8279  0.8555
  124OSM   H16T13193   6.111   0.280   8.140 -0.4779 -0.6959  0.9369
  124OSM   C17S13194   6.276   0.361   8.253  0.6256  0.0625 -0.1075
  124OSM   H17S13195   6.245   0.461   8.216 -2.3458  0.0819  2.0454
  124OSM   H17T13196   6.387   0.358   8.257  0.5880  0.0356  1.6862
  124OSM   C18S13197   6.205   0.337   8.385 -0.2391 -0.3748 -0.5259
  124OSM   H18S13198   6.226   0.233   8.417 -1.9767 -0.3904  0.7126
  124OSM   H18T13199   6.094   0.341   8.378 -0.3685  0.6737  1.2676
  124OSM   H18U13200   6.236   0.403   8.469  1.1370 -0.5412 -0.8780
  124OSM    C1F13201   5.914   0.306   6.592 -0.3097  0.2577  0.3707
  124OSM     OF13202   5.914   0.199   6.534 -0.3568  0.2353 -0.3584
  124OSM    C2F13203   5.777   0.367   6.633  0.4933  0.0210 -0.1697
  124OSM    H2F13204   5.727   0.415   6.546 -1.7345  3.7073  2.8029
  124OSM    H2G13205   5.797   0.445   6.710  1.3177 -0.1743 -0.1779
  124OSM    C3F13206   5.678   0.262   6.692 -0.4051  0.1685 -0.8701
  124OSM    H3F13207   5.716   0.231   6.792  1.0560  1.1211 -1.1084
  124OSM    H3G13208   5.679   0.173   6.625  3.0416 -1.2055  0.7582
  124OSM    C4F13209   5.542   0.321   6.704  0.3051 -0.3153  0.2977
  124OSM    H4F13210   5.470   0.238   6.715 -0.9234  0.8025  0.9385
  124OSM    H4G13211   5.513   0.362   6.605  0.1065  0.5424  0.7011
  124OSM    C5F13212   5.518   0.415   6.824  0.3945  0.3416  0.0810
  124OSM    H5F13213   5.419   0.464   6.806 -0.3034 -1.4825 -1.4109
  124OSM    H5G13214   5.591   0.498   6.820 -0.7770  1.4061 -0.1566
  124OSM    C6F13215   5.508   0.354   6.966 -0.2463  0.7740  0.1612
  124OSM    H6F13216   5.607   0.317   7.001  0.0555  1.7344  0.3399
  124OSM    H6G13217   5.452   0.259   6.954 -0.7064  1.0442  0.1665
  124OSM    C7F13218   5.438   0.439   7.078 -0.4583  0.0014 -0.1099
  124OSM    H7F13219   5.339   0.475   7.042 -0.2470 -1.1914 -2.0105
  124OSM    H7G13220   5.496   0.534   7.078 -2.0069  1.0735  2.9707
  124OSM    C8F13221   5.438   0.372   7.219 -0.4676 -0.7884 -0.3099
  124OSM    H8F13222   5.406   0.458   7.281  0.1740 -1.8700  1.5882
  124OSM    H8G13223   5.542   0.340   7.241 -1.1239 -0.6197  3.5929
  124OSM    C9F13224   5.350   0.258   7.232 -0.1470 -0.4482  0.3240
  124OSM    H9F13225   5.336   0.207   7.136 -2.9064 -0.5365  0.6907
  124OSM   C10F13226   5.300   0.214   7.348  0.7527 -0.6549  0.4922
  124OSM   H10F13227   5.224   0.134   7.348 -1.1306  1.0073 -1.5564
  124OSM   C11F13228   5.307   0.273   7.486  0.4987 -0.0334  0.3584
  124OSM   H11F13229   5.239   0.359   7.500 -2.6184 -2.2215 -0.3060
  124OSM   H11G13230   5.407   0.320   7.499 -0.0840  2.4730 -2.7905
  124OSM   C12F13231   5.282   0.171   7.599 -0.1630 -0.1479 -0.8219
  124OSM   H12F13232   5.365   0.098   7.591  0.5012  0.3453  1.0111
  124OSM   H12G13233   5.185   0.119   7.588  0.0363 -0.8047  0.4026
  124OSM   C13F13234   5.285   0.234   7.737  0.1685 -0.2153  0.3688
  124OSM   H13F13235   5.383   0.286   7.743  0.4750 -0.6658 -0.6246
  124OSM   H13G13236   5.285   0.156   7.817 -0.8333  1.0999  1.7097
  124OSM   C14F13237   5.180   0.340   7.771 -0.0596  0.4052  0.4107
  124OSM   H14F13238   5.081   0.323   7.724 -0.7494 -0.4012  2.0601
  124OSM   H14G13239   5.216   0.441   7.745  0.9046  1.9744  6.2615
  124OSM   C15F13240   5.161   0.334   7.922  0.4908  0.4186  0.5690
  124OSM   H15F13241   5.120   0.235   7.951 -0.2681  0.3700 -0.6003
  124OSM   H15G13242   5.086   0.413   7.944 -1.8246 -1.2526 -0.8889
  124OSM   C16F13243   5.293   0.353   8.001  0.4648  0.2801  0.7869
  124OSM   H16F13244   5.340   0.449   7.969  0.7780 -0.5967 -1.5886
  124OSM   H16G13245   5.374   0.281   7.976  1.1256  0.8099  1.3375
  124OSM   C17F13246   5.271   0.340   8.152 -0.1757 -0.1774  0.3137
  124OSM   H17F13247   5.220   0.243   8.173 -1.0508  0.1609 -0.1907
  124OSM   H17G13248   5.200   0.420   8.183 -1.1212 -0.4812 -0.9592
  124OSM   C18F13249   5.398   0.352   8.234 -0.0057  0.5910 -0.1191
  124OSM   H18F13250   5.372   0.341   8.341 -0.2268 -0.3376 -0.2613
  124OSM   H18G13251   5.465   0.441   8.223  2.6158 -1.1422  0.9107
  124OSM   H18H13252   5.472   0.270   8.219 -0.0484  0.0033  2.4655
  125OSM      N13253   4.974   4.537   6.078 -0.4048 -0.3580  0.0441
  125OSM    C1513254   4.838   4.510   6.021  0.1185 -0.5108  0.2306
  125OSM   H15A13255   4.763   4.571   6.070  0.3776  0.5825 -0.6694
  125OSM   H15B13256   4.829   4.403   6.028  2.3926 -0.8405 -1.0367
  125OSM   H15C13257   4.841   4.519   5.913 -0.9551  0.5072  0.2614
  125OSM    C1413258   4.985   4.459   6.203  0.6398 -0.1914  0.8194
  125OSM   H14A13259   4.987   4.353   6.185  1.0791 -0.1873  0.8359
  125OSM   H14B13260   4.900   4.480   6.267  0.2838  1.0832 -0.0342
  125OSM   H14C13261   5.067   4.498   6.263  0.2983  1.1616  0.4442
  125OSM    C1313262   5.072   4.488   5.971  0.5220 -0.6700 -0.5628
  125OSM   H13A13263   5.043   4.536   5.879 -2.1890  0.4219  0.7605
  125OSM   H13B13264   5.078   4.382   5.950  2.5083 -0.0697 -3.6144
  125OSM   H13C13265   5.177   4.509   5.985  0.5323 -0.1325 -1.3678
  125OSM    C1213266   4.997   4.684   6.097  0.5125 -0.1125  0.3099
  125OSM   H12A13267   4.918   4.733   6.153  0.8414 -0.4302  1.0623
  125OSM   H12B13268   4.996   4.734   6.001 -0.4000 -0.3225  0.2029
  125OSM    C1113269   5.128   4.732   6.164 -0.1582  0.9600 -0.0586
  125OSM   H11A13270   5.207   4.665   6.124 -0.1599  0.3509  0.9288
  125OSM   H11B13271   5.107   4.711   6.271 -4.3769  0.6569 -0.7474
  125OSM      P13272   5.312   4.917   6.111 -0.0274 -0.2828 -0.3314
  125OSM    O1313273   5.381   4.829   6.014  0.3747 -0.0186 -0.0863
  125OSM    O1413274   5.322   5.062   6.078  0.2208  0.6356 -0.3075
  125OSM    O1113275   5.368   4.888   6.254  0.0693 -0.0179  0.2901
  125OSM    O1213276   5.157   4.867   6.126  0.3207  0.1122  0.0373
  125OSM    C1S13277   5.327   4.961   6.373 -0.2295 -0.4512  0.1920
  125OSM    H1S13278   5.217   4.947   6.380 -0.1548 -1.0124  0.3551
  125OSM    H1T13279   5.352   5.068   6.364 -0.5993 -0.3410  0.4460
  125OSM     NF13280   5.294   4.961   6.620  0.1066 -0.4592 -0.2555
  125OSM    HNF13281   5.324   5.030   6.686 -1.2216  2.2650 -2.2959
  125OSM    C2S13282   5.376   4.904   6.511 -0.0232  0.1475  0.6713
  125OSM    H2S13283   5.360   4.795   6.497  1.2536  0.1088 -0.8217
  125OSM    C3S13284   5.529   4.927   6.522 -0.3000  0.6311 -0.1353
  125OSM    H3S13285   5.554   5.035   6.526  1.2913  0.2700  0.1158
  125OSM     O313286   5.607   4.869   6.415 -0.2135 -0.2176 -0.2887
  125OSM    HO313287   5.535   4.834   6.363 -1.5608  3.0768 -0.9218
  125OSM    C4S13288   5.576   4.857   6.649  0.0222 -0.2253  0.0525
  125OSM    H4S13289   5.545   4.751   6.654 -2.9611  0.5732  0.4720
  125OSM    C5S13290   5.640   4.904   6.758 -0.4953  0.7441  0.3066
  125OSM    H5S13291   5.657   5.012   6.772 -2.7534  1.1824  0.0244
  125OSM    C6S13292   5.672   4.819   6.875 -0.0768 -0.5491 -0.0165
  125OSM    H6S13293   5.773   4.851   6.906 -0.6637  0.0993  1.3082
  125OSM    H6T13294   5.673   4.710   6.850  0.1529 -0.9575  1.6353
  125OSM    C7S13295   5.556   4.832   6.981 -0.2756 -0.5450 -0.1458
  125OSM    H7S13296   5.461   4.794   6.938 -0.3397 -1.5800  0.8530
  125OSM    H7T13297   5.545   4.936   7.017  1.9065  0.0735 -1.1044
  125OSM    C8S13298   5.580   4.735   7.099 -0.2630  0.6912 -0.6162
  125OSM    H8S13299   5.681   4.745   7.144  0.3635  0.3830 -1.8983
  125OSM    H8T13300   5.561   4.628   7.074 -0.5805  0.4555  0.5803
  125OSM    C9S13301   5.464   4.754   7.208 -0.6439 -0.3213 -0.1896
  125OSM    H9S13302   5.405   4.663   7.232  1.5936 -1.3225  1.9980
  125OSM    H9T13303   5.393   4.827   7.164 -1.3066 -1.2578 -0.7285
  125OSM   C10S13304   5.505   4.818   7.341 -0.0774 -0.0247 -0.1007
  125OSM   H10S13305   5.414   4.864   7.384  0.3726 -0.6217  1.5969
  125OSM   H10T13306   5.569   4.905   7.315 -0.2162 -0.9603 -4.2779
  125OSM   C11S13307   5.585   4.722   7.427 -0.4479 -0.6387 -0.2654
  125OSM   H11S13308   5.655   4.657   7.371  2.2749  1.6930  0.2161
  125OSM   H11T13309   5.516   4.650   7.476  0.5797 -0.2734  1.8135
  125OSM   C12S13310   5.670   4.786   7.539 -0.0179 -0.3367 -0.3363
  125OSM   H12S13311   5.608   4.820   7.625  1.3120 -1.0158  0.9354
  125OSM   H12T13312   5.728   4.872   7.498  1.8688 -0.6868  1.4310
  125OSM   C13S13313   5.772   4.695   7.614  0.0712  0.3291 -0.9500
  125OSM   H13S13314   5.853   4.647   7.554  1.9118 -0.8824  2.2443
  125OSM   H13T13315   5.726   4.613   7.673  3.0852 -1.8856 -1.4258
  125OSM   C14S13316   5.851   4.770   7.720 -0.0189 -0.2632  0.9508
  125OSM   H14S13317   5.887   4.868   7.681 -0.1887 -1.0863 -1.3958
  125OSM   H14T13318   5.942   4.713   7.748 -0.4579 -1.5774 -0.1954
  125OSM   C15S13319   5.772   4.803   7.845 -0.1814 -0.0075  0.1069
  125OSM   H15S13320   5.734   4.705   7.882  0.6089 -0.6237 -0.6708
  125OSM   H15T13321   5.679   4.860   7.824 -0.2701 -0.8010 -1.8435
  125OSM   C16S13322   5.856   4.891   7.936  0.0641  0.1076  1.2738
  125OSM   H16S13323   5.884   4.978   7.872 -1.4725 -0.7765 -0.7123
  125OSM   H16T13324   5.941   4.840   7.986  1.4381  1.3762  0.3004
  125OSM   C17S13325   5.772   4.935   8.059 -1.2850 -0.4113  0.2616
  125OSM   H17S13326   5.768   4.849   8.129  1.7731 -0.6503  0.2863
  125OSM   H17T13327   5.669   4.963   8.027 -2.3013 -2.0557  1.9381
  125OSM   C18S13328   5.851   5.048   8.126 -0.6382 -0.0019 -0.3288
  125OSM   H18S13329   5.798   5.100   8.208  3.5117  0.2501  2.4944
  125OSM   H18T13330   5.908   5.121   8.065  0.6641  0.8614  1.8155
  125OSM   H18U13331   5.939   4.990   8.161 -0.1957  0.2722 -0.9672
  125OSM    C1F13332   5.167   4.919   6.634 -0.2838  0.2459 -0.2920
  125OSM     OF13333   5.118   4.842   6.555 -0.4397  0.5991 -0.3647
  125OSM    C2F13334   5.086   4.983   6.747  0.3778  0.2705  0.5698
  125OSM    H2F13335   4.990   5.026   6.712  1.0031  1.4496  0.2542
  125OSM    H2G13336   5.145   5.070   6.784  2.9152 -1.2411  0.2674
  125OSM    C3F13337   5.047   4.887   6.864 -0.5172 -0.1905 -0.0542
  125OSM    H3F13338   5.127   4.814   6.891 -0.4753  0.4004  1.5819
  125OSM    H3G13339   4.950   4.840   6.840 -2.4075  2.0283  2.5378
  125OSM    C4F13340   5.019   4.976   6.985 -0.1538 -0.3770  0.4220
  125OSM    H4F13341   4.922   5.029   6.980  0.5537  1.1073  1.5397
  125OSM    H4G13342   5.092   5.060   6.992 -2.1635  1.6635 -1.3994
  125OSM    C5F13343   5.026   4.903   7.117  0.2045 -1.0002  0.2632
  125OSM    H5F13344   5.110   4.830   7.120  0.7992 -0.3040  1.3880
  125OSM    H5G13345   4.934   4.845   7.139 -0.5343  0.1932  0.3947
  125OSM    C6F13346   5.039   5.003   7.234 -0.0557  0.8013  0.4304
  125OSM    H6F13347   4.984   5.095   7.207 -1.2077  0.1243  0.4382
  125OSM    H6G13348   5.146   5.021   7.260  1.2314  1.8569 -4.4643
  125OSM    C7F13349   4.969   4.951   7.365 -0.4738  0.0606 -0.2316
  125OSM    H7F13350   5.012   4.853   7.395 -3.8302 -1.9290 -1.4322
  125OSM    H7G13351   4.865   4.939   7.328 -0.3594 -0.5661 -0.3616
  125OSM    C8F13352   4.975   5.054   7.471 -0.8159  0.2464 -0.2861
  125OSM    H8F13353   4.928   5.140   7.419  2.3746  0.6635 -2.7595
  125OSM    H8G13354   5.076   5.098   7.482 -0.7784  0.2177 -0.5054
  125OSM    C9F13355   4.898   5.013   7.595  0.3854 -0.2229 -0.1061
  125OSM    H9F13356   4.789   5.001   7.595  0.4653 -1.2049  1.2973
  125OSM   C10F13357   4.966   4.996   7.708 -0.3040  0.6375 -0.4898
  125OSM   H10F13358   4.910   4.952   7.791 -0.5343 -0.4528 -1.2041
  125OSM   C11F13359   5.113   4.999   7.732 -0.4585  0.3525  0.1963
  125OSM   H11F13360   5.164   4.937   7.655 -1.6582 -1.0581  0.4965
  125OSM   H11G13361   5.136   4.944   7.825  2.1894 -1.9973 -1.6444
  125OSM   C12F13362   5.181   5.138   7.738 -0.4683 -0.1630 -0.2755
  125OSM   H12F13363   5.142   5.188   7.829 -0.4608 -1.1280  0.2698
  125OSM   H12G13364   5.166   5.202   7.649 -1.2379  0.9623  0.6382
  125OSM   C13F13365   5.337   5.128   7.754 -0.5996  0.2343  0.0904
  125OSM   H13F13366   5.389   5.076   7.670 -0.8904  1.3720 -0.8297
  125OSM   H13G13367   5.360   5.077   7.849 -2.7119  0.4109  0.7486
  125OSM   C14F13368   5.395   5.273   7.752  0.2468 -0.1735  0.3102
  125OSM   H14F13369   5.402   5.305   7.646 -0.3575 -0.0060  0.3216
  125OSM   H14G13370   5.499   5.261   7.790  0.8369 -0.0563 -1.2124
  125OSM   C15F13371   5.322   5.385   7.833  0.3753  0.4809 -0.6213
  125OSM   H15F13372   5.299   5.334   7.929  0.6897  1.8862  0.2406
  125OSM   H15G13373   5.229   5.402   7.775 -0.4380 -2.3463 -0.3002
  125OSM   C16F13374   5.409   5.510   7.861  0.3693 -0.2864 -0.3629
  125OSM   H16F13375   5.444   5.564   7.771  0.7627 -0.3134 -0.2258
  125OSM   H16G13376   5.500   5.464   7.905  2.2625  2.5285 -1.0975
  125OSM   C17F13377   5.330   5.599   7.962 -0.3809 -0.0220  0.4320
  125OSM   H17F13378   5.311   5.540   8.054 -0.3115  1.3298  1.3254
  125OSM   H17G13379   5.232   5.625   7.916 -0.9854 -1.6070  0.7332
  125OSM   C18F13380   5.397   5.733   8.000 -0.0973  0.6268 -0.3244
  125OSM   H18F13381   5.322   5.786   8.062  0.5754  0.9937  0.1845
  125OSM   H18G13382   5.422   5.790   7.908  0.3491 -1.6313 -1.6751
  125OSM   H18H13383   5.490   5.720   8.059  1.8744  0.4621 -3.2471
  126OSM      N13384   2.055   4.250   6.071 -0.7206 -0.7759  0.0017
  126OSM    C1513385   1.979   4.150   5.989  0.0879 -0.1101 -0.3381
  126OSM   H15A13386   2.018   4.145   5.889 -1.0109  2.2093 -0.9479
  126OSM   H15B13387   1.877   4.181   5.976 -0.2271 -0.6190  0.7914
  126OSM   H15C13388   1.982   4.055   6.040 -1.2550 -0.7341 -1.3879
  126OSM    C1413389   2.197   4.201   6.080  0.0091  0.2473 -0.1815
  126OSM   H14A13390   2.254   4.269   6.142  0.4767  1.3183 -1.7214
  126OSM   H14B13391   2.249   4.190   5.985  0.4980  0.6575  0.0341
  126OSM   H14C13392   2.196   4.097   6.111  0.4355 -0.0755 -1.1951
  126OSM    C1313393   2.058   4.383   5.999 -0.6956  0.5112 -0.8716
  126OSM   H13A13394   2.092   4.373   5.897  0.1822 -0.1280 -0.5299
  126OSM   H13B13395   2.126   4.446   6.053 -0.1345 -1.2208  0.5449
  126OSM   H13C13396   1.961   4.429   6.011  0.6868  3.4800 -0.3059
  126OSM    C1213397   1.985   4.262   6.211  0.1384  0.0896  0.0740
  126OSM   H12A13398   1.884   4.296   6.192  0.0828  0.4305  0.9134
  126OSM   H12B13399   2.023   4.347   6.266 -1.6051  1.1218 -0.2386
  126OSM    C1113400   2.001   4.146   6.312  1.1764  1.0826 -0.2121
  126OSM   H11A13401   1.949   4.170   6.407 -0.2383  2.3517 -1.2538
  126OSM   H11B13402   2.111   4.136   6.323  1.2478 -1.5618 -2.4210
  126OSM      P13403   1.991   3.880   6.305  0.2628 -0.2764 -0.1655
  126OSM    O1313404   1.883   3.782   6.279  0.1330 -0.2555  0.2829
  126OSM    O1413405   2.123   3.854   6.234  0.1868  0.1394  0.9411
  126OSM    O1113406   2.017   3.899   6.462 -0.0983  0.0652 -0.0959
  126OSM    O1213407   1.943   4.028   6.260  0.2924  0.0419  0.3727
  126OSM    C1S13408   1.906   3.903   6.547 -0.0498  0.2072 -0.2528
  126OSM    H1S13409   1.826   3.833   6.513 -0.1808  0.6990 -1.0001
  126OSM    H1T13410   1.863   4.006   6.547  0.0306  0.2408 -0.2850
  126OSM     NF13411   1.830   3.860   6.778  0.1613 -0.2856 -0.5076
  126OSM    HNF13412   1.795   3.944   6.818  0.0891 -1.0786  1.1580
  126OSM    C2S13413   1.945   3.870   6.695  0.1409  0.4210  0.5870
  126OSM    H2S13414   2.002   3.775   6.703 -0.5417  0.1214  2.5214
  126OSM    C3S13415   2.046   3.977   6.749  0.0609 -0.2203 -0.7214
  126OSM    H3S13416   2.006   4.079   6.733 -1.5890 -1.2885 -4.5808
  126OSM     O313417   2.166   3.973   6.671  0.5376 -0.1565 -0.1025
  126OSM    HO313418   2.136   3.924   6.593  2.3854 -0.0044 -0.9639
  126OSM    C4S13419   2.074   3.952   6.897  0.3159  0.5163  0.3167
  126OSM    H4S13420   1.987   3.993   6.951  0.2910  2.0680 -0.8462
  126OSM    C5S13421   2.178   3.891   6.958  0.0591  0.1917 -0.7749
  126OSM    H5S13422   2.266   3.858   6.901  0.0287 -0.9025 -0.2097
  126OSM    C6S13423   2.176   3.861   7.107 -0.7577 -0.4493  0.0058
  126OSM    H6S13424   2.264   3.913   7.151 -0.9702 -1.1798  1.3670
  126OSM    H6T13425   2.188   3.752   7.127  1.9615 -0.4097 -0.9100
  126OSM    C7S13426   2.055   3.912   7.184 -1.0134 -0.6432 -0.3056
  126OSM    H7S13427   1.965   3.852   7.156 -1.1178 -2.3765  3.2448
  126OSM    H7T13428   2.042   4.020   7.163 -0.3908 -0.5313 -0.1377
  126OSM    C8S13429   2.074   3.882   7.332  0.4838  0.5184 -0.4117
  126OSM    H8S13430   2.174   3.909   7.373 -0.3872  0.0829  2.2353
  126OSM    H8T13431   2.068   3.772   7.348  1.1275  0.3581 -1.2293
  126OSM    C9S13432   1.976   3.953   7.422  0.0390  0.4856  0.0338
  126OSM    H9S13433   1.876   3.920   7.386  1.1019 -1.2853 -1.4819
  126OSM    H9T13434   1.981   4.064   7.421  2.3944  0.4380 -1.5346
  126OSM   C10S13435   1.972   3.898   7.564  0.0293  0.2742  0.1421
  126OSM   H10S13436   2.077   3.902   7.600 -0.7837  1.7615  2.6464
  126OSM   H10T13437   1.923   3.799   7.573 -1.1840  0.9514  1.4534
  126OSM   C11S13438   1.880   3.999   7.645  0.2913 -0.6201 -0.2076
  126OSM   H11S13439   1.783   3.980   7.596 -0.3068  1.3881  0.1134
  126OSM   H11T13440   1.908   4.106   7.635 -0.8739  0.0500  2.6693
  126OSM   C12S13441   1.895   3.962   7.794 -0.1105 -0.0801  0.2657
  126OSM   H12S13442   2.003   3.952   7.819 -0.1277 -0.9661  0.0432
  126OSM   H12T13443   1.850   3.864   7.822  0.6936 -0.6565 -0.4036
  126OSM   C13S13444   1.838   4.076   7.887 -0.3038  0.5299  0.5228
  126OSM   H13S13445   1.734   4.113   7.870  0.0567  2.0571  1.4614
  126OSM   H13T13446   1.895   4.169   7.869  0.0084  0.3791  0.7242
  126OSM   C14S13447   1.859   4.038   8.030  0.1040  0.0229 -0.1766
  126OSM   H14S13448   1.966   4.011   8.045  0.2229  0.3056 -0.5250
  126OSM   H14T13449   1.797   3.947   8.048 -1.2276  0.4359 -2.3670
  126OSM   C15S13450   1.827   4.155   8.124  0.4126  0.2994  0.6502
  126OSM   H15S13451   1.718   4.178   8.123 -0.0712 -1.8457 -0.6434
  126OSM   H15T13452   1.877   4.251   8.098 -1.4005  1.0437 -0.2771
  126OSM   C16S13453   1.851   4.118   8.272  0.2512  0.3214  0.3042
  126OSM   H16S13454   1.954   4.078   8.288 -0.6480 -1.6361  1.5553
  126OSM   H16T13455   1.775   4.048   8.313 -0.4119 -0.1944 -1.6917
  126OSM   C17S13456   1.833   4.237   8.372 -0.5453  0.4644 -0.0083
  126OSM   H17S13457   1.731   4.276   8.352 -1.1181  1.0774  3.4562
  126OSM   H17T13458   1.908   4.318   8.360 -1.2479  1.2560  0.8053
  126OSM   C18S13459   1.842   4.174   8.515 -0.0755  0.7396  0.4122
  126OSM   H18S13460   1.849   4.251   8.595 -0.7557  0.4563  0.7524
  126OSM   H18T13461   1.933   4.112   8.521  0.3502  1.4850  3.3075
  126OSM   H18U13462   1.748   4.117   8.530  0.2563  0.4392  1.3612
  126OSM    C1F13463   1.753   3.755   6.787  0.3453 -0.2154  0.1028
  126OSM     OF13464   1.769   3.649   6.727 -0.2056  0.2347 -0.8321
  126OSM    C2F13465   1.634   3.779   6.885  0.5382  0.0929 -0.1790
  126OSM    H2F13466   1.560   3.845   6.836 -0.0684 -0.3203  0.1570
  126OSM    H2G13467   1.675   3.839   6.969 -1.8040 -0.2632  1.2937
  126OSM    C3F13468   1.571   3.653   6.938  0.6275  0.4879 -0.1058
  126OSM    H3F13469   1.645   3.570   6.947  0.4349  0.3603  0.3106
  126OSM    H3G13470   1.492   3.626   6.866 -2.5237 -0.1067  3.2921
  126OSM    C4F13471   1.500   3.670   7.073  0.6269 -0.2097 -0.0188
  126OSM    H4F13472   1.449   3.573   7.094 -0.1813 -0.5412 -2.9799
  126OSM    H4G13473   1.415   3.740   7.057 -0.1601 -1.0129  0.5396
  126OSM    C5F13474   1.602   3.707   7.190  0.7938 -0.2125 -0.3193
  126OSM    H5F13475   1.645   3.807   7.167  1.8797 -1.1294 -2.5952
  126OSM    H5G13476   1.688   3.637   7.183 -0.2763 -1.6000  0.0356
  126OSM    C6F13477   1.535   3.711   7.327 -0.2634 -0.0965 -0.3221
  126OSM    H6F13478   1.496   3.609   7.346  0.2681 -0.6486 -2.0168
  126OSM    H6G13479   1.442   3.771   7.323 -0.3110 -0.0606  0.8457
  126OSM    C7F13480   1.612   3.771   7.445 -0.1843  0.6149  0.3591
  126OSM    H7F13481   1.635   3.880   7.443  0.4936  0.4685 -1.5515
  126OSM    H7G13482   1.709   3.717   7.446 -1.1241 -1.1759  2.1561
  126OSM    C8F13483   1.556   3.727   7.575  0.4207 -0.0763 -0.4284
  126OSM    H8F13484   1.632   3.726   7.657  1.5342  1.6458 -1.3767
  126OSM    H8G13485   1.521   3.622   7.565  1.7279 -0.3597 -2.5879
  126OSM    C9F13486   1.433   3.816   7.607  0.0960 -0.8479  0.4824
  126OSM    H9F13487   1.361   3.824   7.524 -1.3849 -0.6348  1.7476
  126OSM   C10F13488   1.409   3.880   7.724  0.0727  0.0032  0.0543
  126OSM   H10F13489   1.312   3.929   7.732 -1.3113 -2.1789 -1.9613
  126OSM   C11F13490   1.495   3.892   7.849  0.3062  0.4251 -0.2882
  126OSM   H11F13491   1.531   3.997   7.845  0.9385  0.1979 -0.7274
  126OSM   H11G13492   1.584   3.825   7.854 -0.3670 -0.3904  1.8027
  126OSM   C12F13493   1.408   3.873   7.982  0.3970 -0.4450 -0.3569
  126OSM   H12F13494   1.408   3.765   8.009  0.1965 -1.0592 -2.5518
  126OSM   H12G13495   1.304   3.908   7.967 -0.1002 -2.5695 -2.4654
  126OSM   C13F13496   1.465   3.960   8.098  0.4335  0.4608  0.2556
  126OSM   H13F13497   1.450   4.069   8.085  1.1824  0.4912 -0.4168
  126OSM   H13G13498   1.573   3.942   8.117  0.0952 -3.0880 -0.4736
  126OSM   C14F13499   1.394   3.899   8.226  0.2244 -0.4218 -0.2811
  126OSM   H14F13500   1.421   3.792   8.243 -2.0643 -0.9055  0.7743
  126OSM   H14G13501   1.285   3.919   8.227  0.7565  3.0594  0.3447
  126OSM   C15F13502   1.444   3.973   8.350  0.4381  0.3556  0.0995
  126OSM   H15F13503   1.408   4.077   8.359 -1.1973 -0.2568  1.1493
  126OSM   H15G13504   1.552   3.974   8.326 -0.1994 -0.7105 -3.3863
  126OSM   C16F13505   1.409   3.893   8.473  0.6249  0.4020 -0.2668
  126OSM   H16F13506   1.449   3.792   8.448  0.7092 -0.2863  2.3573
  126OSM   H16G13507   1.300   3.878   8.488  0.5493  2.4942  1.7966
  126OSM   C17F13508   1.471   3.964   8.596  0.5932  0.7237  0.0023
  126OSM   H17F13509   1.412   4.056   8.615 -0.2186  0.3132 -0.4846
  126OSM   H17G13510   1.576   3.991   8.573  0.5510  0.0450 -1.0783
  126OSM   C18F13511   1.467   3.881   8.725 -0.5928  0.8631  0.0340
  126OSM   H18F13512   1.365   3.864   8.764  0.1005 -2.6085  0.5981
  126OSM   H18G13513   1.538   3.920   8.802 -0.8157 -1.5033  1.5261
  126OSM   H18H13514   1.499   3.776   8.710 -1.4303  0.2652  2.1824
  127OSM      N13515   1.178   5.257   6.406  0.5924 -0.2080  0.4913
  127OSM    C1513516   1.122   5.380   6.332 -0.4104 -0.1795  0.3629
  127OSM   H15A13517   1.014   5.372   6.323 -0.5446  1.3113  0.3401
  127OSM   H15B13518   1.165   5.388   6.233  2.6662 -0.5024  1.5599
  127OSM   H15C13519   1.139   5.469   6.390  1.4682  0.0166 -0.4303
  127OSM    C1413520   1.325   5.256   6.399  0.2467  0.3281  0.9027
  127OSM   H14A13521   1.366   5.246   6.300 -1.3927 -1.1091  0.3041
  127OSM   H14B13522   1.358   5.171   6.457 -0.3447 -1.6113 -1.4231
  127OSM   H14C13523   1.361   5.351   6.436  1.2790 -0.4881  2.0704
  127OSM    C1313524   1.133   5.273   6.545 -0.2288  0.2019  0.3748
  127OSM   H13A13525   1.025   5.272   6.550 -0.7999 -2.9005 -4.8667
  127OSM   H13B13526   1.176   5.362   6.588 -0.3533  0.0624  0.7947
  127OSM   H13C13527   1.169   5.195   6.609  0.1364 -0.1416 -0.2440
  127OSM    C1213528   1.125   5.131   6.351 -0.1365 -0.3063 -0.1202
  127OSM   H12A13529   1.180   5.055   6.403  0.5667  1.9621  2.6881
  127OSM   H12B13530   1.164   5.125   6.250  0.1695  0.2845 -0.0415
  127OSM    C1113531   0.973   5.101   6.364  0.4144  0.4572  0.5534
  127OSM   H11A13532   0.940   5.082   6.468  0.5341  0.3486  0.5723
  127OSM   H11B13533   0.948   5.006   6.312  2.1233  0.7441 -0.9013
  127OSM      P13534   0.733   5.190   6.292 -0.1111 -0.2186 -0.1821
  127OSM    O1313535   0.673   5.314   6.243  0.2144 -0.5530  0.2566
  127OSM    O1413536   0.705   5.059   6.231 -0.2287  0.2267 -0.5092
  127OSM    O1113537   0.668   5.184   6.443 -0.2093  0.6610  0.3977
  127OSM    O1213538   0.892   5.207   6.308  0.0720  0.4371  0.0982
  127OSM    C1S13539   0.698   5.276   6.548 -1.2404 -0.8650  0.6786
  127OSM    H1S13540   0.650   5.376   6.540  1.8035  0.6243 -0.6964
  127OSM    H1T13541   0.804   5.308   6.544 -1.3475 -0.6021 -0.4328
  127OSM     NF13542   0.715   5.298   6.787  0.3562  0.1288 -0.0920
  127OSM    HNF13543   0.807   5.282   6.820 -0.1870  0.1617  1.5350
  127OSM    C2S13544   0.672   5.207   6.687 -0.0755 -0.5961 -0.9191
  127OSM    H2S13545   0.563   5.192   6.697  0.1619 -1.7361  0.1969
  127OSM    C3S13546   0.737   5.070   6.705  0.4263  0.2844 -0.2652
  127OSM    H3S13547   0.847   5.078   6.695  0.3684  1.5522 -0.0586
  127OSM     O313548   0.696   4.975   6.601  0.2688 -0.1087 -0.0732
  127OSM    HO313549   0.671   5.035   6.530 -0.2177  0.5685  0.6527
  127OSM    C4S13550   0.707   5.001   6.839  0.1009 -0.3634  0.3571
  127OSM    H4S13551   0.792   4.948   6.885 -0.8741 -1.8609  0.5118
  127OSM    C5S13552   0.583   4.983   6.899 -0.1142 -0.0813  0.3771
  127OSM    H5S13553   0.498   5.029   6.846 -0.3954 -0.8578  0.1510
  127OSM    C6S13554   0.563   4.903   7.028 -0.4281  0.8918 -0.3375
  127OSM    H6S13555   0.661   4.875   7.073  0.0363  0.3982 -1.5975
  127OSM    H6T13556   0.520   4.804   6.998 -3.1334  1.2186  2.0988
  127OSM    C7S13557   0.474   4.971   7.132  0.2230 -0.4885  0.2294
  127OSM    H7S13558   0.432   4.911   7.215  0.2263 -1.0246 -0.1469
  127OSM    H7T13559   0.382   5.010   7.083  1.5465 -0.0213 -2.0417
  127OSM    C8S13560   0.549   5.083   7.206 -0.0441 -0.8633  0.2603
  127OSM    H8S13561   0.584   5.156   7.130 -0.5360 -1.5963 -0.6986
  127OSM    H8T13562   0.640   5.027   7.237  0.5944  1.2021  2.4091
  127OSM    C9S13563   0.482   5.149   7.327  0.0024  0.4077  0.1232
  127OSM    H9S13564   0.431   5.064   7.377  0.5640 -0.9797 -1.6041
  127OSM    H9T13565   0.405   5.219   7.290  0.6632  0.7813 -0.5730
  127OSM   C10S13566   0.587   5.207   7.422  0.5156 -0.4028  0.3386
  127OSM   H10S13567   0.652   5.284   7.375  1.2655 -1.1915  0.0663
  127OSM   H10T13568   0.655   5.126   7.456 -0.0228 -0.8902  0.2775
  127OSM   C11S13569   0.522   5.270   7.544 -0.1403  0.0056 -0.1008
  127OSM   H11S13570   0.445   5.202   7.586  1.0167 -0.1542  1.8836
  127OSM   H11T13571   0.462   5.358   7.512 -0.9707 -0.0903  1.1140
  127OSM   C12S13572   0.627   5.299   7.647 -0.6193  0.8652 -0.9498
  127OSM   H12S13573   0.694   5.379   7.610  0.1238  0.6401 -0.1533
  127OSM   H12T13574   0.685   5.207   7.672  0.0766  2.1806  3.0832
  127OSM   C13S13575   0.570   5.324   7.784  0.1157 -0.5721  0.3331
  127OSM   H13S13576   0.642   5.330   7.869 -0.0901 -1.9013  0.6268
  127OSM   H13T13577   0.504   5.237   7.803  2.3074 -2.9508 -1.9352
  127OSM   C14S13578   0.482   5.454   7.777  0.2350 -0.3006 -0.8126
  127OSM   H14S13579   0.394   5.431   7.714 -0.6787 -0.8387  0.5999
  127OSM   H14T13580   0.536   5.541   7.733  0.6917 -0.9066 -1.4672
  127OSM   C15S13581   0.433   5.482   7.918 -0.4621  0.0424 -0.1747
  127OSM   H15S13582   0.526   5.500   7.975  0.6213 -0.9557 -1.5436
  127OSM   H15T13583   0.373   5.396   7.955  1.6420 -2.6571 -2.5341
  127OSM   C16S13584   0.356   5.619   7.928 -0.5135 -0.0278 -0.4074
  127OSM   H16S13585   0.268   5.606   7.861 -1.4713 -2.9043  1.2356
  127OSM   H16T13586   0.420   5.704   7.897 -0.0851 -1.0405 -2.4970
  127OSM   C17S13587   0.297   5.638   8.068 -0.4198 -0.3253  0.4606
  127OSM   H17S13588   0.257   5.544   8.111 -0.4761 -0.7386 -0.4706
  127OSM   H17T13589   0.221   5.717   8.051  0.4510 -0.0670 -3.0812
  127OSM   C18S13590   0.404   5.699   8.156  0.2088 -0.6609 -0.0087
  127OSM   H18S13591   0.449   5.791   8.113 -0.7477 -0.4090 -0.4776
  127OSM   H18T13592   0.481   5.622   8.180  1.7236  1.5092  2.7677
  127OSM   H18U13593   0.361   5.729   8.254  0.3628 -0.0349 -0.1337
  127OSM    C1F13594   0.650   5.411   6.816  0.2922 -0.3890  0.0972
  127OSM     OF13595   0.548   5.435   6.759  0.5283  0.9586  0.4423
  127OSM    C2F13596   0.707   5.510   6.922 -0.3105 -0.2657 -0.0568
  127OSM    H2F13597   0.637   5.596   6.920 -0.4654 -0.3743  0.4264
  127OSM    H2G13598   0.804   5.533   6.873  1.1086 -3.2133  1.0854
  127OSM    C3F13599   0.747   5.448   7.063 -0.0328 -0.2048  0.1893
  127OSM    H3F13600   0.819   5.364   7.052  0.6401  0.3719  0.1388
  127OSM    H3G13601   0.658   5.408   7.117 -1.8004  1.6091 -1.2046
  127OSM    C4F13602   0.807   5.554   7.154  0.0044  0.7859 -0.4964
  127OSM    H4F13603   0.839   5.507   7.249 -0.5828  1.3610 -0.0103
  127OSM    H4G13604   0.734   5.632   7.185 -1.3921  0.0016 -1.7216
  127OSM    C5F13605   0.941   5.616   7.106 -0.2067 -0.4431  0.6805
  127OSM    H5F13606   0.917   5.675   7.016 -1.5603 -0.5207  0.9771
  127OSM    H5G13607   1.028   5.553   7.075  0.8121  1.8372 -1.4670
  127OSM    C6F13608   0.993   5.725   7.198  0.4225  0.6143  0.0926
  127OSM    H6F13609   1.028   5.687   7.297  0.0602  0.3543  0.1201
  127OSM    H6G13610   0.914   5.801   7.211 -1.2648 -1.2723  1.4784
  127OSM    C7F13611   1.104   5.800   7.136  0.2145  0.1465 -0.5235
  127OSM    H7F13612   1.058   5.863   7.057  0.3972 -0.2293 -0.9329
  127OSM    H7G13613   1.178   5.739   7.081 -1.7259  1.4214 -4.9370
  127OSM    C8F13614   1.178   5.890   7.241 -0.3337 -0.7313 -0.1672
  127OSM    H8F13615   1.097   5.927   7.308 -1.6594  1.1265 -2.6394
  127OSM    H8G13616   1.228   5.981   7.204 -2.0185  0.3581  0.1177
  127OSM    C9F13617   1.277   5.821   7.328 -0.2441 -0.1254 -0.2482
  127OSM    H9F13618   1.364   5.774   7.279  1.8089  1.7261  1.4031
  127OSM   C10F13619   1.259   5.800   7.462  0.8848  0.0570  0.6922
  127OSM   H10F13620   1.346   5.761   7.518  0.8774  1.1495  1.5005
  127OSM   C11F13621   1.150   5.845   7.558 -0.5627  0.1017  0.0891
  127OSM   H11F13622   1.066   5.776   7.536  0.4608 -0.4970 -2.2733
  127OSM   H11G13623   1.119   5.952   7.552  0.5765  0.4469  0.0051
  127OSM   C12F13624   1.178   5.824   7.712 -0.8807 -0.2220 -0.2434
  127OSM   H12F13625   1.193   5.717   7.737 -0.6917 -0.0577  0.3662
  127OSM   H12G13626   1.087   5.854   7.769 -0.6259 -1.7163  0.9951
  127OSM   C13F13627   1.289   5.912   7.757  0.8083 -0.0109  0.4409
  127OSM   H13F13628   1.266   6.010   7.710  0.2177 -0.3180  0.0779
  127OSM   H13G13629   1.390   5.882   7.720  0.4887 -0.1250 -0.3465
  127OSM   C14F13630   1.297   5.947   7.905  0.1057 -0.2074  0.2192
  127OSM   H14F13631   1.323   5.859   7.968 -3.6895 -3.3707 -2.1820
  127OSM   H14G13632   1.192   5.971   7.931 -0.3503 -3.4985  1.9006
  127OSM   C15F13633   1.384   6.067   7.934  0.0170  0.2353  0.4555
  127OSM   H15F13634   1.333   6.149   7.878 -0.5408  0.6882  1.5935
  127OSM   H15G13635   1.489   6.063   7.897  0.2142  0.4596  0.9820
  127OSM   C16F13636   1.379   6.107   8.083 -0.3730  0.2425  0.3500
  127OSM   H16F13637   1.429   6.206   8.084  0.8743 -0.3448 -0.5006
  127OSM   H16G13638   1.453   6.050   8.145 -0.0378  0.2547 -0.0354
  127OSM   C17F13639   1.248   6.112   8.152  0.0423  0.3744  0.0736
  127OSM   H17F13640   1.168   6.126   8.075 -0.7487 -1.2775  0.5596
  127OSM   H17G13641   1.237   6.212   8.200 -2.9410  0.9437 -1.5440
  127OSM   C18F13642   1.220   6.001   8.251 -0.8143  0.1102 -0.6551
  127OSM   H18F13643   1.195   5.910   8.192  0.0147 -1.4172  1.2412
  127OSM   H18G13644   1.134   6.016   8.318  0.3878 -1.6279  1.3846
  127OSM   H18H13645   1.303   5.973   8.320 -0.1644  2.5367 -0.3430
  128OSM      N13646   5.000   6.812   5.968  0.4193  0.4203 -0.4156
  128OSM    C1513647   5.143   6.841   5.998 -0.5136  0.0470 -0.2950
  128OSM   H15A13648   5.186   6.913   5.930 -0.1056 -0.0718 -0.1667
  128OSM   H15B13649   5.208   6.755   6.006  2.2993  2.0163 -0.5171
  128OSM   H15C13650   5.161   6.880   6.097  2.3468 -1.1665 -0.2531
  128OSM    C1413651   5.007   6.787   5.822  0.2263 -0.0624 -0.6094
  128OSM   H14A13652   5.030   6.874   5.764  0.1641  0.8425  0.6849
  128OSM   H14B13653   4.910   6.752   5.792 -0.2071 -0.9710  1.6330
  128OSM   H14C13654   5.071   6.706   5.788  0.3054  0.2472 -1.2132
  128OSM    C1313655   4.956   6.687   6.036 -0.0018 -0.2586  0.8095
  128OSM   H13A13656   4.856   6.659   6.006  0.5389 -0.1271 -1.2038
  128OSM   H13B13657   4.951   6.712   6.141  0.3200  4.0859 -0.0317
  128OSM   H13C13658   5.027   6.607   6.024  1.4247  0.9836  0.6399
  128OSM    C1213659   4.916   6.933   6.010 -0.1466 -0.5079 -0.5951
  128OSM   H12A13660   4.812   6.916   5.987 -0.9562  2.4532  0.3207
  128OSM   H12B13661   4.956   7.014   5.949 -1.1417  0.4985  0.0471
  128OSM    C1113662   4.916   6.988   6.164 -0.2249 -0.4012  0.6431
  128OSM   H11A13663   4.872   6.907   6.225  0.7609 -0.4907  1.2708
  128OSM   H11B13664   4.844   7.072   6.171 -2.9880 -2.6090  0.0610
  128OSM      P13665   5.114   7.156   6.178  0.2393  0.6722  0.2160
  128OSM    O1313666   5.259   7.139   6.180 -0.1408 -0.3607 -0.0057
  128OSM    O1413667   5.047   7.209   6.059  0.2219 -0.3653  1.1833
  128OSM    O1113668   5.081   7.248   6.300 -0.4176  0.9577 -0.1539
  128OSM    O1213669   5.044   7.019   6.221 -0.8025  0.5828  0.8522
  128OSM    C1S13670   5.047   7.220   6.438  0.6185  0.3148  0.2284
  128OSM    H1S13671   5.029   7.112   6.456 -2.5501  0.7108 -0.0045
  128OSM    H1T13672   4.948   7.266   6.456  0.6411  0.4862 -0.0839
  128OSM     NF13673   5.139   7.236   6.666  0.2589 -0.0671  0.2619
  128OSM    HNF13674   5.083   7.295   6.724 -0.9939 -1.0958  0.1288
  128OSM    C2S13675   5.155   7.273   6.529  0.6353 -0.0071  0.5950
  128OSM    H2S13676   5.248   7.227   6.491  0.9437  1.6291 -0.7455
  128OSM    C3S13677   5.172   7.427   6.499 -0.2212 -0.2637 -0.2699
  128OSM    H3S13678   5.088   7.490   6.535  0.7209  1.7684 -1.4526
  128OSM     O313679   5.198   7.466   6.369  0.0268  0.7829 -0.2359
  128OSM    HO313680   5.190   7.381   6.326 -1.6530  0.5599  0.4728
  128OSM    C4S13681   5.295   7.472   6.581  0.1034 -0.1862  0.3285
  128OSM    H4S13682   5.389   7.426   6.550  0.5371  0.5683  0.4917
  128OSM    C5S13683   5.291   7.572   6.670 -0.5479  0.2113  0.0598
  128OSM    H5S13684   5.199   7.627   6.692 -0.2425  0.7243  0.0735
  128OSM    C6S13685   5.409   7.627   6.747 -0.3054  0.0461  0.1943
  128OSM    H6S13686   5.435   7.730   6.713  2.5658 -0.7495 -0.2710
  128OSM    H6T13687   5.504   7.570   6.743 -0.0634  0.4810 -0.4376
  128OSM    C7S13688   5.375   7.642   6.894  0.0813  0.4211 -0.3605
  128OSM    H7S13689   5.463   7.681   6.951  0.9325 -1.8831  0.0363
  128OSM    H7T13690   5.351   7.542   6.936 -1.9223  1.4219  1.0399
  128OSM    C8S13691   5.253   7.729   6.932  0.6639 -0.3522  0.5998
  128OSM    H8S13692   5.166   7.669   6.899 -0.2980  0.0965  2.1984
  128OSM    H8T13693   5.248   7.824   6.877  0.7293 -1.6515 -1.7619
  128OSM    C9S13694   5.230   7.744   7.082  0.3911  0.5648 -0.4659
  128OSM    H9S13695   5.237   7.648   7.135 -1.2279  1.1477  0.8919
  128OSM    H9T13696   5.129   7.786   7.106  0.9289  0.7856  1.5499
  128OSM   C10S13697   5.326   7.844   7.144  0.1211 -0.0766  0.0411
  128OSM   H10S13698   5.324   7.933   7.078  1.3006  0.1748  0.3105
  128OSM   H10T13699   5.432   7.809   7.137 -0.0920 -0.9507  0.9290
  128OSM   C11S13700   5.282   7.893   7.281 -0.2030 -0.3523 -0.3617
  128OSM   H11S13701   5.186   7.950   7.276  0.2432  0.7256  1.9015
  128OSM   H11T13702   5.351   7.977   7.303 -0.8090  0.1210 -0.2188
  128OSM   C12S13703   5.271   7.789   7.387  0.5052 -0.6100 -0.8996
  128OSM   H12S13704   5.203   7.708   7.352 -1.2734  1.0971 -1.5676
  128OSM   H12T13705   5.242   7.840   7.482  0.0553 -1.8084 -0.3676
  128OSM   C13S13706   5.410   7.735   7.419 -0.2635 -0.0017  0.3356
  128OSM   H13S13707   5.489   7.813   7.414  1.2184 -1.5290 -1.7207
  128OSM   H13T13708   5.439   7.667   7.337  1.9635  0.4938  0.6437
  128OSM   C14S13709   5.414   7.665   7.555  0.3073 -0.0556 -0.4202
  128OSM   H14S13710   5.514   7.618   7.565  0.8782  0.9763 -1.1566
  128OSM   H14T13711   5.336   7.586   7.563  0.7721 -0.4935 -0.0488
  128OSM   C15S13712   5.396   7.758   7.677 -0.3838  0.0566  0.7235
  128OSM   H15S13713   5.301   7.817   7.674 -0.0301  0.6116 -0.1304
  128OSM   H15T13714   5.477   7.833   7.662  0.1289 -0.5990  0.1580
  128OSM   C16S13715   5.395   7.681   7.810  0.3770 -0.2450  0.4116
  128OSM   H16S13716   5.316   7.603   7.811  1.3910 -1.2848  0.6638
  128OSM   H16T13717   5.378   7.755   7.891  0.1320 -0.3468  0.4535
  128OSM   C17S13718   5.516   7.598   7.842  0.8299  0.2727 -0.1848
  128OSM   H17S13719   5.607   7.658   7.822  0.7334  1.3565  2.2165
  128OSM   H17T13720   5.505   7.516   7.768  0.2447  0.1038  0.0819
  128OSM   C18S13721   5.512   7.538   7.990  0.5290 -0.0082  0.2402
  128OSM   H18S13722   5.519   7.624   8.061  1.6921 -1.9469  2.6422
  128OSM   H18T13723   5.604   7.480   8.013  1.0124  1.2297  1.6301
  128OSM   H18U13724   5.420   7.478   7.999  0.5876 -0.2939 -1.0079
  128OSM    C1F13725   5.145   7.102   6.699  0.3006  0.0588 -0.0610
  128OSM     OF13726   5.192   7.018   6.622 -0.2622  0.1764  0.2456
  128OSM    C2F13727   5.076   7.061   6.822  0.0399 -0.5012 -0.6995
  128OSM    H2F13728   4.981   7.014   6.789  0.3787 -0.1196 -2.2965
  128OSM    H2G13729   5.050   7.154   6.876  0.0035 -1.0886  0.3158
  128OSM    C3F13730   5.157   6.961   6.907 -0.2609  0.0474 -0.3370
  128OSM    H3F13731   5.253   6.995   6.951 -1.0166  0.7571  0.8400
  128OSM    H3G13732   5.170   6.875   6.838 -0.4018  1.0851 -1.6994
  128OSM    C4F13733   5.074   6.895   7.026  0.6364 -0.5198  0.0554
  128OSM    H4F13734   4.982   6.856   6.977 -0.5727  1.2248  0.8154
  128OSM    H4G13735   5.043   6.973   7.099 -0.9802 -0.2427 -0.8568
  128OSM    C5F13736   5.148   6.785   7.100  0.4611  0.7182 -0.7060
  128OSM    H5F13737   5.245   6.816   7.143 -0.5218 -1.5878  3.7564
  128OSM    H5G13738   5.179   6.701   7.035 -0.3002  0.0374 -0.2101
  128OSM    C6F13739   5.067   6.728   7.222  0.3691  0.4329 -0.1926
  128OSM    H6F13740   4.978   6.682   7.175  1.1287 -1.2548 -0.0341
  128OSM    H6G13741   5.039   6.809   7.294  1.2295  2.4177 -1.9918
  128OSM    C7F13742   5.150   6.616   7.284 -0.1528 -0.0349  0.4255
  128OSM    H7F13743   5.240   6.660   7.332 -0.7150  1.6184  0.0482
  128OSM    H7G13744   5.172   6.550   7.198 -1.6266 -0.7603  0.5590
  128OSM    C8F13745   5.074   6.536   7.394 -0.2140 -0.6995 -0.7134
  128OSM    H8F13746   5.029   6.607   7.466 -1.3807  0.5517 -2.5739
  128OSM    H8G13747   5.160   6.488   7.445  0.5175  1.5388  0.3081
  128OSM    C9F13748   4.963   6.442   7.350  0.8220 -0.6686 -0.7554
  128OSM    H9F13749   4.944   6.456   7.242  1.8512  3.0360 -0.5947
  128OSM   C10F13750   4.892   6.347   7.416 -0.0360  0.2375 -0.7324
  128OSM   H10F13751   4.803   6.312   7.363  0.4313  0.2588 -1.5485
  128OSM   C11F13752   4.895   6.318   7.566  0.3432 -0.7550 -0.5855
  128OSM   H11F13753   4.969   6.239   7.589  1.0636  0.8318  3.2336
  128OSM   H11G13754   4.797   6.273   7.593  0.2036 -0.9837 -1.4496
  128OSM   C12F13755   4.921   6.431   7.660 -1.0945  0.7301 -0.0667
  128OSM   H12F13756   4.845   6.512   7.669 -1.9175  0.0807 -1.0369
  128OSM   H12G13757   5.024   6.467   7.640 -1.7138  3.5243  1.2737
  128OSM   C13F13758   4.926   6.370   7.808 -0.1699 -0.3066  0.4605
  128OSM   H13F13759   4.960   6.264   7.815  2.4374  0.3339 -1.2619
  128OSM   H13G13760   4.822   6.383   7.845 -0.5548  0.5078 -0.8401
  128OSM   C14F13761   5.022   6.451   7.906 -0.9602 -0.2836 -0.5861
  128OSM   H14F13762   4.996   6.559   7.893  0.3446  0.0510 -0.4990
  128OSM   H14G13763   5.129   6.437   7.882 -0.7399  0.5821 -0.1481
  128OSM   C15F13764   5.008   6.416   8.056 -0.5287  0.5275  0.3718
  128OSM   H15F13765   5.030   6.307   8.057 -1.5861  0.2960 -0.4064
  128OSM   H15G13766   4.906   6.423   8.098 -0.1691 -1.5415  1.7686
  128OSM   C16F13767   5.098   6.501   8.139  0.1725 -0.3328 -0.4107
  128OSM   H16F13768   5.198   6.512   8.093 -0.2539  0.1270 -1.2582
  128OSM   H16G13769   5.109   6.465   8.243 -4.6770  0.3549  0.5981
  128OSM   C17F13770   5.043   6.642   8.163  0.1629 -0.5966  0.5371
  128OSM   H17F13771   4.942   6.626   8.206 -0.2367  1.4248  0.4791
  128OSM   H17G13772   5.041   6.680   8.059  0.1116  0.2325  0.8279
  128OSM   C18F13773   5.127   6.741   8.246  0.2324 -0.3884  0.0532
  128OSM   H18F13774   5.118   6.705   8.351 -0.3680 -0.2262  0.0611
  128OSM   H18G13775   5.089   6.845   8.236 -1.7661 -0.9172  1.4468
  128OSM   H18H13776   5.234   6.739   8.215  0.7942 -0.2805  1.8645
  129OSM      N13777   5.764   4.702   6.005 -0.5368  1.0568  0.1572
  129OSM    C1513778   5.674   4.821   5.980 -0.6567 -0.2425 -0.0815
  129OSM   H15A13779   5.569   4.801   5.993 -0.9092  0.6377 -0.6864
  129OSM   H15B13780   5.665   4.860   5.879 -1.5799  0.5235  0.2812
  129OSM   H15C13781   5.699   4.914   6.029  2.1369 -0.3476 -1.1323
  129OSM    C1413782   5.724   4.594   5.901 -0.1883 -0.1160 -0.1480
  129OSM   H14A13783   5.706   4.633   5.802  2.7131  0.2746 -0.5999
  129OSM   H14B13784   5.637   4.541   5.936 -0.5121  1.0378  0.8290
  129OSM   H14C13785   5.803   4.522   5.880 -1.0316 -0.8540 -0.8842
  129OSM    C1313786   5.906   4.752   5.982  0.2845  0.4691 -0.2314
  129OSM   H13A13787   5.906   4.788   5.881 -2.4151 -0.6385 -0.7140
  129OSM   H13B13788   5.972   4.667   5.990 -1.3581 -0.8792 -0.3593
  129OSM   H13C13789   5.927   4.827   6.057 -0.6511  0.4072  0.1073
  129OSM    C1213790   5.760   4.644   6.150  0.3154 -0.5345 -0.2962
  129OSM   H12A13791   5.807   4.712   6.220 -0.7758 -1.5773  1.5392
  129OSM   H12B13792   5.815   4.552   6.154 -1.7193 -1.7926  0.7382
  129OSM    C1113793   5.617   4.611   6.210 -0.2672 -0.3956 -0.1953
  129OSM   H11A13794   5.539   4.687   6.188 -0.3394 -0.8438 -1.5708
  129OSM   H11B13795   5.618   4.602   6.321 -2.9228 -3.4434 -0.2533
  129OSM      P13796   5.601   4.349   6.204 -0.2928 -0.3524  0.2265
  129OSM    O1313797   5.527   4.253   6.125 -0.2057 -0.0095 -0.9178
  129OSM    O1413798   5.749   4.341   6.203 -0.0569  0.4897  0.0209
  129OSM    O1113799   5.545   4.346   6.348 -0.1833  0.0636  0.0498
  129OSM    O1213800   5.556   4.492   6.157  0.8149  0.0291 -0.2850
  129OSM    C1S13801   5.401   4.358   6.373 -0.2682  0.6068  0.4564
  129OSM    H1S13802   5.341   4.286   6.315  0.8733  0.3526 -0.4467
  129OSM    H1T13803   5.360   4.457   6.343 -0.8606  0.0565 -0.6072
  129OSM     NF13804   5.218   4.335   6.534 -1.1161 -0.2541  0.0101
  129OSM    HNF13805   5.179   4.426   6.546  0.2667  0.7905 -2.5908
  129OSM    C2S13806   5.368   4.352   6.516  0.7963  0.0223 -0.2827
  129OSM    H2S13807   5.420   4.264   6.560  1.2633 -0.2113 -1.2958
  129OSM    C3S13808   5.430   4.475   6.582 -0.1112  0.0783 -1.0679
  129OSM    H3S13809   5.388   4.565   6.532 -0.2494 -0.2643 -1.5814
  129OSM     O313810   5.570   4.484   6.582  0.1814  0.3607  0.2580
  129OSM    HO313811   5.614   4.411   6.539  2.4712 -0.0656  2.9950
  129OSM    C4S13812   5.402   4.464   6.731  0.2884 -0.8164  0.1034
  129OSM    H4S13813   5.457   4.386   6.785 -1.3330 -1.2395  1.2100
  129OSM    C5S13814   5.314   4.553   6.788 -0.3395 -0.1689  0.2422
  129OSM    H5S13815   5.274   4.631   6.723  1.4823  1.4801  1.0180
  129OSM    C6S13816   5.267   4.549   6.934 -0.8805  0.1531 -0.1749
  129OSM    H6S13817   5.163   4.587   6.930 -0.7772  0.3482 -3.1598
  129OSM    H6T13818   5.341   4.608   6.992  0.3415 -0.4007 -1.1088
  129OSM    C7S13819   5.263   4.401   6.982 -0.9505  0.0472 -0.0923
  129OSM    H7S13820   5.360   4.352   6.960 -0.5151  1.6124 -1.9284
  129OSM    H7T13821   5.185   4.338   6.934  0.4973 -1.5536 -0.4444
  129OSM    C8S13822   5.258   4.377   7.131  0.5110 -0.4814  0.2214
  129OSM    H8S13823   5.326   4.448   7.184 -2.2275  0.5942  2.5417
  129OSM    H8T13824   5.295   4.274   7.146  1.9020  0.0180  0.4106
  129OSM    C9S13825   5.115   4.401   7.182  1.0990 -0.3276  0.0918
  129OSM    H9S13826   5.055   4.336   7.114 -0.2104 -0.4444  1.3188
  129OSM    H9T13827   5.086   4.504   7.153 -0.5473 -0.4362  1.1884
  129OSM   C10S13828   5.114   4.373   7.337  0.2819  0.9256  0.1354
  129OSM   H10S13829   5.166   4.277   7.358  1.6087  1.8037  1.0247
  129OSM   H10T13830   5.006   4.351   7.353  1.1714 -3.2263  1.5125
  129OSM   C11S13831   5.164   4.489   7.425  0.6540 -0.4833  0.0939
  129OSM   H11S13832   5.131   4.584   7.377 -1.1707 -0.8520  0.5324
  129OSM   H11T13833   5.274   4.480   7.420  0.6149 -0.4412 -1.1144
  129OSM   C12S13834   5.131   4.484   7.575 -0.0847  0.4388  0.6394
  129OSM   H12S13835   5.164   4.381   7.600 -1.1043 -0.1177 -0.2267
  129OSM   H12T13836   5.021   4.486   7.588 -0.6250  0.1511 -2.8971
  129OSM   C13S13837   5.209   4.581   7.662 -0.0447  0.0152 -0.3241
  129OSM   H13S13838   5.137   4.663   7.685  1.2336  1.2099 -0.4310
  129OSM   H13T13839   5.295   4.617   7.601 -0.3100 -0.2159 -0.8384
  129OSM   C14S13840   5.261   4.503   7.789  0.1265 -0.0781  0.3071
  129OSM   H14S13841   5.291   4.401   7.758  0.4480  0.8351 -2.7766
  129OSM   H14T13842   5.183   4.477   7.864  0.4382 -2.0462 -0.0016
  129OSM   C15S13843   5.374   4.587   7.846 -0.4027  0.4663  0.7295
  129OSM   H15S13844   5.465   4.602   7.785 -1.9668  0.6577 -1.7318
  129OSM   H15T13845   5.410   4.522   7.928  0.1832  0.8936  0.8146
  129OSM   C16S13846   5.332   4.707   7.923  0.0911 -0.1159  0.1780
  129OSM   H16S13847   5.244   4.678   7.984 -0.1370 -0.4401 -0.3006
  129OSM   H16T13848   5.310   4.793   7.857  2.4988 -0.2325 -0.8851
  129OSM   C17S13849   5.432   4.738   8.033  0.1895 -0.3936  0.0536
  129OSM   H17S13850   5.533   4.750   7.987 -0.0846  2.0399 -0.0591
  129OSM   H17T13851   5.435   4.660   8.111 -1.5714 -1.2358 -0.6786
  129OSM   C18S13852   5.408   4.874   8.101  0.4113  0.2507 -0.6613
  129OSM   H18S13853   5.494   4.887   8.170  0.8732 -1.5827 -0.8354
  129OSM   H18T13854   5.308   4.865   8.148 -0.6175  0.1158 -2.7435
  129OSM   H18U13855   5.397   4.954   8.025 -0.4600  0.3852 -0.4067
  129OSM    C1F13856   5.155   4.228   6.498  0.5529  0.0545 -0.2128
  129OSM     OF13857   5.214   4.124   6.466  0.1466 -0.5697 -0.0125
  129OSM    C2F13858   5.002   4.231   6.510 -0.2552  0.4318  0.2549
  129OSM    H2F13859   4.969   4.215   6.405  0.5967 -3.0944  0.3700
  129OSM    H2G13860   4.964   4.325   6.556 -1.7223  0.7990 -1.5924
  129OSM    C3F13861   4.955   4.114   6.595 -0.1312  0.9524  0.4597
  129OSM    H3F13862   4.988   4.017   6.553 -0.7510 -0.1957  2.4541
  129OSM    H3G13863   4.848   4.106   6.565  0.9408  0.9972 -3.9590
  129OSM    C4F13864   4.987   4.128   6.742 -0.2046 -0.8867 -0.0374
  129OSM    H4F13865   4.963   4.228   6.785 -0.8487  0.4598 -3.2787
  129OSM    H4G13866   5.097   4.128   6.758 -0.4657 -0.8747  2.1002
  129OSM    C5F13867   4.931   4.020   6.835  0.3532  0.1440  0.2328
  129OSM    H5F13868   4.988   3.926   6.821 -0.5637 -0.6984  1.9466
  129OSM    H5G13869   4.826   4.000   6.804  0.4845  1.3939 -1.1255
  129OSM    C6F13870   4.944   4.051   6.976 -0.6314  0.6484 -0.2861
  129OSM    H6F13871   4.921   4.159   6.990  0.8728  0.8280  1.1871
  129OSM    H6G13872   5.050   4.038   7.006  0.4746  4.1470 -2.0952
  129OSM    C7F13873   4.860   3.959   7.059 -0.1711  0.2081 -0.1125
  129OSM    H7F13874   4.795   3.893   6.997 -0.8953  2.2706 -1.6826
  129OSM    H7G13875   4.800   4.035   7.114 -1.6428 -1.9873  1.5133
  129OSM    C8F13876   4.955   3.870   7.148  0.4286  0.4701  1.5846
  129OSM    H8F13877   5.028   3.936   7.199  0.9662  1.7295 -0.7068
  129OSM    H8G13878   5.024   3.811   7.085 -1.0563  0.3269  0.0038
  129OSM    C9F13879   4.888   3.782   7.248 -0.2191  0.4362 -0.3629
  129OSM    H9F13880   4.888   3.675   7.222 -0.5261  0.6816 -1.3926
  129OSM   C10F13881   4.837   3.820   7.363  0.3634 -0.6405  0.4026
  129OSM   H10F13882   4.780   3.741   7.415  0.0390 -0.2135  0.7133
  129OSM   C11F13883   4.843   3.962   7.420  0.0835 -0.7287  0.0585
  129OSM   H11F13884   4.739   3.999   7.435 -0.0600 -0.6356 -1.1204
  129OSM   H11G13885   4.903   4.039   7.366 -1.9765  0.5586 -0.5347
  129OSM   C12F13886   4.892   3.948   7.567 -0.5809 -0.5720  0.1458
  129OSM   H12F13887   4.893   4.056   7.593  3.9684 -0.5300  0.6336
  129OSM   H12G13888   4.996   3.908   7.571 -0.1203  0.6744  2.1435
  129OSM   C13F13889   4.809   3.879   7.663  0.0883  0.8288 -0.6783
  129OSM   H13F13890   4.844   3.773   7.669 -0.1455  0.7637 -0.4286
  129OSM   H13G13891   4.702   3.876   7.634  0.0457 -0.4827 -0.4467
  129OSM   C14F13892   4.821   3.934   7.811 -0.9214 -0.2460 -0.4526
  129OSM   H14F13893   4.792   4.039   7.832  0.0493 -0.5090  2.7915
  129OSM   H14G13894   4.930   3.917   7.829 -1.4766 -0.9112  3.0412
  129OSM   C15F13895   4.734   3.848   7.911  0.4696 -0.2116  0.1968
  129OSM   H15F13896   4.753   3.742   7.886  0.2640  0.1325 -1.5411
  129OSM   H15G13897   4.630   3.864   7.876  0.3677  0.3062  0.7101
  129OSM   C16F13898   4.744   3.898   8.055 -0.4407 -0.4962  0.4172
  129OSM   H16F13899   4.664   3.863   8.125  0.5342 -0.8031  1.3996
  129OSM   H16G13900   4.729   4.008   8.054 -0.5257 -0.4253  2.9801
  129OSM   C17F13901   4.881   3.878   8.110 -0.5335 -0.4186 -0.7063
  129OSM   H17F13902   4.915   3.967   8.167  0.3182 -0.8075 -0.5946
  129OSM   H17G13903   4.956   3.873   8.029 -0.5904  3.0484 -1.1378
  129OSM   C18F13904   4.893   3.763   8.212 -0.6991 -1.1265  0.0442
  129OSM   H18F13905   4.873   3.662   8.169 -0.1735 -1.3879  0.4064
  129OSM   H18G13906   4.817   3.781   8.291 -0.4986 -0.4108  0.0774
  129OSM   H18H13907   4.996   3.764   8.252 -0.5406  3.5135  0.0652
  130OSM      N13908   5.142   6.209   6.083  0.0162 -0.2202 -0.4222
  130OSM    C1513909   5.003   6.178   6.041 -0.5601 -0.5065  0.1763
  130OSM   H15A13910   4.956   6.271   6.015  0.5270 -0.1195 -0.4505
  130OSM   H15B13911   4.941   6.125   6.112 -0.3083 -3.0029 -1.3285
  130OSM   H15C13912   4.998   6.113   5.955  0.0326 -0.8744  0.4159
  130OSM    C1413913   5.212   6.074   6.097 -0.2081 -0.1151  0.4070
  130OSM   H14A13914   5.212   6.032   5.998  0.1286  0.7750  0.0166
  130OSM   H14B13915   5.147   6.010   6.155 -1.5196 -0.4146 -1.3150
  130OSM   H14C13916   5.315   6.088   6.126  0.8715 -1.5577 -2.4272
  130OSM    C1313917   5.211   6.289   5.979 -0.1565  0.5995  0.3671
  130OSM   H13A13918   5.313   6.303   6.010 -0.5643  1.7014  1.2636
  130OSM   H13B13919   5.173   6.388   5.959 -1.4851 -0.5024 -3.4190
  130OSM   H13C13920   5.206   6.235   5.885  0.6118  1.0846  0.0410
  130OSM    C1213921   5.156   6.287   6.217 -0.2845  0.5137 -0.2328
  130OSM   H12A13922   5.258   6.287   6.252 -0.2214 -1.1894 -0.3541
  130OSM   H12B13923   5.104   6.224   6.288  0.8316 -0.3575 -0.1633
  130OSM    C1113924   5.102   6.430   6.213 -0.5415 -0.5705  0.3439
  130OSM   H11A13925   5.080   6.461   6.317  1.4470 -1.1741  0.9926
  130OSM   H11B13926   5.011   6.423   6.150  1.9681  2.6690 -4.2689
  130OSM      P13927   5.341   6.551   6.178  0.1432 -0.1180  0.3163
  130OSM    O1313928   5.397   6.466   6.283 -0.1931  0.0892 -0.7780
  130OSM    O1413929   5.404   6.544   6.046  0.0928  0.1279 -0.3308
  130OSM    O1113930   5.326   6.696   6.229  0.2789  0.0053  0.1692
  130OSM    O1213931   5.188   6.518   6.145 -0.1830  0.8767  0.3131
  130OSM    C1S13932   5.226   6.727   6.330 -0.4087  0.2471 -0.4559
  130OSM    H1S13933   5.128   6.675   6.317  0.5568 -1.7880  0.0007
  130OSM    H1T13934   5.201   6.834   6.318 -1.4993  0.2136  1.2263
  130OSM     NF13935   5.159   6.754   6.563  0.5053  0.1405 -0.0344
  130OSM    HNF13936   5.162   6.850   6.588  0.8007 -0.5868  3.0993
  130OSM    C2S13937   5.272   6.706   6.479 -0.1826  0.6300 -0.5027
  130OSM    H2S13938   5.292   6.598   6.498  1.6918  1.2785  1.6596
  130OSM    C3S13939   5.399   6.786   6.497 -0.6647  0.0840  0.0244
  130OSM    H3S13940   5.386   6.892   6.466 -0.6242 -0.0297 -0.3858
  130OSM     O313941   5.508   6.743   6.415  0.0697  0.3616  0.8999
  130OSM    HO313942   5.463   6.689   6.349  0.5551 -1.2865  1.8715
  130OSM    C4S13943   5.445   6.781   6.643  1.0012  0.5096 -0.3545
  130OSM    H4S13944   5.410   6.868   6.701 -0.5675  0.0521 -0.5618
  130OSM    C5S13945   5.510   6.690   6.710  0.1552  0.3147  0.2086
  130OSM    H5S13946   5.540   6.602   6.651  0.4878  1.9302 -2.1529
  130OSM    C6S13947   5.551   6.694   6.853  0.2874  0.0127  0.0137
  130OSM    H6S13948   5.654   6.735   6.858  1.0540 -1.9165  1.5012
  130OSM    H6T13949   5.562   6.587   6.884 -0.3654 -0.9665 -2.8607
  130OSM    C7S13950   5.463   6.793   6.936 -0.5298 -0.1744 -0.2820
  130OSM    H7S13951   5.360   6.754   6.945  0.8251 -3.6261  2.9152
  130OSM    H7T13952   5.460   6.897   6.897 -3.2397 -0.7230 -1.7769
  130OSM    C8S13953   5.524   6.815   7.077  0.1559  1.0070 -0.2262
  130OSM    H8S13954   5.468   6.892   7.134  2.8517  0.1977  3.9281
  130OSM    H8T13955   5.627   6.856   7.074  0.8795 -0.7638 -1.2650
  130OSM    C9S13956   5.526   6.687   7.158  0.6461  0.5330 -0.3129
  130OSM    H9S13957   5.612   6.621   7.132  0.0917  0.7370 -2.9803
  130OSM    H9T13958   5.426   6.639   7.146  1.0972 -0.2567 -1.0430
  130OSM   C10S13959   5.538   6.727   7.311 -0.0366  0.4939  0.3601
  130OSM   H10S13960   5.450   6.786   7.346 -0.7888  1.0402 -2.2480
  130OSM   H10T13961   5.628   6.791   7.327  0.6058 -0.4957  0.7544
  130OSM   C11S13962   5.558   6.602   7.405  0.4962  0.8827  0.1857
  130OSM   H11S13963   5.655   6.555   7.377  1.4900  1.1060  2.9290
  130OSM   H11T13964   5.470   6.535   7.396  1.9508 -1.3694  1.7815
  130OSM   C12S13965   5.585   6.638   7.557  0.2655 -0.3090  0.5752
  130OSM   H12S13966   5.644   6.732   7.560  0.0571 -0.1304 -0.4016
  130OSM   H12T13967   5.652   6.561   7.601 -0.5138 -1.9871 -1.0371
  130OSM   C13S13968   5.450   6.643   7.632  0.0743 -0.3734 -0.1665
  130OSM   H13S13969   5.395   6.546   7.633  1.3405 -1.1193 -0.4558
  130OSM   H13T13970   5.388   6.724   7.588 -0.1652 -0.6527 -0.3477
  130OSM   C14S13971   5.487   6.681   7.772  0.2895  0.2407 -0.3326
  130OSM   H14S13972   5.546   6.775   7.780 -0.1593  0.3617  3.6184
  130OSM   H14T13973   5.551   6.603   7.818 -0.0488 -0.1411 -0.5028
  130OSM   C15S13974   5.369   6.712   7.858  1.0744 -0.5296 -0.4807
  130OSM   H15S13975   5.311   6.620   7.878 -0.4882  0.7101  1.0448
  130OSM   H15T13976   5.295   6.767   7.795 -1.3088 -0.9316  1.7692
  130OSM   C16S13977   5.395   6.795   7.990  0.1861  0.0542 -0.1570
  130OSM   H16S13978   5.297   6.833   8.027  1.1244  1.4405  0.9753
  130OSM   H16T13979   5.455   6.884   7.962 -0.3650  1.1870  2.0758
  130OSM   C17S13980   5.483   6.720   8.090 -0.3321 -1.0009  0.6936
  130OSM   H17S13981   5.573   6.685   8.036 -0.7096 -0.7630 -0.0973
  130OSM   H17T13982   5.420   6.633   8.119 -0.5433 -1.5755 -1.3249
  130OSM   C18S13983   5.529   6.789   8.220  0.4342  0.0966  1.1200
  130OSM   H18S13984   5.632   6.769   8.254 -0.0855  0.8367  3.2700
  130OSM   H18T13985   5.471   6.756   8.309 -0.6163 -1.2110 -0.0024
  130OSM   H18U13986   5.525   6.900   8.215 -1.1072  0.0638  1.2051
  130OSM    C1F13987   5.060   6.666   6.598  0.4331 -0.2119 -0.3804
  130OSM     OF13988   5.074   6.546   6.580  0.4892  0.1855 -0.1534
  130OSM    C2F13989   4.935   6.721   6.650  0.1096 -0.4035  0.4630
  130OSM    H2F13990   4.857   6.692   6.576  1.6928  0.1892 -1.5294
  130OSM    H2G13991   4.941   6.832   6.639 -0.2879 -0.4309 -0.1273
  130OSM    C3F13992   4.890   6.682   6.788  0.1155  0.6638  0.1991
  130OSM    H3F13993   4.812   6.750   6.827 -2.9747 -0.6755 -3.1163
  130OSM    H3G13994   4.976   6.672   6.859  0.9803 -1.2285 -1.0446
  130OSM    C4F13995   4.814   6.558   6.801  0.0380  0.6172  0.7192
  130OSM    H4F13996   4.884   6.472   6.796 -1.0650 -0.2547 -0.2721
  130OSM    H4G13997   4.744   6.556   6.714  0.0504 -0.5474  0.7240
  130OSM    C5F13998   4.741   6.553   6.940 -0.1369 -0.2838 -0.4449
  130OSM    H5F13999   4.672   6.640   6.951 -1.6778 -1.6730  1.5742
  130OSM    H5G14000   4.819   6.550   7.019  0.3065  0.0726 -0.8633
  130OSM    C6F14001   4.661   6.423   6.954 -0.3902 -1.0966 -0.7043
  130OSM    H6F14002   4.731   6.337   6.956 -0.7169 -1.4675  3.5618
  130OSM    H6G14003   4.601   6.419   6.860  2.6347  1.0915 -2.9100
  130OSM    C7F14004   4.562   6.411   7.073 -0.3458 -0.3413 -0.4453
  130OSM    H7F14005   4.481   6.486   7.059 -1.1005 -1.5887 -3.4248
  130OSM    H7G14006   4.620   6.440   7.164  1.9788 -0.7767 -1.6905
  130OSM    C8F14007   4.492   6.271   7.077  0.3705  0.1948 -0.1636
  130OSM    H8F14008   4.561   6.189   7.105 -1.3889 -0.8928  1.2676
  130OSM    H8G14009   4.439   6.241   6.984 -0.9965 -4.7482  1.8833
  130OSM    C9F14010   4.380   6.274   7.181 -0.0124  0.6648 -0.2677
  130OSM    H9F14011   4.280   6.301   7.143 -1.2048 -3.0504 -0.1905
  130OSM   C10F14012   4.391   6.248   7.313  0.4597  0.2052  0.1129
  130OSM   H10F14013   4.301   6.262   7.375 -0.5107 -2.0334 -0.6717
  130OSM   C11F14014   4.510   6.204   7.393 -0.4963  0.1352 -0.2745
  130OSM   H11F14015   4.535   6.281   7.469 -0.0539 -0.4188  0.1532
  130OSM   H11G14016   4.600   6.188   7.329 -1.6602 -1.4072 -1.6069
  130OSM   C12F14017   4.478   6.074   7.463 -0.2950  0.2005  0.4594
  130OSM   H12F14018   4.579   6.036   7.490 -0.6064 -2.3972 -1.6413
  130OSM   H12G14019   4.445   5.995   7.393 -0.5494  1.0227 -0.3683
  130OSM   C13F14020   4.390   6.091   7.586 -0.9175 -0.2716 -0.2486
  130OSM   H13F14021   4.294   6.137   7.554 -0.3299  2.1009  1.1366
  130OSM   H13G14022   4.434   6.165   7.656  1.5289 -2.0084  0.1599
  130OSM   C14F14023   4.386   5.962   7.661  0.2288 -1.0280  0.0900
  130OSM   H14F14024   4.489   5.932   7.689  0.3673  0.8157  1.7554
  130OSM   H14G14025   4.340   5.883   7.597  0.4226 -0.3840 -0.8818
  130OSM   C15F14026   4.293   5.973   7.783  0.3902 -0.0116  0.1428
  130OSM   H15F14027   4.268   5.870   7.814  0.1941 -0.1833 -0.5517
  130OSM   H15G14028   4.192   6.006   7.749 -1.1506 -3.9365  0.3929
  130OSM   C16F14029   4.331   6.065   7.898 -0.7055 -0.0811  0.2565
  130OSM   H16F14030   4.248   6.075   7.972  0.1021 -2.4108  1.5990
  130OSM   H16G14031   4.330   6.168   7.858 -1.4927 -0.4147 -0.6142
  130OSM   C17F14032   4.460   6.016   7.964  0.3200  0.1447  0.2692
  130OSM   H17F14033   4.481   6.090   8.045  0.0574  0.7832 -0.2321
  130OSM   H17G14034   4.544   6.018   7.892 -0.0944 -0.8102 -0.2566
  130OSM   C18F14035   4.450   5.876   8.014 -0.2991 -0.5764  0.2866
  130OSM   H18F14036   4.557   5.861   8.039 -0.7043 -1.0667  1.8283
  130OSM   H18G14037   4.421   5.812   7.928 -0.4269  1.0673 -0.9403
  130OSM   H18H14038   4.388   5.852   8.102  2.7822 -2.2272  2.1972
  131OSM      N14039   6.822   6.150   6.215  0.3328 -0.5153 -1.1205
  131OSM    C1514040   6.817   6.060   6.331  0.5469  0.0997  0.1801
  131OSM   H15A14041   6.764   6.107   6.412 -2.8434  0.1843 -1.9158
  131OSM   H15B14042   6.913   6.032   6.373  0.2239  0.5984  1.2951
  131OSM   H15C14043   6.763   5.968   6.312  3.2562 -0.9997 -3.2654
  131OSM    C1414044   6.681   6.173   6.157  0.4572 -0.9216 -0.1199
  131OSM   H14A14045   6.626   6.220   6.237 -0.1462 -0.0364 -1.0332
  131OSM   H14B14046   6.634   6.082   6.123 -1.0690 -0.5316  0.8437
  131OSM   H14C14047   6.686   6.238   6.071 -1.4907  0.0215  0.4345
  131OSM    C1314048   6.876   6.287   6.255  0.4876  1.1345 -0.0711
  131OSM   H13A14049   6.837   6.359   6.183  0.2975 -0.4847 -1.6594
  131OSM   H13B14050   6.984   6.285   6.255  0.5381  0.1103 -2.6315
  131OSM   H13C14051   6.838   6.310   6.354 -1.3987 -1.5578 -0.0671
  131OSM    C1214052   6.900   6.096   6.100  0.3602  0.9847 -0.2186
  131OSM   H12A14053   6.873   6.160   6.017  0.6503  2.1725  0.5919
  131OSM   H12B14054   6.859   5.997   6.080  2.2935 -0.5828  2.8413
  131OSM    C1114055   7.050   6.068   6.109  0.3237  0.2762 -0.5079
  131OSM   H11A14056   7.088   6.164   6.149  1.3344  0.1705 -1.1806
  131OSM   H11B14057   7.104   6.060   6.013 -0.6826  0.6336 -1.1225
  131OSM      P14058   7.043   5.810   6.157 -0.0960 -0.4632  0.1618
  131OSM    O1314059   6.945   5.811   6.047 -0.4537  0.2622 -0.4818
  131OSM    O1414060   7.165   5.743   6.109  0.1376  0.5399 -0.1851
  131OSM    O1114061   6.987   5.748   6.285  0.1030 -0.3073  0.3084
  131OSM    O1214062   7.080   5.958   6.195 -0.9157  0.4829  0.2430
  131OSM    C1S14063   7.077   5.701   6.383 -0.0104  0.6830 -0.3812
  131OSM    H1S14064   7.180   5.742   6.375  0.3603 -0.3135 -0.8652
  131OSM    H1T14065   7.079   5.591   6.370  1.9973  0.6959 -0.4711
  131OSM     NF14066   7.127   5.731   6.635  0.0189 -0.1626  0.1592
  131OSM    HNF14067   7.105   5.661   6.702 -0.9538 -0.8796 -0.8851
  131OSM    C2S14068   7.029   5.743   6.530 -1.0086 -0.6950  0.4133
  131OSM    H2S14069   7.018   5.853   6.518 -0.5303 -0.7817 -0.9126
  131OSM    C3S14070   6.902   5.668   6.565  0.7403 -0.0219  0.3831
  131OSM    H3S14071   6.918   5.559   6.579 -2.2948 -0.3741  1.8683
  131OSM     O314072   6.811   5.669   6.454  0.0807  0.3487 -0.5663
  131OSM    HO314073   6.867   5.700   6.382 -1.8534 -0.1926 -2.4362
  131OSM    C4S14074   6.830   5.727   6.683 -0.2098  0.3305 -0.9430
  131OSM    H4S14075   6.797   5.832   6.673 -2.2920 -0.0432  1.2407
  131OSM    C5S14076   6.805   5.666   6.801 -0.1273 -0.0224  0.1061
  131OSM    H5S14077   6.837   5.561   6.806 -1.2834 -1.0384 -5.9064
  131OSM    C6S14078   6.731   5.727   6.915 -0.4171  0.1151  0.2495
  131OSM    H6S14079   6.651   5.660   6.951 -0.3701  0.4293  0.9709
  131OSM    H6T14080   6.686   5.824   6.885 -0.3271 -0.1450 -0.7723
  131OSM    C7S14081   6.822   5.744   7.046 -0.5776 -0.0590  0.0457
  131OSM    H7S14082   6.900   5.821   7.026 -0.6997 -0.2658 -1.3506
  131OSM    H7T14083   6.870   5.645   7.059 -1.0378 -0.4495 -1.1107
  131OSM    C8S14084   6.740   5.783   7.170  0.4482  0.5407 -0.2956
  131OSM    H8S14085   6.640   5.733   7.164  2.0676 -2.8397 -2.9013
  131OSM    H8T14086   6.706   5.888   7.174 -0.4918  0.2033  1.7760
  131OSM    C9S14087   6.804   5.745   7.301 -0.2315 -0.1311 -0.3879
  131OSM    H9S14088   6.904   5.791   7.314 -0.4649 -0.1619  1.7481
  131OSM    H9T14089   6.815   5.635   7.304  2.5758  0.0358 -1.4775
  131OSM   C10S14090   6.723   5.772   7.426  0.4274 -0.2218 -0.1732
  131OSM   H10S14091   6.614   5.758   7.408  0.2413  0.3147  0.4651
  131OSM   H10T14092   6.742   5.879   7.453 -2.0022  0.3964 -0.6096
  131OSM   C11S14093   6.744   5.672   7.542  0.2514  0.3224 -0.4006
  131OSM   H11S14094   6.853   5.655   7.546  0.1031 -0.4709  0.7012
  131OSM   H11T14095   6.691   5.577   7.518 -1.6056  0.9977  0.7803
  131OSM   C12S14096   6.701   5.712   7.680 -0.1674 -0.2002  0.4303
  131OSM   H12S14097   6.592   5.733   7.675  0.2606  2.2189 -0.1228
  131OSM   H12T14098   6.748   5.812   7.694 -0.1262 -0.2038  0.3216
  131OSM   C13S14099   6.739   5.614   7.791  0.2051  0.4184 -0.2989
  131OSM   H13S14100   6.845   5.588   7.774  0.2566  0.9727 -0.8611
  131OSM   H13T14101   6.683   5.519   7.776 -1.2128  1.4062 -1.6887
  131OSM   C14S14102   6.717   5.661   7.938  0.2767 -0.0246  0.1692
  131OSM   H14S14103   6.764   5.601   8.019  1.3515  1.6318  0.8347
  131OSM   H14T14104   6.607   5.654   7.946  0.2532 -0.1466 -0.2396
  131OSM   C15S14105   6.756   5.802   7.955  0.4303  0.3804 -0.7624
  131OSM   H15S14106   6.708   5.869   7.881  1.3578  2.0399  0.0645
  131OSM   H15T14107   6.858   5.826   7.916  0.5155 -2.7668 -2.8601
  131OSM   C16S14108   6.744   5.852   8.099 -0.3543 -0.3453 -0.4844
  131OSM   H16S14109   6.776   5.769   8.164  1.4134  1.1519  0.6638
  131OSM   H16T14110   6.636   5.871   8.118 -0.3775  0.1637 -1.0686
  131OSM   C17S14111   6.824   5.967   8.121  0.2162 -0.4209  0.1216
  131OSM   H17S14112   6.793   6.042   8.045 -2.1708 -0.1423  1.2772
  131OSM   H17T14113   6.933   5.951   8.108  0.1643  0.4047 -1.5843
  131OSM   C18S14114   6.804   6.035   8.261  0.1152  0.0873  0.6577
  131OSM   H18S14115   6.863   6.129   8.254  0.1501  0.0071 -0.3185
  131OSM   H18T14116   6.839   5.984   8.352  0.8048 -0.5980  0.0128
  131OSM   H18U14117   6.697   6.056   8.283  0.3004 -1.4349  3.4631
  131OSM    C1F14118   7.223   5.822   6.651 -0.4419 -0.6730 -0.2833
  131OSM     OF14119   7.240   5.913   6.569  0.3113 -0.0260  0.3106
  131OSM    C2F14120   7.301   5.818   6.784  0.5816  0.3639 -0.3610
  131OSM    H2F14121   7.409   5.810   6.759  0.8694 -2.6749  1.4593
  131OSM    H2G14122   7.279   5.724   6.837  0.8531 -0.6203 -1.9255
  131OSM    C3F14123   7.279   5.946   6.875  0.1221 -0.4137  0.7744
  131OSM    H3F14124   7.169   5.957   6.890 -0.1818 -1.2754 -0.6359
  131OSM    H3G14125   7.314   6.035   6.820  0.6230 -0.7891  0.4782
  131OSM    C4F14126   7.359   5.934   7.007 -0.4538 -0.4545  0.1098
  131OSM    H4F14127   7.461   5.906   6.975 -0.7654 -0.3237 -1.0366
  131OSM    H4G14128   7.307   5.864   7.075  1.2438 -2.6464 -0.7483
  131OSM    C5F14129   7.377   6.069   7.080  0.3842  0.5830 -0.1695
  131OSM    H5F14130   7.276   6.114   7.071  0.7024  0.9065 -3.2716
  131OSM    H5G14131   7.449   6.123   7.015  0.7466 -1.3269 -1.4433
  131OSM    C6F14132   7.420   6.051   7.222  0.8442  0.3136 -0.4225
  131OSM    H6F14133   7.509   5.984   7.230  0.0581 -0.5944  1.2192
  131OSM    H6G14134   7.335   6.017   7.284 -1.2434  1.2165 -2.6425
  131OSM    C7F14135   7.456   6.188   7.283  0.8012  0.1219  0.1049
  131OSM    H7F14136   7.470   6.185   7.393  2.0238  0.0194 -0.0406
  131OSM    H7G14137   7.368   6.254   7.273  0.2794  0.2585  4.0732
  131OSM    C8F14138   7.569   6.268   7.222 -0.3895 -0.6903  0.5353
  131OSM    H8F14139   7.566   6.368   7.269 -2.2345  0.1657 -1.2236
  131OSM    H8G14140   7.546   6.295   7.116  1.8180  0.4269  0.2707
  131OSM    C9F14141   7.708   6.214   7.232 -0.8981 -0.7474  0.2670
  131OSM    H9F14142   7.706   6.113   7.189 -3.1390 -0.9400  0.7264
  131OSM   C10F14143   7.802   6.249   7.313 -0.0388 -0.0457  0.5344
  131OSM   H10F14144   7.889   6.184   7.323 -0.2048 -0.3582 -0.0206
  131OSM   C11F14145   7.787   6.355   7.418  0.2867  0.3568 -0.4020
  131OSM   H11F14146   7.717   6.438   7.393  0.5283  0.3215 -1.2447
  131OSM   H11G14147   7.880   6.411   7.444 -0.6610  1.4522  0.7577
  131OSM   C12F14148   7.740   6.299   7.554 -0.1525 -0.2622 -0.3740
  131OSM   H12F14149   7.815   6.230   7.599 -0.0850  0.0097 -0.0613
  131OSM   H12G14150   7.640   6.252   7.545  0.0224 -0.4575 -1.3803
  131OSM   C13F14151   7.736   6.425   7.646  0.2367 -0.3921  0.6304
  131OSM   H13F14152   7.682   6.506   7.594  3.2106  0.0830 -2.0190
  131OSM   H13G14153   7.837   6.470   7.655 -0.7093  3.1624 -3.4288
  131OSM   C14F14154   7.687   6.376   7.782 -0.5161 -0.5323  0.4053
  131OSM   H14F14155   7.759   6.303   7.825 -0.7276 -0.7703  0.3539
  131OSM   H14G14156   7.589   6.326   7.770  0.0683 -1.3591 -1.2085
  131OSM   C15F14157   7.686   6.484   7.891  0.1101  0.2024 -0.2683
  131OSM   H15F14158   7.786   6.532   7.897  0.8156 -0.8140 -2.5395
  131OSM   H15G14159   7.648   6.446   7.988  4.6217  0.1133  1.7374
  131OSM   C16F14160   7.579   6.594   7.845 -0.0595  0.1482 -0.1806
  131OSM   H16F14161   7.482   6.541   7.831 -1.4960  2.6680 -0.3827
  131OSM   H16G14162   7.610   6.640   7.749  2.4310 -0.7051  0.1383
  131OSM   C17F14163   7.562   6.705   7.943  0.5595  0.6970  0.1725
  131OSM   H17F14164   7.585   6.662   8.043 -1.5878  0.6715  0.7001
  131OSM   H17G14165   7.460   6.745   7.957 -0.5731 -0.6103 -3.3708
  131OSM   C18F14166   7.647   6.820   7.903 -0.7509  0.0936 -0.2873
  131OSM   H18F14167   7.751   6.788   7.881 -0.9225 -1.1511  0.6260
  131OSM   H18G14168   7.650   6.902   7.978 -0.3814 -0.5940  0.4548
  131OSM   H18H14169   7.609   6.856   7.805 -1.5164 -1.1825 -0.4805
  132OSM      N14170   2.712   4.816   6.274  0.3436  0.1779  0.3785
  132OSM    C1514171   2.646   4.763   6.398  0.0763  0.0821 -0.3259
  132OSM   H15A14172   2.711   4.745   6.482  0.2931  1.4368 -0.1790
  132OSM   H15B14173   2.606   4.664   6.379 -1.2759  0.1631  1.7852
  132OSM   H15C14174   2.562   4.817   6.438 -1.8124 -0.5049 -3.1825
  132OSM    C1414175   2.725   4.961   6.300 -0.4708 -0.7659  0.9735
  132OSM   H14A14176   2.760   4.992   6.397  1.5450  2.0310 -0.5145
  132OSM   H14B14177   2.626   5.002   6.290  0.3589  1.5968  1.7685
  132OSM   H14C14178   2.796   5.008   6.234 -0.9193 -0.5449  0.6427
  132OSM    C1314179   2.852   4.755   6.256 -0.0885 -0.0456  0.0688
  132OSM   H13A14180   2.924   4.795   6.326  2.0157  0.2024 -2.0894
  132OSM   H13B14181   2.891   4.772   6.157 -0.6863 -0.4653 -0.2503
  132OSM   H13C14182   2.851   4.647   6.264 -0.0143 -0.5459 -4.3290
  132OSM    C1214183   2.629   4.781   6.154  0.3757  0.2910 -0.4658
  132OSM   H12A14184   2.676   4.835   6.073  0.6723 -1.7792 -1.7443
  132OSM   H12B14185   2.527   4.816   6.150 -0.1409 -1.1317 -0.3734
  132OSM    C1114186   2.634   4.635   6.101 -0.0331 -0.8758  0.1290
  132OSM   H11A14187   2.741   4.611   6.079 -0.4922 -2.2629 -0.7704
  132OSM   H11B14188   2.580   4.634   6.004 -0.1117 -0.5478  0.1695
  132OSM      P14189   2.420   4.533   6.211 -0.0030  0.7088 -0.5594
  132OSM    O1314190   2.377   4.620   6.324 -0.0869 -0.3757 -0.3104
  132OSM    O1414191   2.350   4.541   6.084  0.1836  0.0666 -0.1216
  132OSM    O1114192   2.395   4.382   6.255 -0.2510  0.8958  0.4103
  132OSM    O1214193   2.576   4.538   6.190  0.1708 -0.3730 -0.5179
  132OSM    C1S14194   2.499   4.313   6.328 -0.3691  0.1919 -0.1049
  132OSM    H1S14195   2.600   4.345   6.297 -0.7783  1.2050 -0.4577
  132OSM    H1T14196   2.495   4.204   6.307 -1.0931  0.2735 -0.4326
  132OSM     NF14197   2.595   4.248   6.540 -0.1970 -0.1905 -0.3959
  132OSM    HNF14198   2.589   4.157   6.579 -0.7830  0.4589  1.0901
  132OSM    C2S14199   2.486   4.321   6.483 -0.1764 -0.6682 -0.1015
  132OSM    H2S14200   2.492   4.429   6.508 -1.7593 -1.2310  3.4036
  132OSM    C3S14201   2.349   4.279   6.530  0.3641  0.1164  0.0406
  132OSM    H3S14202   2.332   4.173   6.499  0.8958 -0.1024  0.4871
  132OSM     O314203   2.240   4.354   6.492  0.4381  0.2002 -0.2287
  132OSM    HO314204   2.276   4.413   6.426 -1.0510  0.1297 -1.1550
  132OSM    C4S14205   2.349   4.285   6.681  0.2510 -0.2364  0.5114
  132OSM    H4S14206   2.342   4.188   6.734 -0.3098 -0.0054  0.8740
  132OSM    C5S14207   2.363   4.398   6.756  0.7213  1.1297  0.1603
  132OSM    H5S14208   2.373   4.497   6.709 -1.6443  2.1956  1.6747
  132OSM    C6S14209   2.370   4.397   6.905  0.5931  0.5490 -0.3397
  132OSM    H6S14210   2.309   4.486   6.930  1.3947  0.9053  0.4045
  132OSM    H6T14211   2.475   4.402   6.943  0.0980  0.1442  1.1600
  132OSM    C7S14212   2.287   4.285   6.973 -0.0419  0.2011 -0.3283
  132OSM    H7S14213   2.345   4.194   6.948  1.3368  1.5110 -2.0985
  132OSM    H7T14214   2.182   4.280   6.937  0.6157  1.1718 -2.5718
  132OSM    C8S14215   2.282   4.292   7.126 -0.2772 -0.3524 -0.4666
  132OSM    H8S14216   2.204   4.217   7.149  1.5279 -2.3116 -0.3922
  132OSM    H8T14217   2.252   4.394   7.157  1.7352 -0.1728  1.1073
  132OSM    C9S14218   2.417   4.257   7.195  0.3856 -0.1044 -1.1896
  132OSM    H9S14219   2.505   4.302   7.144 -0.3334  0.4694 -1.9558
  132OSM    H9T14220   2.438   4.148   7.201 -0.8890 -0.3503 -1.0093
  132OSM   C10S14221   2.420   4.312   7.340 -0.5342  0.2910  0.1534
  132OSM   H10S14222   2.414   4.422   7.328  0.6141  0.2175 -1.5063
  132OSM   H10T14223   2.522   4.294   7.378 -0.3203 -1.1435 -1.0201
  132OSM   C11S14224   2.301   4.263   7.412  0.0881 -0.1759  0.1807
  132OSM   H11S14225   2.291   4.154   7.390  0.5602 -0.7308  2.5165
  132OSM   H11T14226   2.205   4.307   7.377 -0.2355 -0.9060  0.1268
  132OSM   C12S14227   2.311   4.295   7.555  0.1200  0.8118 -0.2012
  132OSM   H12S14228   2.345   4.399   7.574 -0.3949  0.9545 -0.0482
  132OSM   H12T14229   2.383   4.224   7.601 -0.7080  0.3361  0.3740
  132OSM   C13S14230   2.177   4.290   7.627  0.2617  0.4787  0.0161
  132OSM   H13S14231   2.126   4.192   7.624  2.7474 -0.9161  0.8202
  132OSM   H13T14232   2.116   4.368   7.576  0.3280 -1.1769 -2.7999
  132OSM   C14S14233   2.177   4.335   7.772 -0.3563 -0.4919  0.3601
  132OSM   H14S14234   2.079   4.376   7.806 -0.0894 -1.1252  1.9737
  132OSM   H14T14235   2.255   4.409   7.798 -0.4584 -0.3374  0.2294
  132OSM   C15S14236   2.209   4.216   7.868  0.1731  0.2188  0.2932
  132OSM   H15S14237   2.308   4.184   7.829  0.4059  1.0032  0.2260
  132OSM   H15T14238   2.138   4.133   7.846  1.6654 -0.7105 -1.2258
  132OSM   C16S14239   2.190   4.258   8.013 -0.0487  0.6482 -0.2886
  132OSM   H16S14240   2.085   4.276   8.045  0.2885 -0.8793  1.8805
  132OSM   H16T14241   2.250   4.350   8.033  2.4217 -0.7834 -0.7018
  132OSM   C17S14242   2.254   4.163   8.113  0.2954  0.0280  0.8308
  132OSM   H17S14243   2.363   4.148   8.093  0.0987  0.0570 -0.3138
  132OSM   H17T14244   2.206   4.063   8.104  2.3733 -0.9117 -0.6240
  132OSM   C18S14245   2.222   4.221   8.255 -0.4004 -0.5604  0.7248
  132OSM   H18S14246   2.114   4.242   8.270 -0.3710 -0.3758  0.6774
  132OSM   H18T14247   2.281   4.314   8.269 -0.4117 -0.6405  1.3140
  132OSM   H18U14248   2.254   4.148   8.332 -0.8073  0.3570  1.7893
  132OSM    C1F14249   2.717   4.302   6.544  0.0039 -0.2606 -0.0187
  132OSM     OF14250   2.726   4.414   6.494  0.3648  0.3960  0.6254
  132OSM    C2F14251   2.827   4.230   6.599 -0.4720 -0.0671 -0.5737
  132OSM    H2F14252   2.894   4.303   6.648 -1.2287 -0.7234  1.5364
  132OSM    H2G14253   2.881   4.188   6.511 -1.0458 -2.5785  0.1892
  132OSM    C3F14254   2.792   4.105   6.688  0.6184  0.0783  0.0597
  132OSM    H3F14255   2.889   4.052   6.698  0.4653 -0.2184  0.0054
  132OSM    H3G14256   2.730   4.028   6.637 -0.9618  1.5050 -0.2528
  132OSM    C4F14257   2.736   4.123   6.825 -0.3738  0.3338  0.0717
  132OSM    H4F14258   2.643   4.184   6.825  0.0203  0.9657 -1.2474
  132OSM    H4G14259   2.809   4.197   6.864  1.6522 -1.5078 -0.0542
  132OSM    C5F14260   2.712   3.996   6.910  0.1580 -0.6958 -0.5056
  132OSM    H5F14261   2.809   3.953   6.940  0.6603 -0.3816 -1.6186
  132OSM    H5G14262   2.666   3.920   6.843 -0.9843  0.1565 -0.7396
  132OSM    C6F14263   2.633   4.020   7.038  0.6398  0.1224  0.3834
  132OSM    H6F14264   2.535   4.053   6.996  1.1611 -0.3117 -1.2288
  132OSM    H6G14265   2.666   4.112   7.092  0.5028  0.2733  0.2107
  132OSM    C7F14266   2.618   3.897   7.128  0.8647  0.1446  0.4613
  132OSM    H7F14267   2.610   3.815   7.054  0.7080  1.0980 -0.6095
  132OSM    H7G14268   2.527   3.909   7.191 -0.0784 -1.2258 -0.5932
  132OSM    C8F14269   2.735   3.878   7.227  0.1869  0.0529  0.5762
  132OSM    H8F14270   2.824   3.857   7.164  1.4063  3.1090  1.1303
  132OSM    H8G14271   2.710   3.778   7.270  1.1464  0.2766  1.6943
  132OSM    C9F14272   2.762   3.980   7.333 -0.3742  0.3581 -0.3906
  132OSM    H9F14273   2.853   4.038   7.313  1.4491 -2.5160 -1.1196
  132OSM   C10F14274   2.692   4.006   7.450 -0.0828  0.0723  0.3063
  132OSM   H10F14275   2.725   4.084   7.520 -2.0007  0.4812  0.7938
  132OSM   C11F14276   2.565   3.937   7.499  0.0723 -0.2559  0.8637
  132OSM   H11F14277   2.566   3.833   7.458  2.9799  0.2640 -0.6309
  132OSM   H11G14278   2.469   3.989   7.476  1.7119  1.6994 -2.2202
  132OSM   C12F14279   2.575   3.911   7.649 -0.5309 -0.1151  0.2339
  132OSM   H12F14280   2.491   3.845   7.681 -1.7136  0.6297 -1.2154
  132OSM   H12G14281   2.579   3.998   7.718  2.7454  0.4197 -0.4707
  132OSM   C13F14282   2.703   3.836   7.683 -0.1318 -0.4201 -1.0667
  132OSM   H13F14283   2.789   3.906   7.690 -0.4127 -0.1336 -0.3862
  132OSM   H13G14284   2.725   3.772   7.595  0.2058 -0.8757 -0.6530
  132OSM   C14F14285   2.693   3.759   7.820  0.0767 -0.3068 -0.5887
  132OSM   H14F14286   2.612   3.683   7.814 -2.0759  1.7690  0.2678
  132OSM   H14G14287   2.659   3.831   7.897  0.4715 -1.0554  0.2999
  132OSM   C15F14288   2.820   3.689   7.856  0.0463 -0.4615  0.6556
  132OSM   H15F14289   2.880   3.769   7.903 -0.2128  0.8454 -1.1241
  132OSM   H15G14290   2.892   3.650   7.781 -0.0828  0.3999  0.0669
  132OSM   C16F14291   2.802   3.590   7.969  0.3333  0.8019  0.3657
  132OSM   H16F14292   2.707   3.540   7.941  0.1127  1.5530 -0.2700
  132OSM   H16G14293   2.800   3.634   8.071 -1.9961  1.0746  0.2620
  132OSM   C17F14294   2.925   3.497   7.979  0.1776  0.0933  0.4632
  132OSM   H17F14295   3.020   3.555   7.991  0.9675 -1.1004  0.2040
  132OSM   H17G14296   2.928   3.454   7.877 -1.5901  1.2114 -0.1138
  132OSM   C18F14297   2.911   3.376   8.080  0.7052 -0.0132  0.0834
  132OSM   H18F14298   2.807   3.376   8.121  0.4281  2.9935 -0.4252
  132OSM   H18G14299   2.980   3.392   8.165  1.1617  0.8833 -0.4404
  132OSM   H18H14300   2.920   3.280   8.024 -0.7584 -0.3890  0.4463
  133SAPE     N14301   0.141   0.516  11.001  0.2340 -0.1957 -0.0839
  133SAPE   HN114302   0.099   0.458  11.077 -0.7021  2.2815  1.3844
  133SAPE   HN214303   0.227   0.563  11.037 -0.1399 -0.4499  1.1964
  133SAPE   HN314304   0.068   0.588  10.993  1.2594  1.0382  1.1781
  133SAPE   C1214305   0.160   0.436  10.876  0.1565 -0.6455  0.2366
  133SAPE  H12A14306   0.078   0.361  10.872 -0.8708  0.4976 -1.0079
  133SAPE  H12B14307   0.255   0.379  10.876  0.5179 -0.0493 -0.4735
  133SAPE   C1114308   0.159   0.536  10.760 -0.4294  0.1079  0.0975
  133SAPE  H11A14309   0.056   0.573  10.743  0.0910  0.1687 -4.2266
  133SAPE  H11B14310   0.184   0.477  10.669  0.0723 -2.2456  1.6670
  133SAPE     P14311   0.396   0.634  10.702 -0.0646 -0.0267  0.1874
  133SAPE   O1314312   0.479   0.754  10.737 -0.0426 -0.0621  0.1228
  133SAPE   O1414313   0.466   0.503  10.732  0.5188 -0.0271 -0.3708
  133SAPE   O1214314   0.254   0.640  10.772  0.3136  0.1987 -0.0145
  133SAPE   O1114315   0.354   0.640  10.549 -0.1136 -0.2388  0.4474
  133SAPE    C114316   0.253   0.727  10.497  0.6016 -0.2449  0.4026
  133SAPE    HA14317   0.155   0.700  10.540 -0.3798  0.8729 -1.0511
  133SAPE    HB14318   0.268   0.831  10.532  0.8102 -0.5654  1.2948
  133SAPE    C214319   0.235   0.732  10.341  0.5022 -0.1360 -0.3210
  133SAPE    HS14320   0.149   0.796  10.311  1.9509  1.8514 -0.4064
  133SAPE   O2114321   0.231   0.596  10.285 -0.2070 -0.3740 -0.5500
  133SAPE   C2114322   0.099   0.562  10.284 -0.4180 -0.2106 -0.8024
  133SAPE   O2214323   0.012   0.619  10.339  0.0518  0.5532 -0.4389
  133SAPE   C2214324   0.082   0.461  10.175 -0.6043  0.1087  0.2449
  133SAPE   H2R14325   0.146   0.375  10.205 -1.1299  0.2369  1.8618
  133SAPE   H2S14326  -0.026   0.440  10.169 -0.6011  0.2825 -0.4597
  133SAPE    C314327   0.360   0.793  10.282  0.2458 -0.4784 -0.3176
  133SAPE    HX14328   0.444   0.734  10.324  2.0135  1.8579 -0.3887
  133SAPE    HY14329   0.378   0.895  10.323  4.2401 -0.8839 -0.7387
  133SAPE   O3114330   0.352   0.793  10.140 -0.7810 -0.0086 -0.3709
  133SAPE   C3114331   0.277   0.878  10.078  0.3854 -0.2966 -0.7969
  133SAPE   O3214332   0.208   0.967  10.130 -0.1256 -0.6780  0.6856
  133SAPE   C3214333   0.280   0.841   9.925  0.1531 -0.3472  0.5794
  133SAPE   H2X14334   0.225   0.745   9.919 -2.4245  1.0837 -0.5848
  133SAPE   H2Y14335   0.386   0.840   9.893 -0.2351  0.8033 -0.8302
  133SAPE   C2314336   0.122   0.520  10.040  0.1201 -0.4308  0.5462
  133SAPE   H3R14337   0.233   0.516  10.039  0.1156 -2.3899 -1.5211
  133SAPE   H3S14338   0.086   0.625  10.037  0.7147 -0.2118  0.7608
  133SAPE   C2414339   0.059   0.441   9.920  0.2611 -0.2709 -0.0342
  133SAPE   H4R14340   0.073   0.499   9.827 -2.3939  0.0665 -0.3004
  133SAPE   H4S14341  -0.048   0.427   9.946  0.1218  2.7675  1.5920
  133SAPE   C2514342   0.124   0.301   9.903 -0.2312 -0.1427 -0.5297
  133SAPE   H5R14343   0.163   0.256   9.996 -0.0217 -1.2603 -1.1439
  133SAPE   C2614344   0.162   0.239   9.787 -0.1255 -0.1883 -0.0997
  133SAPE   H6R14345   0.220   0.146   9.784  1.2442  0.6072  0.6632
  133SAPE   C2714346   0.140   0.303   9.650  0.4638  0.5308 -0.5001
  133SAPE   H7R14347   0.235   0.355   9.626  0.2917  0.9940 -0.1891
  133SAPE   H7S14348   0.066   0.385   9.656  1.0251  1.0203 -0.1741
  133SAPE   C2814349   0.086   0.206   9.535 -0.4873  0.1789  0.5467
  133SAPE   H8R14350   0.027   0.118   9.566 -0.8248  0.5089  0.8449
  133SAPE   C2914351   0.094   0.226   9.401 -0.4300  0.2690  0.2691
  133SAPE   H9R14352   0.046   0.153   9.334  1.6389  0.4262 -1.4841
  133SAPE  C21014353   0.163   0.339   9.332  0.3584 -0.0508  0.5904
  133SAPE  H10R14354   0.254   0.297   9.283 -0.4392 -0.9792 -0.1198
  133SAPE  H10S14355   0.185   0.416   9.409 -1.5633  2.1222 -0.9057
  133SAPE  C21114356   0.079   0.390   9.222 -0.3388 -0.1654  0.2583
  133SAPE  H11R14357  -0.006   0.445   9.266 -0.6672 -0.3336 -0.1587
  133SAPE  C21214358   0.089   0.384   9.087  1.1421  1.1013  0.1978
  133SAPE  H12R14359   0.006   0.418   9.023 -1.1044 -0.4922  2.1411
  133SAPE  C21314360   0.188   0.306   9.010  0.4535 -0.7507  0.0950
  133SAPE  H13R14361   0.133   0.222   8.962  1.5397 -1.5002  0.1191
  133SAPE  H13S14362   0.259   0.260   9.083  0.2111  0.2957  1.0282
  133SAPE  C21414363   0.259   0.396   8.915 -0.6561  0.1898 -0.4124
  133SAPE  H14R14364   0.277   0.498   8.954  1.8253 -1.3960  3.1200
  133SAPE  C21514365   0.312   0.365   8.797 -0.5365  0.2198 -0.6403
  133SAPE  H15R14366   0.364   0.438   8.733 -0.0809 -0.2809 -0.8510
  133SAPE  C21614367   0.310   0.223   8.743 -0.3891  0.5980  0.0405
  133SAPE  H16R14368   0.223   0.199   8.679 -0.0137  0.2985 -0.3701
  133SAPE  H16S14369   0.307   0.147   8.825 -1.1382 -0.6800 -1.1303
  133SAPE  C21714370   0.430   0.201   8.649 -0.4438  0.2389 -0.4599
  133SAPE  H17R14371   0.453   0.093   8.631  0.1654  0.0502  1.2582
  133SAPE  H17S14372   0.527   0.245   8.682 -0.4636  0.2617 -0.4324
  133SAPE  C21814373   0.392   0.245   8.506 -0.7289 -0.7733 -0.2212
  133SAPE  H18R14374   0.362   0.352   8.511 -0.5783 -0.4115 -4.0346
  133SAPE  H18S14375   0.306   0.187   8.467 -1.4993 -1.6220  2.4917
  133SAPE  C21914376   0.513   0.245   8.410  0.2962  0.1340  0.0424
  133SAPE  H19R14377   0.469   0.282   8.315  1.8424 -0.6950 -1.0545
  133SAPE  H19S14378   0.556   0.143   8.396 -0.4637 -0.5086  2.0147
  133SAPE  C22014379   0.612   0.361   8.438 -0.4557  0.3046  0.3907
  133SAPE  H20R14380   0.663   0.372   8.536 -1.1383 -0.9951  0.9108
  133SAPE  H20S14381   0.559   0.453   8.406 -3.2944 -1.2339  0.2944
  133SAPE  H20T14382   0.699   0.335   8.374 -0.9999 -2.0080  0.4904
  133SAPE   C3314383   0.205   0.950   9.843  0.2286  0.3952 -0.5620
  133SAPE   H3X14384   0.237   1.044   9.894  0.8573 -0.5617  0.9129
  133SAPE   H3Y14385   0.096   0.950   9.861  0.5225  1.0430  1.5658
  133SAPE   C3414386   0.216   0.919   9.695 -1.1298  0.3260  0.0524
  133SAPE   H4X14387   0.183   0.818   9.664 -2.7220  1.2978 -1.6340
  133SAPE   H4Y14388   0.325   0.922   9.672 -0.8693 -0.1398  1.1501
  133SAPE   C3514389   0.141   1.021   9.601 -1.0794  0.5078 -0.2605
  133SAPE   H5X14390   0.207   1.107   9.578  0.2470 -0.6784 -1.0092
  133SAPE   H5Y14391   0.052   1.066   9.649  0.4181  2.6936  0.6463
  133SAPE   C3614392   0.116   0.960   9.465  0.9354 -0.2607  0.0472
  133SAPE   H6X14393   0.050   0.870   9.460  2.9969 -1.9318  1.1708
  133SAPE   H6Y14394   0.214   0.933   9.419  0.4369 -0.5950 -0.8437
  133SAPE   C3714395   0.061   1.062   9.357  0.1151  0.9228  0.3313
  133SAPE   H7X14396   0.019   1.002   9.273  0.9192 -2.5893  2.2251
  133SAPE   H7Y14397   0.149   1.122   9.327  1.6185 -0.5648  1.5489
  133SAPE   C3814398  -0.055   1.157   9.403 -0.4719 -0.3975 -0.4518
  133SAPE   H8X14399  -0.012   1.221   9.483 -1.3805 -1.6783  1.1180
  133SAPE   H8Y14400  -0.144   1.116   9.455  0.3825  0.6431  1.9635
  133SAPE   C3914401  -0.103   1.230   9.276  0.1447 -0.0336  0.2019
  133SAPE   H9X14402  -0.186   1.300   9.298  0.2631  0.5395 -1.0833
  133SAPE   H9Y14403  -0.145   1.155   9.205 -0.3018  0.0634  0.3594
  133SAPE  C31014404   0.005   1.320   9.217  0.7202  0.1710 -0.2112
  133SAPE  H10X14405   0.105   1.299   9.261  1.2028  0.3295 -1.1950
  133SAPE  H10Y14406   0.001   1.425   9.255  2.1783  1.1136 -2.4123
  133SAPE  C31114407  -0.007   1.330   9.062  0.4201  0.1906 -0.5229
  133SAPE  H11X14408   0.062   1.414   9.036 -0.1099  0.7705 -0.0840
  133SAPE  H11Y14409  -0.113   1.356   9.042  0.4191  0.2825 -0.3963
  133SAPE  C31214410   0.037   1.196   8.994 -0.5405  0.2691  0.0367
  133SAPE  H12X14411  -0.042   1.120   9.011  1.2030 -2.1725 -2.1079
  133SAPE  H12Y14412   0.119   1.157   9.058  0.5327  1.5820 -0.4774
  133SAPE  C31314413   0.095   1.199   8.852 -0.4733 -0.7631 -0.2425
  133SAPE  H13X14414   0.127   1.098   8.819  1.5376 -0.0108 -0.7306
  133SAPE  H13Y14415   0.188   1.260   8.853 -0.3712 -0.8969  1.6529
  133SAPE  C31414416  -0.003   1.260   8.746 -0.2166 -0.1539 -0.2195
  133SAPE  H14X14417   0.043   1.264   8.646 -0.4601  1.3701 -0.3025
  133SAPE  H14Y14418  -0.027   1.363   8.782  0.8979 -0.3504  1.1597
  133SAPE  C31514419  -0.143   1.180   8.736 -0.7832  0.4886 -0.3269
  133SAPE  H15X14420  -0.195   1.215   8.828 -1.3576  3.1873 -1.5621
  133SAPE  H15Y14421  -0.124   1.071   8.745 -0.1514  0.5034 -1.3767
  133SAPE  C31614422  -0.213   1.198   8.605 -0.2816 -0.5423  0.1277
  133SAPE  H16X14423  -0.133   1.222   8.532  0.2700 -0.4221  0.7621
  133SAPE  H16Y14424  -0.276   1.290   8.605 -0.7924 -0.8454  2.1198
  133SAPE  C31714425  -0.293   1.079   8.561 -0.2112  1.1873  0.1801
  133SAPE  H17X14426  -0.374   1.053   8.632 -2.2786 -1.0589 -2.7244
  133SAPE  H17Y14427  -0.224   0.994   8.549 -1.4163 -0.0951  1.8525
  133SAPE  C31814428  -0.373   1.101   8.428  0.6401  0.1257 -0.2249
  133SAPE  H18X14429  -0.445   1.185   8.438  1.8298  1.3163 -1.2336
  133SAPE  H18Y14430  -0.426   1.005   8.409  0.8155  0.1484 -0.8357
  133SAPE  H18Z14431  -0.303   1.121   8.345 -0.2252  0.5738 -0.8558
  134SAPE     N14432   0.830   0.185  10.843 -0.3405  0.0489 -0.3000
  134SAPE   HN114433   0.736   0.199  10.885 -0.9211 -4.0371  0.2175
  134SAPE   HN214434   0.889   0.127  10.906 -1.1046 -0.5130 -0.0845
  134SAPE   HN314435   0.883   0.274  10.830 -1.9729  1.3523  1.3746
  134SAPE   C1214436   0.818   0.123  10.703  0.3749  0.5126 -0.6659
  134SAPE  H12A14437   0.749   0.187  10.645 -1.9986  0.0740  1.4696
  134SAPE  H12B14438   0.757   0.031  10.719 -0.0257  0.6735 -1.2447
  134SAPE   C1114439   0.956   0.097  10.650  0.3295 -0.2794  0.0702
  134SAPE  H11A14440   0.946   0.041  10.555  1.2459  1.7609 -1.2969
  134SAPE  H11B14441   1.017   0.028  10.713  0.1839 -1.5892 -1.1672
  134SAPE     P14442   1.164   0.249  10.581  0.7057  0.0059 -0.1085
  134SAPE   O1314443   1.183   0.390  10.574  0.0369 -0.5294 -0.2210
  134SAPE   O1414444   1.257   0.170  10.659  0.8713  0.1892 -0.3455
  134SAPE   O1214445   1.016   0.226  10.623 -0.4838  0.3559 -0.5750
  134SAPE   O1114446   1.172   0.200  10.432 -0.3749 -0.4291 -0.3288
  134SAPE    C114447   1.050   0.208  10.350 -0.0740  0.1935  1.0237
  134SAPE    HA14448   1.021   0.108  10.309 -0.0027  0.7780 -0.5383
  134SAPE    HB14449   0.960   0.253  10.395  0.0249  0.5512  0.8664
  134SAPE    C214450   1.084   0.301  10.226 -0.1843  0.2880  0.3657
  134SAPE    HS14451   1.160   0.250  10.163  0.0066 -0.4068  1.1350
  134SAPE   O2114452   1.123   0.434  10.276 -0.2129 -0.0487  0.1761
  134SAPE   C2114453   1.252   0.466  10.280  0.3585  0.2988  0.0158
  134SAPE   O2214454   1.343   0.400  10.232 -0.5971 -0.5529 -0.0600
  134SAPE   C2214455   1.271   0.613  10.330  0.1964  0.7635 -0.3698
  134SAPE   H2R14456   1.175   0.665  10.311 -0.1034  0.1811 -0.4753
  134SAPE   H2S14457   1.283   0.587  10.438  0.4363  0.1540 -0.5382
  134SAPE    C314458   0.963   0.326  10.139  0.0254 -0.3608  0.1070
  134SAPE    HX14459   0.891   0.380  10.204  1.8764  0.1010  1.9024
  134SAPE    HY14460   0.913   0.231  10.112  3.0586 -1.9488 -0.3344
  134SAPE   O3114461   0.997   0.413  10.026 -0.7979 -0.4108 -0.5187
  134SAPE   C3114462   0.963   0.358   9.911 -0.8355 -0.0981  0.1486
  134SAPE   O3214463   0.926   0.244   9.894  0.2689 -0.1433  0.1385
  134SAPE   C3214464   0.997   0.456   9.796  0.2497  0.3376 -0.1898
  134SAPE   H2X14465   1.107   0.475   9.799  0.1153  1.0330  0.6078
  134SAPE   H2Y14466   0.943   0.550   9.818  1.3534  0.8905  0.2498
  134SAPE   C2314467   1.397   0.674  10.275  0.1274  0.1965  0.0349
  134SAPE   H3R14468   1.482   0.603  10.276 -0.4589 -0.5169  0.2296
  134SAPE   H3S14469   1.426   0.757  10.343  0.5515  0.0799 -0.0044
  134SAPE   C2414470   1.379   0.724  10.128  0.0607 -0.1625  0.3524
  134SAPE   H4R14471   1.314   0.661  10.064  1.5192 -2.6566  1.2022
  134SAPE   H4S14472   1.482   0.715  10.088  0.8341  1.7143  1.7489
  134SAPE   C2514473   1.325   0.867  10.123 -0.4550 -0.2153  0.2698
  134SAPE   H5R14474   1.374   0.934  10.195  1.0566  0.6027 -1.4412
  134SAPE   C2614475   1.218   0.923  10.055 -0.9815 -0.4741  0.7975
  134SAPE   H6R14476   1.195   1.028  10.079 -2.3192 -1.2654  3.3204
  134SAPE   C2714477   1.137   0.856   9.946  0.1732  0.5359  0.6380
  134SAPE   H7R14478   1.157   0.747   9.936 -2.2774 -0.0090  0.9866
  134SAPE   H7S14479   1.178   0.892   9.849  0.1951 -0.1009  0.4061
  134SAPE   C2814480   0.988   0.883   9.957  0.0334  0.0904 -0.1206
  134SAPE   H8R14481   0.952   0.894  10.060 -1.3652  0.1015 -0.5897
  134SAPE   C2914482   0.902   0.873   9.854  0.3144  0.2493  0.1089
  134SAPE   H9R14483   0.796   0.893   9.874  0.0206 -0.1916 -0.9001
  134SAPE  C21014484   0.934   0.839   9.708  0.0634 -0.5902  0.5635
  134SAPE  H10R14485   0.899   0.740   9.671  0.1765 -1.0887  1.7457
  134SAPE  H10S14486   1.044   0.842   9.693  0.0452  2.5304  0.3706
  134SAPE  C21114487   0.877   0.942   9.623  0.2919  0.3858 -0.3330
  134SAPE  H11R14488   0.818   1.015   9.680  1.4924  0.6726  0.5873
  134SAPE  C21214489   0.891   0.958   9.491  0.5829 -0.3319  0.3049
  134SAPE  H12R14490   0.833   1.043   9.451 -0.6073  0.0209  2.6087
  134SAPE  C21314491   0.974   0.878   9.397 -0.3009  0.1955 -0.1532
  134SAPE  H13R14492   0.914   0.796   9.353 -1.5026  1.5142 -1.0590
  134SAPE  H13S14493   1.047   0.814   9.451  0.0176  1.6690  1.2631
  134SAPE  C21414494   1.047   0.960   9.294  1.0832 -0.2152 -0.8018
  134SAPE  H14R14495   1.140   1.002   9.336  0.5467 -0.3361  0.5725
  134SAPE  C21514496   1.003   0.976   9.168 -0.4140 -0.1814 -0.1070
  134SAPE  H15R14497   1.052   1.042   9.096  0.6830  0.4504  1.1686
  134SAPE  C21614498   0.875   0.903   9.121  0.0762  0.5283  0.1171
  134SAPE  H16R14499   0.807   0.982   9.084 -0.6063 -0.9095 -1.8520
  134SAPE  H16S14500   0.813   0.845   9.193 -0.0531 -0.3436 -0.6808
  134SAPE  C21714501   0.891   0.807   9.001  0.7289  0.6408 -0.1275
  134SAPE  H17R14502   0.950   0.716   9.028 -1.9501 -1.2399 -0.1666
  134SAPE  H17S14503   0.942   0.850   8.912  1.4873  0.9760  0.4557
  134SAPE  C21814504   0.757   0.760   8.952 -0.5045 -0.0737 -0.5559
  134SAPE  H18R14505   0.707   0.855   8.925 -0.3090  0.9587  2.3692
  134SAPE  H18S14506   0.702   0.711   9.035  1.0844 -2.1242 -0.6231
  134SAPE  C21914507   0.763   0.653   8.838  0.9554 -0.0597  0.3225
  134SAPE  H19R14508   0.843   0.583   8.873  1.6460  1.0580  1.0268
  134SAPE  H19S14509   0.798   0.687   8.738 -1.3366 -0.4805 -0.6813
  134SAPE  C22014510   0.622   0.597   8.827  1.2844 -0.0991  0.0707
  134SAPE  H20R14511   0.610   0.529   8.740 -1.6823  0.0116  0.2996
  134SAPE  H20S14512   0.543   0.675   8.819 -0.2728 -1.6069  0.2861
  134SAPE  H20T14513   0.599   0.538   8.917 -1.6430  0.8931  0.0567
  134SAPE   C3314514   0.937   0.403   9.663  0.2624 -0.9699  0.6151
  134SAPE   H3X14515   0.829   0.428   9.655  0.2566 -1.1979 -0.0661
  134SAPE   H3Y14516   0.943   0.293   9.645  0.2143 -0.8778  0.0177
  134SAPE   C3414517   1.003   0.468   9.541 -0.0711  0.2840 -0.1859
  134SAPE   H4X14518   1.113   0.455   9.534  0.1300  2.6384 -3.4541
  134SAPE   H4Y14519   0.988   0.578   9.548 -1.1059  0.0442  2.1755
  134SAPE   C3514520   0.932   0.423   9.403 -0.3214  0.0278 -0.5190
  134SAPE   H5X14521   0.828   0.460   9.391 -0.1283  0.8655  0.3176
  134SAPE   H5Y14522   0.932   0.314   9.381 -1.4200 -0.4124  1.4369
  134SAPE   C3614523   1.015   0.473   9.278 -0.3645 -0.4435  0.9031
  134SAPE   H6X14524   1.121   0.442   9.279 -0.4098 -0.8397 -1.5798
  134SAPE   H6Y14525   1.027   0.583   9.284  1.1709 -0.4661 -0.8466
  134SAPE   C3714526   0.952   0.436   9.144 -0.1639 -0.2097  0.6757
  134SAPE   H7X14527   1.008   0.487   9.062  1.2734 -2.3037  0.2851
  134SAPE   H7Y14528   0.844   0.461   9.147 -0.2326 -0.0535 -1.4043
  134SAPE   C3814529   0.933   0.291   9.118 -0.0497  0.3758  0.6409
  134SAPE   H8X14530   0.864   0.245   9.192 -1.6816 -1.5349 -1.9024
  134SAPE   H8Y14531   1.029   0.236   9.129 -0.9498 -1.2911  0.4909
  134SAPE   C3914532   0.871   0.271   8.980  0.0002  0.3379  0.3330
  134SAPE   H9X14533   0.781   0.335   8.981  0.2883  0.7612  1.3611
  134SAPE   H9Y14534   0.841   0.164   8.984 -0.0703  0.3788  2.9148
  134SAPE  C31014535   0.959   0.298   8.851  0.3791 -0.4662 -0.0379
  134SAPE  H10X14536   1.005   0.398   8.863 -1.7196  0.2775  2.8137
  134SAPE  H10Y14537   0.893   0.306   8.762 -0.1047 -0.3181  0.3289
  134SAPE  C31114538   1.078   0.197   8.827 -0.3536  0.5510  0.4004
  134SAPE  H11X14539   1.039   0.098   8.796  0.6411 -0.1197  1.2425
  134SAPE  H11Y14540   1.128   0.175   8.924  1.0707  0.4138 -0.3364
  134SAPE  C31214541   1.185   0.244   8.732  0.2346 -0.1063  0.5158
  134SAPE  H12X14542   1.260   0.162   8.733  0.7705  0.3800  1.6120
  134SAPE  H12Y14543   1.238   0.338   8.756 -0.3606 -0.4779  3.6118
  134SAPE  C31314544   1.132   0.250   8.588 -0.0086  0.1741 -0.2126
  134SAPE  H13X14545   1.045   0.319   8.579 -0.8878 -1.0451 -1.6358
  134SAPE  H13Y14546   1.095   0.148   8.563 -0.2707 -0.0983  1.2022
  134SAPE  C31414547   1.224   0.298   8.481 -0.4430  1.1446 -0.0037
  134SAPE  H14X14548   1.320   0.243   8.481 -1.5975 -0.9930 -0.5192
  134SAPE  H14Y14549   1.264   0.399   8.506  0.4689  1.0082 -0.8386
  134SAPE  C31514550   1.164   0.307   8.343  0.2887  0.0791 -0.0436
  134SAPE  H15X14551   1.204   0.383   8.272 -0.1190 -2.2266 -2.9541
  134SAPE  H15Y14552   1.058   0.338   8.353  0.3581  0.1980  0.3311
  134SAPE  C31614553   1.177   0.170   8.262 -0.3309 -0.0719 -0.5825
  134SAPE  H16X14554   1.146   0.089   8.332 -1.8431  1.8128  1.1001
  134SAPE  H16Y14555   1.284   0.160   8.236  0.7666  0.9298  2.9201
  134SAPE  C31714556   1.095   0.175   8.128 -0.2342  0.4936  0.0776
  134SAPE  H17X14557   1.146   0.265   8.087 -1.6457  2.0750  1.5763
  134SAPE  H17Y14558   0.987   0.195   8.146 -0.3508  1.0134 -1.1452
  134SAPE  C31814559   1.125   0.060   8.035 -0.1140 -0.0074 -0.1908
  134SAPE  H18X14560   1.088   0.083   7.933 -0.9531 -0.3040  0.0397
  134SAPE  H18Y14561   1.102  -0.047   8.053  1.8192 -0.0086  2.9752
  134SAPE  H18Z14562   1.235   0.044   8.037 -0.2914 -1.7201 -1.3095
  135SAPE     N14563   1.205   6.631  10.248 -0.0902  0.2620  0.1355
  135SAPE   HN114564   1.129   6.676  10.193  1.0867  1.5417 -0.4899
  135SAPE   HN214565   1.288   6.621  10.186 -1.6847  0.7050 -2.1951
  135SAPE   HN314566   1.181   6.534  10.275  1.9829 -0.3863 -0.1921
  135SAPE   C1214567   1.224   6.715  10.377  0.3446 -0.9996  0.0810
  135SAPE  H12A14568   1.176   6.813  10.356 -1.8996 -0.6686  5.2438
  135SAPE  H12B14569   1.333   6.731  10.393 -0.0038 -1.0054  3.0855
  135SAPE   C1114570   1.157   6.666  10.503  0.4753  0.2565  0.8102
  135SAPE  H11A14571   1.148   6.751  10.573 -1.6312  0.2443  0.5910
  135SAPE  H11B14572   1.212   6.577  10.543 -0.9662 -1.3337 -0.5886
  135SAPE     P14573   0.943   6.545  10.575  0.3336 -0.3888 -0.3506
  135SAPE   O1314574   1.021   6.422  10.587  0.5980 -0.1035 -0.5755
  135SAPE   O1414575   0.907   6.624  10.696  0.0094 -0.3845  0.2181
  135SAPE   O1214576   1.019   6.637  10.472 -0.0081  0.1005 -0.4379
  135SAPE   O1114577   0.811   6.515  10.496 -0.6860  0.7616  0.3000
  135SAPE    C114578   0.737   6.627  10.445 -0.0643  0.2917 -0.7980
  135SAPE    HA14579   0.630   6.599  10.452 -0.5324  1.9068 -1.0761
  135SAPE    HB14580   0.747   6.721  10.503 -0.0426 -1.0845  1.5666
  135SAPE    C214581   0.776   6.632  10.291  0.1324  0.0793  0.3483
  135SAPE    HS14582   0.862   6.702  10.289 -1.8540  2.6996 -1.7630
  135SAPE   O2114583   0.668   6.701  10.227  0.2337 -0.1687  0.2755
  135SAPE   C2114584   0.664   6.832  10.240  0.3092 -0.4008 -0.0687
  135SAPE   O2214585   0.740   6.901  10.304  0.0445  0.5187 -0.4825
  135SAPE   C2214586   0.557   6.889  10.163  0.0036  0.1277 -0.2285
  135SAPE   H2R14587   0.473   6.820  10.139 -1.2133  0.9502  1.4376
  135SAPE   H2S14588   0.516   6.969  10.228 -1.1641  1.0922 -2.0508
  135SAPE    C314589   0.821   6.497  10.232 -0.1315 -0.0962  0.5767
  135SAPE    HX14590   0.752   6.415  10.262  1.3039 -1.0922  1.2907
  135SAPE    HY14591   0.917   6.460  10.274 -0.2656 -0.0032  0.9694
  135SAPE   O3114592   0.821   6.492  10.085  0.0250 -0.5054  0.5758
  135SAPE   C3114593   0.907   6.568  10.028  0.0903 -0.0316  0.2642
  135SAPE   O3214594   0.982   6.644  10.082 -0.8682 -0.2858 -0.7611
  135SAPE   C3214595   0.913   6.530   9.878  0.0807 -0.1736  0.2692
  135SAPE   H2X14596   0.808   6.538   9.845  0.1577 -1.1866 -0.2508
  135SAPE   H2Y14597   0.950   6.425   9.884 -0.0671 -0.1509  3.4021
  135SAPE   C2314598   0.602   6.956  10.034  0.6384  1.1821  0.0434
  135SAPE   H3R14599   0.696   7.007  10.066  0.0130  1.6485  1.2075
  135SAPE   H3S14600   0.519   7.017   9.994 -1.4559 -1.7938 -0.4646
  135SAPE   C2414601   0.642   6.859   9.908 -0.1368  0.3911 -1.1895
  135SAPE   H4R14602   0.710   6.783   9.952 -2.3523 -2.1067 -1.8757
  135SAPE   H4S14603   0.699   6.929   9.842 -0.5482 -0.2269 -2.2143
  135SAPE   C2514604   0.534   6.785   9.840  0.7628  0.5081 -0.0359
  135SAPE   H5R14605   0.496   6.695   9.890  2.0437  0.3015  0.6087
  135SAPE   C2614606   0.472   6.821   9.727  0.6637 -0.3205 -0.4843
  135SAPE   H6R14607   0.398   6.747   9.692 -0.5564  0.4681  0.3439
  135SAPE   C2714608   0.499   6.943   9.644  0.8841  0.3578 -0.3556
  135SAPE   H7R14609   0.538   7.025   9.709  1.1706  0.8216 -1.0916
  135SAPE   H7S14610   0.408   6.980   9.592  0.4437 -2.7642 -2.0265
  135SAPE   C2814611   0.602   6.895   9.544 -0.5304 -0.4288  0.7867
  135SAPE   H8R14612   0.693   6.856   9.591 -1.5355 -2.0810  1.4695
  135SAPE   C2914613   0.603   6.923   9.412 -0.8355 -0.4321 -0.3777
  135SAPE   H9R14614   0.685   6.882   9.352  0.5821  0.9874  0.5241
  135SAPE  C21014615   0.487   6.989   9.342 -0.6521 -0.0709 -0.3785
  135SAPE  H10R14616   0.416   7.052   9.401 -0.1574  0.5495 -0.4358
  135SAPE  H10S14617   0.417   6.910   9.306  0.2560 -0.9868 -0.1716
  135SAPE  C21114618   0.528   7.081   9.228 -0.0482  0.2385  0.6070
  135SAPE  H11R14619   0.527   7.190   9.243  1.4162  0.2857  0.4720
  135SAPE  C21214620   0.560   7.040   9.102 -0.1636  0.1690  0.0178
  135SAPE  H12R14621   0.603   7.118   9.036 -1.0878  0.1718 -0.6165
  135SAPE  C21314622   0.561   6.896   9.059  1.0753  0.1362  0.1436
  135SAPE  H13R14623   0.514   6.891   8.959  0.2926  0.2362  0.4975
  135SAPE  H13S14624   0.498   6.829   9.122 -1.1630 -0.3676 -2.4349
  135SAPE  C21414625   0.698   6.834   9.051 -0.4060 -0.1673 -0.4966
  135SAPE  H14R14626   0.755   6.843   9.144 -0.9686 -1.2143 -0.0359
  135SAPE  C21514627   0.742   6.752   8.961  0.3863  0.3175  1.1422
  135SAPE  H15R14628   0.847   6.718   8.958  0.0891 -0.5854  0.3837
  135SAPE  C21614629   0.668   6.702   8.833 -0.0048  0.5248  0.2727
  135SAPE  H16R14630   0.559   6.697   8.852 -0.5126  0.8113 -2.2134
  135SAPE  H16S14631   0.705   6.602   8.801 -1.0233  0.4125 -0.5941
  135SAPE  C21714632   0.670   6.798   8.716  0.2213 -0.0748 -0.2595
  135SAPE  H17R14633   0.662   6.905   8.742  0.2489 -0.1117 -0.0988
  135SAPE  H17S14634   0.583   6.769   8.654  0.5411 -3.3284  0.6263
  135SAPE  C21814635   0.779   6.773   8.611  0.3225 -0.5626 -0.0286
  135SAPE  H18R14636   0.763   6.671   8.572 -1.5917 -1.6139  3.1769
  135SAPE  H18S14637   0.877   6.771   8.664  0.4424 -2.7205 -0.2529
  135SAPE  C21914638   0.782   6.880   8.506  0.2636 -0.3255 -0.1539
  135SAPE  H19R14639   0.785   6.979   8.558 -0.7906 -0.5516  0.3639
  135SAPE  H19S14640   0.686   6.881   8.449  0.8512 -0.0353 -1.1510
  135SAPE  C22014641   0.906   6.877   8.417 -0.2460 -0.3771 -0.3814
  135SAPE  H20R14642   0.881   6.829   8.320 -0.1351 -0.2916 -0.4526
  135SAPE  H20S14643   0.990   6.823   8.468 -1.3746 -0.9443  0.9581
  135SAPE  H20T14644   0.944   6.980   8.399  1.0318 -0.8417 -0.4615
  135SAPE   C3314645   0.990   6.622   9.775  0.1220 -0.0203 -0.3220
  135SAPE   H3X14646   1.098   6.605   9.794 -0.4711 -1.2130  2.6625
  135SAPE   H3Y14647   0.968   6.728   9.798 -1.4310 -0.7853  2.2359
  135SAPE   C3414648   0.940   6.602   9.634  0.3191  0.0546  0.5979
  135SAPE   H4X14649   0.831   6.621   9.627  0.1093 -1.1137  0.6139
  135SAPE   H4Y14650   0.966   6.496   9.616  0.7578  0.6213 -2.8025
  135SAPE   C3514651   1.022   6.685   9.540  0.3261 -0.0590  0.3542
  135SAPE   H5X14652   1.128   6.664   9.568 -0.1758 -2.1794  0.9034
  135SAPE   H5Y14653   0.990   6.790   9.554 -3.3310 -0.8209 -1.0635
  135SAPE   C3614654   0.986   6.644   9.391 -0.3964 -0.0962 -0.2181
  135SAPE   H6X14655   0.877   6.637   9.372 -1.1084 -2.8375  3.6617
  135SAPE   H6Y14656   1.010   6.536   9.390 -2.5602 -0.6153 -1.1438
  135SAPE   C3714657   1.066   6.695   9.276 -0.0621  0.1142 -0.0331
  135SAPE   H7X14658   1.170   6.708   9.312 -0.4835 -1.1980  1.7658
  135SAPE   H7Y14659   1.026   6.791   9.236 -1.8344 -0.3306  0.5582
  135SAPE   C3814660   1.062   6.592   9.169  0.2769  0.7387  0.3279
  135SAPE   H8X14661   0.955   6.578   9.144  0.4717 -2.0128  0.6752
  135SAPE   H8Y14662   1.094   6.488   9.193 -0.2827  0.1758 -1.2124
  135SAPE   C3914663   1.126   6.635   9.036 -0.0985  0.8950  0.1023
  135SAPE   H9X14664   1.237   6.634   9.047 -0.0756  0.1928 -0.1205
  135SAPE   H9Y14665   1.077   6.732   9.016 -1.6441  0.1586  0.1476
  135SAPE  C31014666   1.085   6.537   8.933  0.8521 -0.2168  0.7634
  135SAPE  H10X14667   0.975   6.523   8.943  0.8482  0.7924  2.8636
  135SAPE  H10Y14668   1.117   6.431   8.938 -1.4741 -0.9695  0.7378
  135SAPE  C31114669   1.136   6.582   8.793  0.0131  0.2636  0.2373
  135SAPE  H11X14670   1.119   6.691   8.777  4.0833  1.1043  0.4770
  135SAPE  H11Y14671   1.088   6.521   8.714  1.4517 -2.0458  1.0667
  135SAPE  C31214672   1.288   6.564   8.777 -0.3768  0.4443  0.3140
  135SAPE  H12X14673   1.327   6.464   8.802  1.2758  0.7551 -0.8304
  135SAPE  H12Y14674   1.339   6.630   8.851 -0.2766  1.1512 -0.3688
  135SAPE  C31314675   1.335   6.607   8.638 -0.6244 -0.4188  0.0725
  135SAPE  H13X14676   1.323   6.717   8.640  0.7327 -0.2437  2.4918
  135SAPE  H13Y14677   1.270   6.565   8.559  0.0748  0.8028 -1.1855
  135SAPE  C31414678   1.487   6.576   8.607 -0.0283 -0.7036  0.0725
  135SAPE  H14X14679   1.494   6.465   8.609  0.4018 -0.6779  0.9639
  135SAPE  H14Y14680   1.546   6.620   8.690  0.5620  1.0715 -1.2312
  135SAPE  C31514681   1.531   6.632   8.472  0.4413 -0.4478 -0.0899
  135SAPE  H15X14682   1.467   6.586   8.394  0.2584  0.1268 -0.2858
  135SAPE  H15Y14683   1.634   6.594   8.451  0.8359 -1.3691  2.9812
  135SAPE  C31614684   1.547   6.787   8.468  0.3686 -0.2236 -0.3111
  135SAPE  H16X14685   1.592   6.825   8.562 -0.8706 -1.8170  0.9888
  135SAPE  H16Y14686   1.447   6.835   8.465 -0.7754 -2.1415  2.5940
  135SAPE  C31714687   1.619   6.851   8.345 -0.2073 -0.2372 -0.2124
  135SAPE  H17X14688   1.569   6.820   8.251 -0.2390 -0.4291 -0.1336
  135SAPE  H17Y14689   1.722   6.813   8.359 -0.4077  0.0938  2.7114
  135SAPE  C31814690   1.621   7.000   8.352 -0.7455 -0.2520  0.0497
  135SAPE  H18X14691   1.691   7.052   8.282 -0.0993  1.2855  1.7442
  135SAPE  H18Y14692   1.651   7.041   8.450 -3.3888  1.1176  0.3655
  135SAPE  H18Z14693   1.521   7.045   8.332 -0.6038  0.0259 -0.0505
  136SAPE     N14694   4.775   0.396  11.093  0.6466  1.1539 -0.5779
  136SAPE   HN114695   4.683   0.359  11.124  1.2960  0.2934  0.4051
  136SAPE   HN214696   4.842   0.324  11.128 -0.9695 -0.5003 -0.6832
  136SAPE   HN314697   4.802   0.489  11.131 -0.2725  0.9026  0.7550
  136SAPE   C1214698   4.782   0.419  10.951  0.2326 -0.0052 -0.7285
  136SAPE  H12A14699   4.888   0.418  10.918 -0.2900 -0.1632 -2.5245
  136SAPE  H12B14700   4.736   0.520  10.941  2.3993  1.0706 -0.4344
  136SAPE   C1114701   4.699   0.323  10.869  0.5227  0.5765  0.1606
  136SAPE  H11A14702   4.753   0.228  10.854 -0.7449 -0.3328  1.1116
  136SAPE  H11B14703   4.668   0.370  10.773  0.0065 -0.7129 -0.3226
  136SAPE     P14704   4.468   0.192  10.873  0.1984 -0.0931 -0.1288
  136SAPE   O1314705   4.461   0.067  10.954  0.1504  0.2202 -0.4076
  136SAPE   O1414706   4.340   0.269  10.855 -0.7622 -0.2805 -0.0965
  136SAPE   O1214707   4.582   0.285  10.943  0.6200  0.6155  0.4568
  136SAPE   O1114708   4.524   0.159  10.733 -0.0627 -0.5083 -0.0171
  136SAPE    C114709   4.543   0.026  10.692 -0.1740 -0.0151  0.7880
  136SAPE    HA14710   4.626  -0.020  10.750  0.7717 -0.1830 -0.6286
  136SAPE    HB14711   4.450  -0.035  10.698 -2.0249  1.9358 -3.5016
  136SAPE    C214712   4.583   0.010  10.536 -0.2576 -0.1558 -1.0415
  136SAPE    HS14713   4.665  -0.064  10.544  0.2607  0.6324  3.1926
  136SAPE   O2114714   4.638   0.137  10.493  0.2756 -0.0069 -0.2063
  136SAPE   C2114715   4.765   0.154  10.531  0.2846 -0.6687  0.3599
  136SAPE   O2214716   4.834   0.080  10.601 -0.0477  0.0321 -0.0469
  136SAPE   C2214717   4.817   0.279  10.467 -0.2162 -0.1479  0.0298
  136SAPE   H2R14718   4.737   0.354  10.485 -1.9733 -2.1360  0.9772
  136SAPE   H2S14719   4.912   0.286  10.524  0.0293 -0.0839 -0.3898
  136SAPE    C314720   4.465  -0.049  10.446 -0.0686  0.1016 -0.3066
  136SAPE    HX14721   4.492  -0.051  10.338 -1.2607  1.0351 -0.6282
  136SAPE    HY14722   4.381   0.023  10.442  0.8523  1.2743  0.7889
  136SAPE   O3114723   4.415  -0.175  10.485 -0.3392  0.1002 -0.6238
  136SAPE   C3114724   4.502  -0.281  10.486  0.3072 -0.4857 -0.0788
  136SAPE   O3214725   4.624  -0.276  10.476 -0.1990 -0.4079 -0.6895
  136SAPE   C3214726   4.423  -0.417  10.471  0.1475  0.6669  0.2579
  136SAPE   H2X14727   4.349  -0.406  10.553 -1.8931  0.8720 -1.5285
  136SAPE   H2Y14728   4.487  -0.506  10.492 -0.7186  0.1142  0.5854
  136SAPE   C2314729   4.829   0.272  10.317  0.1249  0.1060 -0.2031
  136SAPE   H3R14730   4.738   0.229  10.272  0.4682 -1.8516  0.8621
  136SAPE   H3S14731   4.919   0.208  10.304  0.6296  0.6038  0.7292
  136SAPE   C2414732   4.842   0.407  10.245  0.2879 -0.0606 -1.5377
  136SAPE   H4R14733   4.754   0.470  10.270 -0.5948 -1.3763 -1.1840
  136SAPE   H4S14734   4.846   0.392  10.135  1.1327  0.4079 -1.5772
  136SAPE   C2514735   4.968   0.485  10.285 -0.1155  0.1094  0.6355
  136SAPE   H5R14736   4.975   0.523  10.387  1.6761  0.7164  0.3137
  136SAPE   C2614737   5.081   0.503  10.217 -0.5248 -0.2642 -0.0332
  136SAPE   H6R14738   5.164   0.553  10.269 -1.7409  0.0288  1.7048
  136SAPE   C2714739   5.116   0.448  10.074 -0.5587 -0.0983 -0.6415
  136SAPE   H7R14740   5.075   0.345  10.071  0.7961 -0.6768  0.2301
  136SAPE   H7S14741   5.226   0.447  10.065 -0.4306  2.2138 -0.0884
  136SAPE   C2814742   5.051   0.538   9.971 -0.4605  0.9830  0.0792
  136SAPE   H8R14743   4.942   0.527   9.980 -0.3171  1.0478  2.1809
  136SAPE   C2914744   5.107   0.611   9.871  0.2846 -0.1697 -0.2263
  136SAPE   H9R14745   5.048   0.662   9.794  0.4641 -2.3205 -1.8813
  136SAPE  C21014746   5.254   0.614   9.853 -0.1721 -0.6057 -0.1379
  136SAPE  H10R14747   5.296   0.531   9.792  2.5945 -0.6442  1.6034
  136SAPE  H10S14748   5.304   0.603   9.952  0.5384  0.4967 -0.3490
  136SAPE  C21114749   5.308   0.742   9.781  0.3296  0.2764  0.3035
  136SAPE  H11R14750   5.341   0.817   9.854  0.8528  0.3977 -0.0519
  136SAPE  C21214751   5.326   0.770   9.648 -0.2311 -0.0111  0.2614
  136SAPE  H12R14752   5.353   0.871   9.614 -3.0865  0.0977 -2.0515
  136SAPE  C21314753   5.282   0.676   9.540  0.5879  0.0122  0.6068
  136SAPE  H13R14754   5.201   0.724   9.479  1.0988 -0.5808 -0.5631
  136SAPE  H13S14755   5.229   0.588   9.582 -0.2750 -0.5648 -1.5229
  136SAPE  C21414756   5.394   0.634   9.450 -0.4158 -0.4150  0.5982
  136SAPE  H14R14757   5.480   0.601   9.510 -0.4102 -1.8814 -0.1743
  136SAPE  C21514758   5.406   0.642   9.317  0.8558 -0.5918 -0.6208
  136SAPE  H15R14759   5.490   0.598   9.260  0.0122  1.2316 -3.4865
  136SAPE  C21614760   5.304   0.683   9.216 -0.8804  0.0613 -0.6267
  136SAPE  H16R14761   5.210   0.640   9.257  0.1522 -1.6003  0.0913
  136SAPE  H16S14762   5.340   0.630   9.125  1.5373  0.1312  0.2192
  136SAPE  C21714763   5.296   0.835   9.212  0.0793 -0.6271  0.8114
  136SAPE  H17R14764   5.395   0.883   9.196  0.2766 -0.7087  1.7309
  136SAPE  H17S14765   5.266   0.866   9.314  1.2115 -2.5986  1.7944
  136SAPE  C21814766   5.199   0.885   9.102  0.2246  0.2262 -0.7242
  136SAPE  H18R14767   5.099   0.836   9.108  0.7726 -0.9406 -0.8846
  136SAPE  H18S14768   5.237   0.863   9.000 -2.2346  1.2362 -1.9385
  136SAPE  C21914769   5.170   1.040   9.121 -0.4173  0.0077  0.7817
  136SAPE  H19R14770   5.165   1.061   9.229 -1.0325  1.3178  0.5212
  136SAPE  H19S14771   5.072   1.055   9.070  0.0539 -1.8301 -0.8119
  136SAPE  C22014772   5.286   1.116   9.057  0.6378 -0.4135  0.1796
  136SAPE  H20R14773   5.386   1.073   9.080  0.1263 -0.9536  1.5089
  136SAPE  H20S14774   5.278   1.223   9.086 -0.2983 -0.1433 -0.9645
  136SAPE  H20T14775   5.266   1.113   8.947 -0.7121 -1.8927  0.4130
  136SAPE   C3314776   4.333  -0.422  10.345 -0.1114 -0.5138 -0.7514
  136SAPE   H3X14777   4.277  -0.327  10.344 -0.3665 -0.5685  1.6723
  136SAPE   H3Y14778   4.268  -0.512  10.343 -0.1540 -0.5267  0.3839
  136SAPE   C3414779   4.414  -0.433  10.217  0.2240  0.0384  1.1627
  136SAPE   H4X14780   4.346  -0.492  10.152  2.2813 -1.4646  0.2438
  136SAPE   H4Y14781   4.508  -0.485  10.244  0.3352  0.1799  1.0577
  136SAPE   C3514782   4.446  -0.303  10.160 -0.0383 -0.5443 -0.4014
  136SAPE   H5X14783   4.524  -0.258  10.225 -1.2689 -1.6758  1.9767
  136SAPE   H5Y14784   4.361  -0.231  10.155  0.9562  0.7804  0.8518
  136SAPE   C3614785   4.485  -0.299  10.013 -1.0488 -0.2095 -1.1109
  136SAPE   H6X14786   4.484  -0.198   9.967 -0.7225  0.6459  0.6862
  136SAPE   H6Y14787   4.408  -0.359   9.959 -0.6916 -0.2253 -1.6039
  136SAPE   C3714788   4.624  -0.358   9.994 -0.0961  0.5149 -0.2020
  136SAPE   H7X14789   4.608  -0.467  10.001  0.8540  0.3073 -1.0649
  136SAPE   H7Y14790   4.706  -0.313  10.054 -0.8493 -1.7433  2.8137
  136SAPE   C3814791   4.663  -0.335   9.845 -0.5015 -0.3757  0.6324
  136SAPE   H8X14792   4.703  -0.232   9.849 -0.3719 -0.2881 -1.5208
  136SAPE   H8Y14793   4.568  -0.348   9.788  0.4622 -1.5981 -0.7784
  136SAPE   C3914794   4.758  -0.453   9.795  0.3808 -0.3734  0.5856
  136SAPE   H9X14795   4.705  -0.550   9.790  1.0764 -0.6814 -2.2447
  136SAPE   H9Y14796   4.839  -0.459   9.872  0.6771  0.2759  0.3304
  136SAPE  C31014797   4.822  -0.422   9.662  0.1525  0.2794 -0.4570
  136SAPE  H10X14798   4.898  -0.499   9.639  1.0137  0.5662  1.2732
  136SAPE  H10Y14799   4.886  -0.331   9.660 -0.6018  0.9164  1.6833
  136SAPE  C31114800   4.722  -0.419   9.545 -0.6436 -0.5503  0.4166
  136SAPE  H11X14801   4.635  -0.354   9.571 -0.7229 -0.0995 -0.9027
  136SAPE  H11Y14802   4.684  -0.524   9.543  1.6833 -1.4380 -0.8535
  136SAPE  C31214803   4.785  -0.378   9.411 -0.1787  0.0272 -0.2083
  136SAPE  H12X14804   4.859  -0.457   9.387 -1.4460 -1.3281  0.1852
  136SAPE  H12Y14805   4.835  -0.281   9.430 -0.9314 -0.1322  3.4218
  136SAPE  C31314806   4.678  -0.386   9.296 -0.5950 -0.6656 -0.5145
  136SAPE  H13X14807   4.584  -0.333   9.326  0.8349  0.8961  1.4775
  136SAPE  H13Y14808   4.660  -0.494   9.280  1.0827 -1.5541  2.6629
  136SAPE  C31414809   4.722  -0.319   9.168  0.1619 -0.1127  0.8343
  136SAPE  H14X14810   4.662  -0.361   9.084  2.2733  0.2346 -0.9529
  136SAPE  H14Y14811   4.831  -0.326   9.146 -0.1218  1.3050 -1.3366
  136SAPE  C31514812   4.693  -0.162   9.167 -0.0583  0.2974 -0.2125
  136SAPE  H15X14813   4.719  -0.118   9.266  1.7690 -2.3235  0.5766
  136SAPE  H15Y14814   4.584  -0.160   9.147 -0.5723 -1.5826  1.9612
  136SAPE  C31614815   4.779  -0.095   9.061  0.3704  0.5877  0.4150
  136SAPE  H16X14816   4.883  -0.123   9.088 -0.3787 -1.0616  1.7673
  136SAPE  H16Y14817   4.767   0.015   9.075  0.9819  0.4567  2.2479
  136SAPE  C31714818   4.750  -0.139   8.916  0.7474 -0.5583  0.3897
  136SAPE  H17X14819   4.645  -0.121   8.885  0.2364 -1.3990  1.5639
  136SAPE  H17Y14820   4.768  -0.249   8.914  0.8801 -0.5332 -0.7880
  136SAPE  C31814821   4.841  -0.075   8.804  0.0045 -0.3605 -0.1513
  136SAPE  H18X14822   4.949  -0.100   8.813  0.1769  0.8048  1.6579
  136SAPE  H18Y14823   4.834   0.036   8.805 -0.3166 -0.3780  0.7122
  136SAPE  H18Z14824   4.825  -0.108   8.700 -1.4566  3.1384 -1.2061
  137SAPE     N14825   2.682   1.739  10.935  0.9351 -0.1348  0.0091
  137SAPE   HN114826   2.757   1.668  10.947 -0.1998 -0.9862  3.0900
  137SAPE   HN214827   2.723   1.826  10.975 -0.5562 -0.1341  1.6468
  137SAPE   HN314828   2.601   1.708  10.992  0.9126  1.2319  0.7820
  137SAPE   C1214829   2.660   1.769  10.786 -0.7377  0.8531  0.1365
  137SAPE  H12A14830   2.560   1.816  10.777 -1.6295 -1.0529 -0.3358
  137SAPE  H12B14831   2.664   1.670  10.737  0.7914  0.2091  1.4449
  137SAPE   C1114832   2.775   1.860  10.743  0.4721 -0.0311 -0.6448
  137SAPE  H11A14833   2.762   1.873  10.633  1.7311 -0.1018 -0.8113
  137SAPE  H11B14834   2.877   1.828  10.770  0.5237  1.7710  1.5737
  137SAPE     P14835   2.869   2.096  10.823  0.1762  0.0418  0.0116
  137SAPE   O1314836   2.829   2.185  10.935 -0.0055  0.1176 -0.2879
  137SAPE   O1414837   3.003   2.026  10.838  0.2545 -0.1275  0.5781
  137SAPE   O1214838   2.752   1.990  10.797 -0.2201 -0.0981 -0.3958
  137SAPE   O1114839   2.868   2.186  10.692  1.0394  0.2636  0.1654
  137SAPE    C114840   2.754   2.255  10.643  0.2091  0.2102 -0.1059
  137SAPE    HA14841   2.690   2.290  10.727 -0.8365 -0.8675 -0.4306
  137SAPE    HB14842   2.790   2.349  10.596 -2.3683 -0.0080 -2.8136
  137SAPE    C214843   2.679   2.174  10.538  0.3798 -0.1348 -0.7126
  137SAPE    HS14844   2.640   2.084  10.591 -2.6885 -0.1089 -2.6840
  137SAPE   O2114845   2.768   2.148  10.427  0.0135  0.6125 -0.5218
  137SAPE   C2114846   2.749   2.035  10.366 -0.0543  0.8357 -0.2082
  137SAPE   O2214847   2.665   1.948  10.389 -0.3186  0.2024  0.0881
  137SAPE   C2214848   2.857   2.024  10.260 -0.4802 -0.2799 -0.1814
  137SAPE   H2R14849   2.915   2.118  10.269 -1.6588  0.5838 -1.1897
  137SAPE   H2S14850   2.917   1.940  10.301 -1.3021 -0.6499  0.2929
  137SAPE    C314851   2.559   2.248  10.480 -1.0901  0.2052 -0.5272
  137SAPE    HX14852   2.598   2.337  10.425 -0.2586  0.1106 -0.1035
  137SAPE    HY14853   2.502   2.297  10.562  1.0700  0.0707  1.1529
  137SAPE   O3114854   2.479   2.173  10.381  0.3504 -0.3845 -0.3297
  137SAPE   C3114855   2.359   2.129  10.427 -0.4424  0.1935 -0.2051
  137SAPE   O3214856   2.302   2.160  10.534  0.2760 -0.1018  0.3095
  137SAPE   C3214857   2.301   2.034  10.318  0.2456  0.9368 -0.5424
  137SAPE   H2X14858   2.261   2.085  10.228 -0.2366 -1.8670 -2.0067
  137SAPE   H2Y14859   2.211   1.987  10.363  0.6649 -0.9522 -1.5777
  137SAPE   C2314860   2.808   2.010  10.112 -0.3564  0.4752 -0.8536
  137SAPE   H3R14861   2.733   1.928  10.105  1.5282 -1.5423  1.0184
  137SAPE   H3S14862   2.885   1.990  10.035  0.9896 -0.5080  0.6960
  137SAPE   C2414863   2.734   2.140  10.078  0.5028 -0.3430 -0.1795
  137SAPE   H4R14864   2.805   2.224  10.095  1.0413 -0.8855  0.2884
  137SAPE   H4S14865   2.658   2.157  10.157  0.4532  0.7623 -0.4410
  137SAPE   C2514866   2.683   2.142   9.939  0.0128  0.1638 -0.0507
  137SAPE   H5R14867   2.577   2.120   9.921  0.1730 -0.1999 -0.5764
  137SAPE   C2614868   2.762   2.164   9.826 -0.1144  0.3731 -0.1484
  137SAPE   H6R14869   2.715   2.158   9.727 -1.1349  1.0521  0.2705
  137SAPE   C2714870   2.911   2.195   9.822  0.5057 -1.0040 -0.0378
  137SAPE   H7R14871   2.949   2.214   9.925  1.1648  1.0020 -0.6104
  137SAPE   H7S14872   2.908   2.294   9.771 -1.2077 -0.9182  0.1560
  137SAPE   C2814873   2.991   2.100   9.736  0.2606 -0.3193 -0.6845
  137SAPE   H8R14874   3.034   2.019   9.797 -1.9958 -0.4548  0.8749
  137SAPE   C2914875   3.009   2.096   9.603  0.0173 -0.6907 -0.0362
  137SAPE   H9R14876   3.085   2.025   9.567  0.4061 -0.2792 -0.0372
  137SAPE  C21014877   2.954   2.194   9.498  0.1258  0.0943 -0.8020
  137SAPE  H10R14878   3.012   2.288   9.483 -1.2462  0.8987 -1.2501
  137SAPE  H10S14879   2.859   2.236   9.537 -0.2936 -0.8039 -0.8341
  137SAPE  C21114880   2.925   2.132   9.365 -0.4323  0.3854  0.4133
  137SAPE  H11R14881   2.830   2.076   9.370 -1.0944  1.5300  3.7058
  137SAPE  C21214882   2.995   2.157   9.253 -0.8461 -0.4552  0.2460
  137SAPE  H12R14883   2.960   2.131   9.152 -0.1306  3.5528 -1.1871
  137SAPE  C21314884   3.121   2.244   9.243 -0.1337 -0.6397 -0.3007
  137SAPE  H13R14885   3.196   2.176   9.196 -0.7032 -1.6700  0.2318
  137SAPE  H13S14886   3.165   2.273   9.341 -0.3402  1.5979 -0.8319
  137SAPE  C21414887   3.089   2.369   9.158  0.0978 -0.1952 -0.5540
  137SAPE  H14R14888   3.065   2.458   9.217  0.5091  1.7181 -3.0921
  137SAPE  C21514889   3.094   2.381   9.030  0.0347  0.2244 -0.1057
  137SAPE  H15R14890   3.080   2.479   8.982  4.8199  1.6344  0.7854
  137SAPE  C21614891   3.129   2.269   8.937  0.4752  0.3586 -0.5459
  137SAPE  H16R14892   3.036   2.218   8.904  0.7734 -0.5378 -0.0252
  137SAPE  H16S14893   3.189   2.192   8.989 -1.3705  1.6049  3.9613
  137SAPE  C21714894   3.198   2.311   8.813 -0.2539 -0.4052 -0.4144
  137SAPE  H17R14895   3.137   2.377   8.747 -1.4867 -0.0983  0.9744
  137SAPE  H17S14896   3.214   2.218   8.756 -0.2836 -0.7257  0.0967
  137SAPE  C21814897   3.326   2.392   8.835 -0.4617 -0.9198  0.1538
  137SAPE  H18R14898   3.301   2.484   8.891 -1.0415 -0.5014 -0.7603
  137SAPE  H18S14899   3.363   2.426   8.736  0.0196  1.0262  0.9692
  137SAPE  C21914900   3.442   2.321   8.908  0.2562  0.2662  0.4539
  137SAPE  H19R14901   3.399   2.292   9.007 -1.7965 -1.8494 -0.9361
  137SAPE  H19S14902   3.527   2.392   8.915  1.3391 -0.8184 -0.8081
  137SAPE  C22014903   3.498   2.200   8.839 -0.0532 -0.0980 -0.8089
  137SAPE  H20R14904   3.582   2.154   8.896 -0.6426 -1.5780 -1.0975
  137SAPE  H20S14905   3.520   2.215   8.731  1.1676 -0.6661 -0.6601
  137SAPE  H20T14906   3.417   2.125   8.851 -1.1213  1.3596  2.2230
  137SAPE   C3314907   2.398   1.921  10.265  0.7078 -0.0370 -0.2174
  137SAPE   H3X14908   2.427   1.845  10.340  0.0776 -0.1317 -0.0628
  137SAPE   H3Y14909   2.493   1.962  10.224 -0.6364  1.4512 -2.0338
  137SAPE   C3414910   2.328   1.846  10.143  0.2144  0.3992 -0.3370
  137SAPE   H4X14911   2.221   1.819  10.157  1.0047 -2.2147  1.4376
  137SAPE   H4Y14912   2.383   1.750  10.136  2.1073  1.2521  1.4874
  137SAPE   C3514913   2.345   1.907  10.010  0.2632 -0.6211 -0.5171
  137SAPE   H5X14914   2.432   1.856   9.962  1.3167 -0.8786  1.5665
  137SAPE   H5Y14915   2.371   2.015  10.007 -0.5389 -0.4258 -2.4764
  137SAPE   C3614916   2.221   1.894   9.921  0.5651 -0.0815 -0.5789
  137SAPE   H6X14917   2.128   1.942   9.956  0.4662 -1.4676  1.2257
  137SAPE   H6Y14918   2.200   1.785   9.914 -0.4467 -0.0049  0.8268
  137SAPE   C3714919   2.241   1.945   9.775  0.8003 -0.3504  0.2912
  137SAPE   H7X14920   2.342   1.910   9.745  1.3161 -0.2583  1.8288
  137SAPE   H7Y14921   2.255   2.055   9.771  0.9178 -0.3078  1.6620
  137SAPE   C3814922   2.139   1.884   9.677 -0.0879 -0.4443  0.0136
  137SAPE   H8X14923   2.037   1.906   9.716 -0.8293 -0.5572 -1.7605
  137SAPE   H8Y14924   2.140   1.773   9.678 -1.8927 -0.5053  0.1050
  137SAPE   C3914925   2.145   1.931   9.532 -0.2404  0.3530 -0.0914
  137SAPE   H9X14926   2.115   1.844   9.469  1.9400 -0.3352 -0.2684
  137SAPE   H9Y14927   2.249   1.964   9.509 -0.4744  2.1036  1.1792
  137SAPE  C31014928   2.052   2.050   9.509 -0.5749 -0.2557 -0.0969
  137SAPE  H10X14929   2.102   2.138   9.555 -0.9850 -0.5143  0.8625
  137SAPE  H10Y14930   1.959   2.036   9.569 -0.7003 -1.2670 -0.5161
  137SAPE  C31114931   2.020   2.087   9.358  1.1125 -0.5215 -0.9880
  137SAPE  H11X14932   1.961   2.004   9.313 -0.2576 -0.4463  0.5705
  137SAPE  H11Y14933   2.112   2.097   9.298  0.2410  2.5661 -1.9924
  137SAPE  C31214934   1.942   2.218   9.351  0.1356 -0.0070  0.0178
  137SAPE  H12X14935   2.016   2.299   9.362  0.3178 -0.0901 -0.5378
  137SAPE  H12Y14936   1.874   2.234   9.437 -1.7552 -1.0567 -1.2123
  137SAPE  C31314937   1.861   2.248   9.225 -0.2459 -0.0229 -0.5254
  137SAPE  H13X14938   1.810   2.346   9.235  0.3637  0.3779 -1.2039
  137SAPE  H13Y14939   1.785   2.168   9.217 -1.7102  1.1323  1.2564
  137SAPE  C31414940   1.961   2.259   9.101  0.5446 -0.2111 -0.8650
  137SAPE  H14X14941   2.000   2.159   9.073  0.0351 -0.7804  0.3510
  137SAPE  H14Y14942   2.059   2.307   9.121  0.9564 -0.2124 -2.7173
  137SAPE  C31514943   1.905   2.331   8.986  0.0648  0.2690 -0.0408
  137SAPE  H15X14944   1.876   2.430   9.026 -0.9363 -0.2899  0.6836
  137SAPE  H15Y14945   1.816   2.265   8.975 -0.7267  1.3916 -0.4950
  137SAPE  C31614946   2.004   2.334   8.870  0.2834 -0.1147  0.1977
  137SAPE  H16X14947   2.065   2.241   8.866  1.2330  0.5087 -0.1621
  137SAPE  H16Y14948   2.067   2.425   8.881  0.2028  0.1018 -0.9391
  137SAPE  C31714949   1.944   2.350   8.729 -0.4319  0.2629  0.7492
  137SAPE  H17X14950   1.877   2.439   8.724  0.1358  0.6282 -1.1598
  137SAPE  H17Y14951   1.881   2.260   8.709  0.4025 -0.1840  0.1081
  137SAPE  C31814952   2.047   2.379   8.612  0.7764 -0.5964 -0.1514
  137SAPE  H18X14953   2.103   2.472   8.636 -0.0724 -0.5307  1.6846
  137SAPE  H18Y14954   1.989   2.389   8.518  0.8081  1.4206 -0.0107
  137SAPE  H18Z14955   2.112   2.291   8.591 -0.3587 -1.5565  0.2531
  138SAPE     N14956   6.033   4.046  10.481  0.4306  0.3924  0.4197
  138SAPE   HN114957   6.119   4.057  10.423  0.2701  1.3433  0.3386
  138SAPE   HN214958   6.035   4.125  10.549 -1.9203  2.7108 -1.9235
  138SAPE   HN314959   6.051   3.955  10.528 -0.3897  0.4956  0.9426
  138SAPE   C1214960   5.906   4.052  10.398  0.3058  0.1360 -0.0083
  138SAPE  H12A14961   5.891   3.956  10.344 -3.7074 -0.3720  1.6561
  138SAPE  H12B14962   5.910   4.138  10.328 -0.3595 -1.0727 -1.5842
  138SAPE   C1114963   5.791   4.078  10.500 -0.8119 -0.3680 -0.0530
  138SAPE  H11A14964   5.700   4.073  10.435 -0.1045 -3.0822 -0.9516
  138SAPE  H11B14965   5.799   4.178  10.548 -0.7433  0.0133 -0.8406
  138SAPE     P14966   5.733   3.978  10.736 -0.3440  0.3564 -0.7141
  138SAPE   O1314967   5.736   3.847  10.805 -0.8143  0.1102  0.6238
  138SAPE   O1414968   5.808   4.087  10.807  0.1628 -0.2322  0.6219
  138SAPE   O1214969   5.780   3.969  10.588  0.0789  0.5403 -0.2973
  138SAPE   O1114970   5.581   4.018  10.717 -0.3986 -0.4273 -0.2095
  138SAPE    C114971   5.548   4.154  10.731  0.6829 -1.3066  0.3254
  138SAPE    HA14972   5.593   4.208  10.817  0.0831  2.4800 -1.5178
  138SAPE    HB14973   5.587   4.211  10.643 -0.9156  1.2526  1.1641
  138SAPE    C214974   5.398   4.170  10.738 -0.1227  0.5937 -0.4550
  138SAPE    HS14975   5.363   4.105  10.821  0.3697  1.4168  0.4175
  138SAPE   O2114976   5.332   4.149  10.608 -0.0004  0.6648 -0.5986
  138SAPE   C2114977   5.205   4.145  10.609 -0.0804  0.1239  0.3162
  138SAPE   O2214978   5.134   4.132  10.707  0.8455  0.1052  0.4703
  138SAPE   C2214979   5.145   4.159  10.466 -0.3823 -0.0557 -0.5878
  138SAPE   H2R14980   5.194   4.240  10.408 -2.4388  1.4011 -0.3973
  138SAPE   H2S14981   5.157   4.063  10.413  0.7844 -1.7560  2.4788
  138SAPE    C314982   5.377   4.312  10.793  0.6066  0.0894  0.2337
  138SAPE    HX14983   5.403   4.308  10.901  0.1167 -2.8250  0.3422
  138SAPE    HY14984   5.269   4.337  10.797  0.6880  0.9483 -1.5519
  138SAPE   O3114985   5.448   4.406  10.710  0.1118  0.4440  0.5323
  138SAPE   C3114986   5.369   4.487  10.630 -0.7053 -0.0375  0.5590
  138SAPE   O3214987   5.247   4.483  10.628 -0.5652 -0.6261 -0.7117
  138SAPE   C3214988   5.464   4.587  10.551 -0.0842 -0.0582  0.1126
  138SAPE   H2X14989   5.516   4.517  10.483 -0.7775 -1.7111  1.2268
  138SAPE   H2Y14990   5.531   4.628  10.630  0.8863 -1.1265 -0.1352
  138SAPE   C2314991   4.990   4.186  10.468 -0.1119 -0.3898 -0.2419
  138SAPE   H3R14992   4.976   4.283  10.521  1.2953  0.0643 -0.6736
  138SAPE   H3S14993   4.944   4.110  10.535  0.5497  0.6309  1.4223
  138SAPE   C2414994   4.933   4.179  10.330  0.6158  0.8879  0.1832
  138SAPE   H4R14995   4.825   4.153  10.332  1.3157 -2.4547  0.4530
  138SAPE   H4S14996   4.967   4.088  10.276 -3.2281 -1.3124  1.0877
  138SAPE   C2514997   4.950   4.311  10.251 -0.1199 -0.4377  0.4275
  138SAPE   H5R14998   4.961   4.399  10.316 -1.3864  0.0230  0.0407
  138SAPE   C2614999   4.946   4.321  10.114  0.0546  0.0171  0.3021
  138SAPE   H6R15000   4.952   4.421  10.069  2.1607 -0.4587 -0.6442
  138SAPE   C2715001   4.924   4.218  10.012  0.0501  1.3195 -0.0347
  138SAPE   H7R15002   4.932   4.120  10.063  0.7080 -0.6233 -3.5178
  138SAPE   H7S15003   5.012   4.224   9.944  0.6405  1.2201  0.7073
  138SAPE   C2815004   4.798   4.247   9.926 -0.2173 -0.1888  1.4264
  138SAPE   H8R15005   4.729   4.328   9.956  1.6242  2.9397 -1.9001
  138SAPE   C2915006   4.768   4.182   9.815  0.2245 -0.2455  0.5737
  138SAPE   H9R15007   4.680   4.213   9.757 -0.4616 -2.1796  0.4939
  138SAPE  C21015008   4.849   4.069   9.761 -0.4541 -0.1558 -0.0458
  138SAPE  H10R15009   4.780   4.030   9.683 -2.7381  2.1422  0.6929
  138SAPE  H10S15010   4.862   3.993   9.841  1.8855  1.8424  1.6265
  138SAPE  C21115011   4.978   4.093   9.683 -0.1154  0.0970  0.1904
  138SAPE  H11R15012   5.068   4.062   9.739 -0.7960 -0.6670  0.8763
  138SAPE  C21215013   4.990   4.147   9.563  0.4806 -0.2577 -0.5436
  138SAPE  H12R15014   5.090   4.157   9.518  0.4669  0.1085 -0.4983
  138SAPE  C21315015   4.882   4.197   9.469 -0.8816 -0.2219  0.0766
  138SAPE  H13R15016   4.904   4.306   9.457  1.2973 -0.6024  0.2249
  138SAPE  H13S15017   4.780   4.185   9.511 -0.4925  0.0822  1.1443
  138SAPE  C21415018   4.905   4.117   9.347 -0.0985 -0.7295  0.2492
  138SAPE  H14R15019   4.901   4.007   9.352  0.6052 -0.7630  0.1914
  138SAPE  C21515020   4.935   4.157   9.222 -0.7992 -0.3828 -0.1976
  138SAPE  H15R15021   4.931   4.074   9.149 -1.9787 -2.0059  1.6195
  138SAPE  C21615022   4.953   4.292   9.163  0.3129 -0.1852  0.0761
  138SAPE  H16R15023   4.947   4.374   9.238 -0.4509  0.2417 -0.4372
  138SAPE  H16S15024   4.867   4.312   9.095 -1.1015  1.5594  2.2298
  138SAPE  C21715025   5.077   4.310   9.071  0.2756 -0.3293 -0.3419
  138SAPE  H17R15026   5.098   4.209   9.029 -2.5076 -0.6177 -1.2672
  138SAPE  H17S15027   5.155   4.356   9.135 -1.5000  2.5986 -0.1088
  138SAPE  C21815028   5.061   4.421   8.960 -0.5470 -0.4782 -0.1652
  138SAPE  H18R15029   5.163   4.457   8.934 -0.3945 -1.1205 -0.4695
  138SAPE  H18S15030   5.010   4.509   9.005  1.2301  0.6914 -0.2998
  138SAPE  C21915031   4.986   4.365   8.836  0.0006 -0.0402 -0.4529
  138SAPE  H19R15032   4.896   4.429   8.826 -0.5836 -0.9296 -1.0531
  138SAPE  H19S15033   4.951   4.260   8.845 -2.1333  0.7748  1.8889
  138SAPE  C22015034   5.085   4.372   8.712 -0.7526 -0.2391  0.2924
  138SAPE  H20R15035   5.031   4.339   8.621  1.8096 -1.1096 -0.9888
  138SAPE  H20S15036   5.172   4.304   8.721  0.7497  1.6625  0.7838
  138SAPE  H20T15037   5.140   4.469   8.707  2.7559 -2.1533 -2.4194
  138SAPE   C3315038   5.390   4.699  10.476 -1.1126 -0.6081 -0.5152
  138SAPE   H3X15039   5.466   4.778  10.458  0.7543 -0.6042  5.1426
  138SAPE   H3Y15040   5.312   4.752  10.535 -2.1177 -0.3009 -2.0578
  138SAPE   C3415041   5.328   4.671  10.340  0.4877 -0.5374  0.9932
  138SAPE   H4X15042   5.247   4.594  10.335 -0.0486 -0.1499  2.9306
  138SAPE   H4Y15043   5.405   4.627  10.274 -0.0793 -0.7213  0.4388
  138SAPE   C3515044   5.279   4.793  10.259  0.0649 -0.8608 -0.0595
  138SAPE   H5X15045   5.374   4.851  10.261  0.0858 -0.8797 -0.5334
  138SAPE   H5Y15046   5.207   4.849  10.323  1.0910 -2.1889  2.4073
  138SAPE   C3615047   5.233   4.758  10.115  0.1498  0.3446 -0.4021
  138SAPE   H6X15048   5.141   4.697  10.123  0.9638 -0.9467 -0.5640
  138SAPE   H6Y15049   5.304   4.688  10.065 -0.1481 -0.3113  0.0762
  138SAPE   C3715050   5.205   4.872  10.017  0.3717  0.0174 -0.7617
  138SAPE   H7X15051   5.290   4.944  10.027  0.5455 -0.0880 -1.4206
  138SAPE   H7Y15052   5.116   4.923  10.059  0.1867 -1.1607  0.3396
  138SAPE   C3815053   5.177   4.834   9.875  0.0987  0.2105  0.2945
  138SAPE   H8X15054   5.093   4.761   9.863 -1.1651  1.3448  1.8748
  138SAPE   H8Y15055   5.270   4.786   9.837 -0.4356 -1.5846  1.1388
  138SAPE   C3915056   5.149   4.961   9.789 -0.5626 -0.3123  0.2995
  138SAPE   H9X15057   5.227   5.035   9.816  1.1901 -1.8251 -0.3808
  138SAPE   H9Y15058   5.055   5.018   9.808  0.4061  1.3835  0.1676
  138SAPE  C31015059   5.155   4.923   9.641 -0.9235 -0.4532 -0.2374
  138SAPE  H10X15060   5.072   4.855   9.613  0.4728 -1.2928 -2.6363
  138SAPE  H10Y15061   5.254   4.871   9.642 -1.5715 -1.7449  1.1939
  138SAPE  C31115062   5.140   5.044   9.547  0.0140  0.0610 -0.1243
  138SAPE  H11X15063   5.187   5.134   9.591  0.7880  0.3553 -1.4953
  138SAPE  H11Y15064   5.031   5.067   9.541 -0.1377 -0.6599 -0.2065
  138SAPE  C31215065   5.178   5.016   9.399  0.3769  0.3328 -0.3943
  138SAPE  H12X15066   5.129   4.919   9.373 -0.1049  0.7233 -0.9641
  138SAPE  H12Y15067   5.284   4.986   9.384  0.4932  1.0118 -0.9155
  138SAPE  C31315068   5.129   5.122   9.303  0.0066  0.5856 -1.0335
  138SAPE  H13X15069   5.186   5.216   9.323 -2.1703  1.7876 -0.2140
  138SAPE  H13Y15070   5.024   5.151   9.324 -0.0658  0.5998 -1.4122
  138SAPE  C31415071   5.132   5.101   9.156 -0.7816  0.3703  0.1955
  138SAPE  H14X15072   5.226   5.048   9.130  0.0006  1.5111  0.6081
  138SAPE  H14Y15073   5.145   5.203   9.115 -0.2751 -0.1269 -0.8998
  138SAPE  C31515074   5.009   5.031   9.084  0.3864 -0.2875 -0.7801
  138SAPE  H15X15075   4.910   5.067   9.120 -1.1062 -3.4448 -1.3842
  138SAPE  H15Y15076   5.022   4.929   9.125  0.4258  0.5142  1.3427
  138SAPE  C31615077   5.020   5.028   8.933  0.8862  0.2036 -0.1029
  138SAPE  H16X15078   4.957   4.939   8.913 -0.0310  0.6476  0.7082
  138SAPE  H16Y15079   5.124   5.009   8.899  0.7612  0.7735 -0.8512
  138SAPE  C31715080   4.963   5.152   8.864 -0.0860  0.0654 -1.1006
  138SAPE  H17X15081   5.002   5.236   8.926  0.1101  1.0883 -2.5620
  138SAPE  H17Y15082   4.853   5.147   8.873 -0.0638  0.6807 -0.3203
  138SAPE  C31815083   4.995   5.172   8.715 -0.3246 -0.2731 -0.1296
  138SAPE  H18X15084   4.941   5.101   8.649 -0.9889  0.3855 -0.3023
  138SAPE  H18Y15085   5.104   5.171   8.692 -0.6042  1.0822 -1.7120
  138SAPE  H18Z15086   4.961   5.273   8.683 -0.0381  0.3567  1.4259
  139SAPE     N15087   4.521   2.009  10.708 -0.8277 -0.0873 -0.3357
  139SAPE   HN115088   4.445   1.938  10.716  0.0837 -1.2379 -1.3731
  139SAPE   HN215089   4.581   2.007  10.792 -1.3514  0.8291  0.0775
  139SAPE   HN315090   4.481   2.105  10.697 -0.0437  0.2723 -0.0743
  139SAPE   C1215091   4.613   1.976  10.589 -0.0967  0.1835  0.0275
  139SAPE  H12A15092   4.633   1.867  10.601 -2.1316 -0.2283  0.0587
  139SAPE  H12B15093   4.698   2.046  10.607 -0.7674  1.1118 -0.3230
  139SAPE   C1115094   4.541   2.015  10.459  0.3500 -0.7919 -0.2934
  139SAPE  H11A15095   4.470   1.937  10.423  0.1049  0.7863 -3.6230
  139SAPE  H11B15096   4.617   2.011  10.378  3.1939 -1.7286  2.2360
  139SAPE     P15097   4.330   2.168  10.458  0.0553 -0.4345  0.0931
  139SAPE   O1315098   4.274   2.076  10.560 -0.5551  0.8423 -0.1771
  139SAPE   O1415099   4.298   2.315  10.477 -0.1165 -0.3014  0.1006
  139SAPE   O1215100   4.483   2.150  10.467  0.0512 -0.2061 -0.0682
  139SAPE   O1115101   4.292   2.114  10.314  0.4841 -0.7665  0.3160
  139SAPE    C115102   4.270   2.205  10.204 -0.5318  0.5132 -0.2054
  139SAPE    HA15103   4.216   2.299  10.229 -1.5792  0.5464 -2.3294
  139SAPE    HB15104   4.369   2.229  10.160 -0.9635 -0.1393 -1.6055
  139SAPE    C215105   4.179   2.138  10.094  0.7032  0.2660  0.9848
  139SAPE    HS15106   4.211   2.035  10.064 -1.0080  0.7002 -2.9800
  139SAPE   O2115107   4.168   2.214   9.975 -0.4218 -0.0678 -0.1801
  139SAPE   C2115108   4.270   2.183   9.888  0.3244 -0.3181  0.2854
  139SAPE   O2215109   4.350   2.094   9.900  0.2986 -0.2934  0.2213
  139SAPE   C2215110   4.255   2.262   9.762  0.4616  0.0896 -0.2172
  139SAPE   H2R15111   4.190   2.352   9.777 -0.6029 -0.5669 -0.7092
  139SAPE   H2S15112   4.356   2.289   9.726  0.7079 -2.8434 -2.0839
  139SAPE    C315113   4.044   2.112  10.156 -0.1200  0.1427  0.6949
  139SAPE    HX15114   3.996   2.212  10.164  1.0058  0.7327  0.3604
  139SAPE    HY15115   4.048   2.065  10.256  0.6186 -2.2972 -0.3925
  139SAPE   O3115116   3.968   2.029  10.062  0.0200 -0.4794 -0.1221
  139SAPE   C3115117   3.969   1.900  10.095  1.0411 -0.1757 -0.1598
  139SAPE   O3215118   4.035   1.851  10.184  0.1512 -0.2350  0.0674
  139SAPE   C3215119   3.867   1.828  10.007  0.0728  0.1697  0.4764
  139SAPE   H2X15120   3.773   1.886  10.014  1.7875  3.3146 -0.6048
  139SAPE   H2Y15121   3.855   1.725  10.046  0.6661  0.0614  0.3918
  139SAPE   C2315122   4.186   2.172   9.652 -0.1967  0.4147 -0.4045
  139SAPE   H3R15123   4.151   2.241   9.572 -1.0800  0.8144  0.3054
  139SAPE   H3S15124   4.093   2.128   9.695  0.2551 -0.5785 -0.4277
  139SAPE   C2415125   4.273   2.056   9.592 -0.5089  0.0158  1.0088
  139SAPE   H4R15126   4.311   1.986   9.668  0.2730 -1.1289 -0.3880
  139SAPE   H4S15127   4.365   2.097   9.545 -1.3894 -0.8125 -1.6026
  139SAPE   C2515128   4.187   1.984   9.496  0.5940 -0.1794 -0.2093
  139SAPE   H5R15129   4.094   1.950   9.545  0.6000 -0.3268 -0.2990
  139SAPE   C2615130   4.205   1.972   9.357 -0.6117 -0.4775 -0.2121
  139SAPE   H6R15131   4.122   1.930   9.298 -1.8915  2.5430 -0.7383
  139SAPE   C2715132   4.315   2.024   9.264 -0.0690  0.4532 -0.5137
  139SAPE   H7R15133   4.314   1.963   9.171 -0.1212  0.3168 -0.4232
  139SAPE   H7S15134   4.418   2.028   9.304 -0.4648 -1.7011  0.9419
  139SAPE   C2815135   4.268   2.162   9.230 -0.5826 -0.1479 -0.0876
  139SAPE   H8R15136   4.204   2.212   9.305 -1.2208  0.1019 -0.7780
  139SAPE   C2915137   4.315   2.239   9.133  0.5343  0.3639 -0.8952
  139SAPE   H9R15138   4.271   2.336   9.103 -1.7808  0.3537  2.0161
  139SAPE  C21015139   4.435   2.195   9.057  0.3794 -0.0265  0.6437
  139SAPE  H10R15140   4.501   2.140   9.127  0.4270 -1.2386 -0.3055
  139SAPE  H10S15141   4.506   2.279   9.040  1.3121 -0.7894  0.6965
  139SAPE  C21115142   4.425   2.113   8.929  0.3841  0.6015 -0.7879
  139SAPE  H11R15143   4.401   2.007   8.943 -1.4950  1.0600 -0.2113
  139SAPE  C21215144   4.416   2.166   8.801 -0.3326 -0.2348 -0.0324
  139SAPE  H12R15145   4.423   2.100   8.713  1.5442 -0.1983  0.0573
  139SAPE  C21315146   4.428   2.318   8.779 -0.3869  0.2651 -0.5996
  139SAPE  H13R15147   4.532   2.336   8.744 -0.9354  3.2932 -0.9292
  139SAPE  H13S15148   4.420   2.370   8.876  0.7867  0.0987 -0.4007
  139SAPE  C21415149   4.337   2.370   8.674  0.2840 -0.7605 -0.3163
  139SAPE  H14R15150   4.236   2.400   8.705  0.0337 -1.1775 -0.7154
  139SAPE  C21515151   4.362   2.378   8.541  0.3258  0.0131  0.1233
  139SAPE  H15R15152   4.286   2.420   8.474 -1.1347  0.0664  1.7394
  139SAPE  C21615153   4.489   2.343   8.468  0.1345  0.2466 -0.2021
  139SAPE  H16R15154   4.572   2.307   8.532 -0.1004 -1.7626 -0.9320
  139SAPE  H16S15155   4.517   2.427   8.402  1.8039 -0.3438 -0.2894
  139SAPE  C21715156   4.480   2.215   8.382  0.5073 -0.3679 -0.3346
  139SAPE  H17R15157   4.447   2.123   8.435 -2.9009  1.4805  1.0299
  139SAPE  H17S15158   4.582   2.204   8.339  1.7250 -0.1123  2.2830
  139SAPE  C21815159   4.384   2.233   8.260  0.7448 -0.5785 -0.7000
  139SAPE  H18R15160   4.396   2.335   8.219 -1.6488 -1.3085 -3.6651
  139SAPE  H18S15161   4.281   2.223   8.302  0.4316 -0.9689 -1.5220
  139SAPE  C21915162   4.408   2.143   8.144 -0.9068 -0.0833  0.0960
  139SAPE  H19R15163   4.508   2.171   8.103 -1.0787  1.7500  0.8392
  139SAPE  H19S15164   4.331   2.164   8.068 -0.1460  0.5012 -0.5338
  139SAPE  C22015165   4.383   1.988   8.173  0.0073  0.1585 -0.1865
  139SAPE  H20R15166   4.447   1.952   8.257  0.2984 -0.5065 -0.6833
  139SAPE  H20S15167   4.419   1.922   8.092  2.3635 -0.3254  1.1501
  139SAPE  H20T15168   4.281   1.964   8.210  0.1525  0.4513  0.4285
  139SAPE   C3315169   3.911   1.838   9.857  0.5243  0.1096  1.0400
  139SAPE   H3X15170   3.987   1.757   9.850  0.6647  0.3757 -1.1365
  139SAPE   H3Y15171   3.964   1.929   9.823 -0.4267 -0.0829 -1.0796
  139SAPE   C3415172   3.798   1.811   9.752 -0.1165  0.5190  0.5673
  139SAPE   H4X15173   3.726   1.893   9.773 -2.1427 -0.1763 -2.8165
  139SAPE   H4Y15174   3.732   1.726   9.777 -1.6517  1.5672  0.1849
  139SAPE   C3515175   3.848   1.825   9.602  1.0394 -0.4102  0.1577
  139SAPE   H5X15176   3.947   1.776   9.596  2.4128  2.0255  1.1167
  139SAPE   H5Y15177   3.879   1.931   9.585 -1.9343  0.4506 -0.4065
  139SAPE   C3615178   3.746   1.768   9.501 -0.1760  0.0885  0.5274
  139SAPE   H6X15179   3.672   1.843   9.466  0.0790  1.1411  2.1381
  139SAPE   H6Y15180   3.685   1.694   9.558 -1.5960 -0.0106 -1.0569
  139SAPE   C3715181   3.805   1.700   9.379  0.2613  0.3814  0.0551
  139SAPE   H7X15182   3.719   1.644   9.336  0.8472  0.2011 -0.9213
  139SAPE   H7Y15183   3.891   1.636   9.406 -0.2330 -1.1367 -1.7288
  139SAPE   C3815184   3.866   1.807   9.278 -0.0551 -0.1776  0.6032
  139SAPE   H8X15185   3.953   1.852   9.330 -0.2285 -0.0668  0.8020
  139SAPE   H8Y15186   3.792   1.886   9.253 -0.2444 -0.0623  1.5068
  139SAPE   C3915187   3.914   1.747   9.147  0.0009 -0.0162  0.6530
  139SAPE   H9X15188   3.828   1.706   9.089  2.1240  1.1395 -3.7815
  139SAPE   H9Y15189   3.983   1.663   9.170  0.4219  0.5659  1.5307
  139SAPE  C31015190   3.989   1.835   9.050  0.2115 -0.0662  0.0498
  139SAPE  H10X15191   4.080   1.864   9.107 -1.0568  2.5779  0.8618
  139SAPE  H10Y15192   3.936   1.928   9.019  0.8164  0.7693  1.4602
  139SAPE  C31115193   4.043   1.762   8.925  0.8477  0.1701 -0.6063
  139SAPE  H11X15194   3.956   1.718   8.871 -1.2245 -0.6240  3.0474
  139SAPE  H11Y15195   4.102   1.670   8.947  2.4199  0.5905 -2.7089
  139SAPE  C31215196   4.121   1.860   8.829 -0.0846  0.4742 -0.1509
  139SAPE  H12X15197   4.172   1.791   8.759 -0.1444  0.8575 -0.5722
  139SAPE  H12Y15198   4.202   1.921   8.875  0.0413  1.1473 -1.2240
  139SAPE  C31315199   4.030   1.941   8.740 -0.2060 -0.3398  0.3847
  139SAPE  H13X15200   4.013   2.034   8.799  0.7237  0.3380 -0.3993
  139SAPE  H13Y15201   3.936   1.885   8.720 -0.9871  1.5503 -1.5615
  139SAPE  C31415202   4.092   2.000   8.610 -0.4660 -0.4796  0.6584
  139SAPE  H14X15203   4.148   1.920   8.556  1.4261 -0.6228  2.6992
  139SAPE  H14Y15204   4.165   2.082   8.628 -0.0813 -0.6833  0.0720
  139SAPE  C31515205   3.995   2.066   8.506 -0.2372  0.3791 -0.5373
  139SAPE  H15X15206   4.059   2.124   8.436  0.6892  0.7226  0.5524
  139SAPE  H15Y15207   3.933   2.137   8.566  0.6217  0.8951 -0.2350
  139SAPE  C31615208   3.911   1.960   8.435  0.3804 -0.0062  0.7569
  139SAPE  H16X15209   3.985   1.906   8.371 -0.7496 -1.2464  0.4531
  139SAPE  H16Y15210   3.880   1.888   8.513 -0.3338 -0.9614 -0.3677
  139SAPE  C31715211   3.791   2.020   8.359 -0.6366  0.0904  0.0354
  139SAPE  H17X15212   3.826   2.098   8.288  1.6821 -0.5221  0.4210
  139SAPE  H17Y15213   3.730   2.079   8.430 -0.3262  0.4183  0.0378
  139SAPE  C31815214   3.703   1.923   8.288 -0.2894  0.8725 -0.1577
  139SAPE  H18X15215   3.657   1.863   8.369  0.7444  2.2104  1.4923
  139SAPE  H18Y15216   3.756   1.862   8.212  0.5234  1.2995  0.0465
  139SAPE  H18Z15217   3.619   1.984   8.248 -2.0601 -0.9038  0.6884
  140SAPE     N15218   1.222   5.022  10.870  0.3056 -0.3196  0.2664
  140SAPE   HN115219   1.324   5.026  10.887  0.3881 -1.5672  0.1076
  140SAPE   HN215220   1.192   4.922  10.871  1.2836 -0.6927 -2.1645
  140SAPE   HN315221   1.205   5.063  10.776 -0.7454 -1.0803  0.1041
  140SAPE   C1215222   1.145   5.099  10.979 -0.1934 -0.7423  0.3241
  140SAPE  H12A15223   1.161   5.208  10.960  1.5402 -0.4158  3.1539
  140SAPE  H12B15224   1.197   5.079  11.075  0.5109  1.6978  0.5363
  140SAPE   C1115225   0.992   5.068  10.975  0.5183 -0.1939 -0.4141
  140SAPE  H11A15226   0.957   5.103  10.875  1.2973 -2.5413 -1.5890
  140SAPE  H11B15227   0.941   5.114  11.061 -2.5021 -1.0329 -1.6341
  140SAPE     P15228   0.856   4.849  11.033  0.3325  0.1927  0.1811
  140SAPE   O1315229   0.882   4.707  11.013  0.0208  0.1814  0.6648
  140SAPE   O1415230   0.825   4.898  11.169  0.1569 -0.0484  0.6350
  140SAPE   O1215231   0.982   4.929  10.970 -0.2633  0.1270 -0.0177
  140SAPE   O1115232   0.742   4.892  10.934 -0.0004 -0.2963  0.4555
  140SAPE    C115233   0.730   4.822  10.806 -0.3953 -0.9193  0.0762
  140SAPE    HA15234   0.753   4.713  10.810 -0.7299 -1.0241 -0.6603
  140SAPE    HB15235   0.627   4.839  10.768 -1.0482 -0.9991  1.7264
  140SAPE    C215236   0.824   4.902  10.707  0.6490  0.0309 -0.5248
  140SAPE    HS15237   0.927   4.917  10.745  1.2988 -0.7212 -1.9095
  140SAPE   O2115238   0.763   5.029  10.680 -0.1964  0.4805  0.4642
  140SAPE   C2115239   0.825   5.118  10.607 -0.2654  0.0129 -0.4737
  140SAPE   O2215240   0.941   5.114  10.568 -0.7520 -0.5882  0.1152
  140SAPE   C2215241   0.739   5.243  10.577 -0.4980  0.3150  0.4760
  140SAPE   H2R15242   0.648   5.209  10.522 -0.6077  1.6824 -0.2392
  140SAPE   H2S15243   0.703   5.293  10.670 -0.2295  0.9763  0.2321
  140SAPE    C315244   0.861   4.828  10.572 -1.1224  0.1451  0.5564
  140SAPE    HX15245   0.897   4.725  10.590  1.4168  1.1755  2.0069
  140SAPE    HY15246   0.945   4.881  10.522 -0.1146 -0.3559  1.6508
  140SAPE   O3115247   0.746   4.824  10.483  0.4996  0.4397  0.6732
  140SAPE   C3115248   0.700   4.712  10.426 -0.2289 -0.0405 -0.0968
  140SAPE   O3215249   0.729   4.603  10.472  0.3719  0.0655 -0.4400
  140SAPE   C3215250   0.628   4.742  10.300  0.0304  0.1287 -0.1700
  140SAPE   H2X15251   0.694   4.802  10.235 -0.8391 -0.0974 -1.3005
  140SAPE   H2Y15252   0.540   4.808  10.316  1.5574  2.1279  0.3721
  140SAPE   C2315253   0.812   5.335  10.480 -0.5593 -0.6458  0.5225
  140SAPE   H3R15254   0.910   5.363  10.525 -1.2711 -0.2057  1.8118
  140SAPE   H3S15255   0.759   5.432  10.467  0.0627 -0.2679  0.7423
  140SAPE   C2415256   0.822   5.268  10.338 -0.1604 -0.2740  0.0762
  140SAPE   H4R15257   0.718   5.233  10.316 -0.1821 -0.4170  0.4051
  140SAPE   H4S15258   0.887   5.178  10.344 -2.1707 -1.8308 -0.2438
  140SAPE   C2515259   0.880   5.353  10.221  0.2852  0.3303 -0.2945
  140SAPE   H5R15260   0.956   5.426  10.250  1.0192 -0.2350 -0.7700
  140SAPE   C2615261   0.855   5.349  10.090  0.4041 -0.2313  0.3340
  140SAPE   H6R15262   0.903   5.418  10.018  0.9695 -1.6661 -0.7286
  140SAPE   C2715263   0.750   5.262  10.025  0.1102  0.1082 -1.4310
  140SAPE   H7R15264   0.725   5.304   9.925 -0.5029  2.5939 -0.2934
  140SAPE   H7S15265   0.663   5.251  10.093  1.8191  0.6053  0.9448
  140SAPE   C2815266   0.796   5.120  10.026 -0.3835 -0.0671  0.3179
  140SAPE   H8R15267   0.864   5.085  10.104 -0.6271 -3.1353 -0.7013
  140SAPE   C2915268   0.762   5.034   9.921  0.5413 -0.1896 -0.3694
  140SAPE   H9R15269   0.792   4.928   9.931  0.4181 -0.1597  0.3753
  140SAPE  C21015270   0.662   5.062   9.807 -0.2555 -0.3018  0.7638
  140SAPE  H10R15271   0.720   5.088   9.716 -3.0814 -0.8289 -1.3144
  140SAPE  H10S15272   0.605   5.156   9.819  1.4276  1.1778 -1.9082
  140SAPE  C21115273   0.551   4.956   9.769 -1.4980 -0.1358 -0.6033
  140SAPE  H11R15274   0.495   4.911   9.853  0.0097 -1.0522 -0.0492
  140SAPE  C21215275   0.530   4.918   9.637 -0.5044 -0.4001 -0.5786
  140SAPE  H12R15276   0.448   4.850   9.610  1.4214 -2.7497 -0.8424
  140SAPE  C21315277   0.619   4.960   9.516  0.9536  0.1347 -0.0725
  140SAPE  H13R15278   0.694   4.882   9.489  0.7716  0.5700 -2.0128
  140SAPE  H13S15279   0.685   5.046   9.542  0.9193 -0.4036  1.9361
  140SAPE  C21415280   0.534   4.986   9.389 -0.2072 -0.2934 -0.1495
  140SAPE  H14R15281   0.540   5.092   9.359 -0.0382 -0.0295  0.8061
  140SAPE  C21515282   0.481   4.890   9.303  0.2746 -0.0589  0.5111
  140SAPE  H15R15283   0.428   4.929   9.215 -2.0316  1.9908  2.7039
  140SAPE  C21615284   0.494   4.733   9.312 -0.1132 -0.7791  0.3543
  140SAPE  H16R15285   0.392   4.694   9.328  0.6071 -1.9464  2.5873
  140SAPE  H16S15286   0.556   4.710   9.402  1.8866  1.3749 -0.3525
  140SAPE  C21715287   0.552   4.680   9.182  0.2817  1.1588 -0.6371
  140SAPE  H17R15288   0.587   4.578   9.209 -2.1452  0.7798  1.4513
  140SAPE  H17S15289   0.641   4.735   9.145  0.4218  0.2961 -1.6163
  140SAPE  C21815290   0.428   4.660   9.091 -0.1951 -0.1782  0.4885
  140SAPE  H18R15291   0.360   4.747   9.087 -1.2178 -0.9745  0.1891
  140SAPE  H18S15292   0.374   4.567   9.118 -0.3900  0.3523  2.0597
  140SAPE  C21915293   0.482   4.641   8.951 -0.1995 -0.3965  0.5598
  140SAPE  H19R15294   0.536   4.545   8.934 -0.4710 -0.2141 -1.5971
  140SAPE  H19S15295   0.552   4.726   8.939  0.9806 -1.1147  1.9298
  140SAPE  C22015296   0.367   4.648   8.848  0.1397  0.2769 -0.7427
  140SAPE  H20R15297   0.304   4.557   8.857  0.0804  0.3601 -0.2909
  140SAPE  H20S15298   0.417   4.652   8.750  1.6423 -0.0959 -0.0193
  140SAPE  H20T15299   0.313   4.744   8.863 -0.2500 -0.2510  1.7512
  140SAPE   C3315300   0.573   4.619  10.219 -0.4776  0.3115  0.1869
  140SAPE   H3X15301   0.509   4.558  10.286  0.0731  0.0584  0.4940
  140SAPE   H3Y15302   0.659   4.562  10.177 -1.0580 -1.2140  0.9788
  140SAPE   C3415303   0.473   4.664  10.114 -0.2584  0.0145 -0.1800
  140SAPE   H4X15304   0.520   4.743  10.051 -0.1991  0.0974 -0.0318
  140SAPE   H4Y15305   0.382   4.689  10.172  0.7212  0.7875  1.0841
  140SAPE   C3515306   0.416   4.548  10.022 -0.3846 -0.6890 -0.4682
  140SAPE   H5X15307   0.328   4.602   9.981  0.0925  1.3933  1.1054
  140SAPE   H5Y15308   0.393   4.460  10.085 -2.1054  0.5122  0.6570
  140SAPE   C3615309   0.512   4.518   9.913 -0.1979  0.3257 -0.4789
  140SAPE   H6X15310   0.608   4.474   9.947 -0.2418  0.4316 -0.2140
  140SAPE   H6Y15311   0.544   4.613   9.866 -0.8207  0.5109 -0.5440
  140SAPE   C3715312   0.441   4.427   9.810 -0.0049  0.5646  0.6892
  140SAPE   H7X15313   0.360   4.492   9.772  0.5234  0.4010 -0.7806
  140SAPE   H7Y15314   0.399   4.344   9.871  0.3796  1.4621  2.2320
  140SAPE   C3815315   0.524   4.382   9.687 -0.6088 -0.3294  0.0283
  140SAPE   H8X15316   0.586   4.297   9.722 -0.3976 -0.1412  0.1128
  140SAPE   H8Y15317   0.594   4.463   9.655  0.6196  0.0287  3.2177
  140SAPE   C3915318   0.431   4.334   9.571  0.0155  0.0577 -0.1039
  140SAPE   H9X15319   0.370   4.419   9.537  0.4651  1.1992  1.7907
  140SAPE   H9Y15320   0.372   4.250   9.614 -0.0911  0.1545 -0.0630
  140SAPE  C31015321   0.506   4.280   9.445  0.2028 -0.4598  0.0720
  140SAPE  H10X15322   0.577   4.203   9.481 -0.1592 -1.2064 -0.7489
  140SAPE  H10Y15323   0.556   4.369   9.401 -0.9913  0.5987  0.8015
  140SAPE  C31115324   0.409   4.222   9.333 -0.4483 -0.7430 -0.7023
  140SAPE  H11X15325   0.342   4.304   9.298 -0.1668  0.0680  0.5995
  140SAPE  H11Y15326   0.351   4.143   9.385  0.5110  1.1673  3.7519
  140SAPE  C31215327   0.490   4.178   9.207 -0.2561 -0.7083  0.0179
  140SAPE  H12X15328   0.552   4.090   9.235  0.9210  0.0270 -0.1869
  140SAPE  H12Y15329   0.557   4.257   9.168 -1.0953 -0.6474 -1.3590
  140SAPE  C31315330   0.383   4.128   9.101  0.5107  0.0242  0.0002
  140SAPE  H13X15331   0.331   4.220   9.065  0.2166 -1.0657 -2.6318
  140SAPE  H13Y15332   0.314   4.060   9.154 -0.0313  1.6199  1.4401
  140SAPE  C31415333   0.456   4.050   8.989  0.8140  0.2906  0.4283
  140SAPE  H14X15334   0.512   3.962   9.029  0.1373  0.2774  1.3728
  140SAPE  H14Y15335   0.535   4.120   8.956  1.5970 -0.5212  0.5225
  140SAPE  C31515336   0.355   4.019   8.876 -0.4115  1.2287 -0.7091
  140SAPE  H15X15337   0.271   4.089   8.888  0.3850  1.8032  2.2783
  140SAPE  H15Y15338   0.324   3.916   8.905  0.4501  1.9127  3.2790
  140SAPE  C31615339   0.413   4.014   8.735 -0.3167  0.2707  0.4717
  140SAPE  H16X15340   0.487   3.933   8.719 -1.0838 -0.1242 -1.3748
  140SAPE  H16Y15341   0.465   4.111   8.720  0.1702 -0.2740 -1.7700
  140SAPE  C31715342   0.305   4.018   8.624  0.4059 -0.9259 -0.4920
  140SAPE  H17X15343   0.245   4.110   8.641 -0.3951 -1.6365  0.6742
  140SAPE  H17Y15344   0.237   3.931   8.634  1.3359 -1.4652  1.4425
  140SAPE  C31815345   0.351   4.019   8.476  0.4666  0.2887  0.0540
  140SAPE  H18X15346   0.255   4.035   8.422  0.4416 -3.2062 -1.1610
  140SAPE  H18Y15347   0.391   3.919   8.449 -0.9280 -0.2575 -0.0809
  140SAPE  H18Z15348   0.427   4.099   8.463  0.6232  0.2379  0.6451
  141SAPE     N15349   0.158   2.583  10.748  0.0787  0.8669 -0.4161
  141SAPE   HN115350   0.136   2.483  10.770  1.4298 -0.0381 -2.8747
  141SAPE   HN215351   0.167   2.619  10.846 -2.6436 -0.5583  0.4636
  141SAPE   HN315352   0.082   2.629  10.694 -0.6213  0.2374  0.0029
  141SAPE   C1215353   0.288   2.596  10.683  0.2850 -0.2081 -0.3138
  141SAPE  H12A15354   0.268   2.575  10.576  1.9765  1.8964 -1.1396
  141SAPE  H12B15355   0.354   2.513  10.717 -0.2827 -0.6406 -0.2616
  141SAPE   C1115356   0.363   2.727  10.703  0.4782 -0.2294  0.5149
  141SAPE  H11A15357   0.282   2.801  10.681 -0.1144 -0.5671  1.5173
  141SAPE  H11B15358   0.448   2.744  10.634  0.9717  0.0989  1.1930
  141SAPE     P15359   0.392   2.868  10.925  0.2321 -0.2363  0.2781
  141SAPE   O1315360   0.246   2.875  10.951  0.1639  0.1530 -0.4583
  141SAPE   O1415361   0.486   2.880  11.044 -0.1138 -0.4847 -0.2043
  141SAPE   O1215362   0.418   2.743  10.830  0.0540  0.6300  0.6048
  141SAPE   O1115363   0.442   2.982  10.830 -0.3393  0.2890  0.9197
  141SAPE    C115364   0.360   3.099  10.801  1.0127 -0.4496  0.7647
  141SAPE    HA15365   0.265   3.106  10.857 -0.3832 -1.8700 -1.2839
  141SAPE    HB15366   0.424   3.183  10.836  3.3828 -1.9260  0.2446
  141SAPE    C215367   0.320   3.108  10.651  0.3016  0.2800 -0.3959
  141SAPE    HS15368   0.276   3.007  10.637  2.5528 -0.6460 -1.1590
  141SAPE   O2115369   0.435   3.136  10.579  0.4726  0.5528  0.5083
  141SAPE   C2115370   0.461   3.067  10.464  0.2197 -0.2925  0.3056
  141SAPE   O2215371   0.395   2.969  10.421 -0.2338  0.1989 -0.2189
  141SAPE   C2215372   0.584   3.131  10.403 -0.1010  0.5734 -0.2604
  141SAPE   H2R15373   0.585   3.242  10.402  2.4589  0.7328  3.2953
  141SAPE   H2S15374   0.663   3.109  10.477 -0.7542  0.6362  0.4607
  141SAPE    C315375   0.211   3.218  10.621  0.3392  0.4096  0.3404
  141SAPE    HX15376   0.259   3.317  10.639 -0.3299  1.1567 -1.6357
  141SAPE    HY15377   0.135   3.208  10.702  0.7003  2.0170  0.9282
  141SAPE   O3115378   0.160   3.203  10.486 -0.0448 -0.4802 -0.1081
  141SAPE   C3115379   0.058   3.119  10.471 -0.7367  0.6195  0.3004
  141SAPE   O3215380   0.018   3.040  10.552  0.1965  0.4184 -0.1994
  141SAPE   C3215381  -0.000   3.132  10.333 -0.5903 -0.3214  0.0356
  141SAPE   H2X15382   0.086   3.148  10.265 -1.3791  1.0237 -0.7189
  141SAPE   H2Y15383  -0.058   3.227  10.332 -0.9097 -0.4133  2.7502
  141SAPE   C2315384   0.634   3.078  10.268  0.0248 -0.2351 -0.7620
  141SAPE   H3R15385   0.560   3.099  10.188  0.6366  1.3269 -0.9525
  141SAPE   H3S15386   0.643   2.968  10.267  0.5680 -0.1937 -0.7263
  141SAPE   C2415387   0.758   3.143  10.212 -0.4506  0.8097 -0.0895
  141SAPE   H4R15388   0.756   3.253  10.230  0.9098  0.7955  0.2937
  141SAPE   H4S15389   0.752   3.125  10.103  2.2959  1.4304 -0.4310
  141SAPE   C2515390   0.889   3.086  10.270 -0.2499  0.0517 -0.1838
  141SAPE   H5R15391   0.887   3.055  10.376 -1.8500 -0.1595 -0.2571
  141SAPE   C2615392   0.999   3.072  10.197 -0.9235  0.4974 -0.6473
  141SAPE   H6R15393   1.090   3.026  10.239 -1.9334  0.5955  1.8089
  141SAPE   C2715394   1.005   3.098  10.048  0.1242  0.1318  0.1214
  141SAPE   H7R15395   0.980   3.204  10.027 -0.0341 -0.0168 -0.4671
  141SAPE   H7S15396   0.921   3.047   9.996  0.5615 -1.2562  0.7388
  141SAPE   C2815397   1.129   3.056   9.974 -0.4370 -0.5668  0.5446
  141SAPE   H8R15398   1.208   2.998  10.022 -0.4266 -1.7441 -0.8506
  141SAPE   C2915399   1.135   3.068   9.842  0.3164 -0.4675  0.0253
  141SAPE   H9R15400   1.232   3.048   9.794  2.4565  0.1358  3.7683
  141SAPE  C21015401   1.038   3.128   9.749  0.5860 -0.2294  0.2735
  141SAPE  H10R15402   1.095   3.207   9.695  0.3268 -0.5945 -0.5511
  141SAPE  H10S15403   0.965   3.179   9.816  0.2436 -1.3796  0.8015
  141SAPE  C21115404   0.957   3.037   9.662 -0.3840 -0.1220 -0.0039
  141SAPE  H11R15405   0.886   2.980   9.723  1.9497 -0.9388  2.0907
  141SAPE  C21215406   0.980   3.027   9.526  0.4500  0.1283 -0.0379
  141SAPE  H12R15407   0.919   2.959   9.465  0.6900  0.1559 -0.3152
  141SAPE  C21315408   1.081   3.102   9.442  0.6216  0.7095 -0.2391
  141SAPE  H13R15409   1.118   3.043   9.356  0.0847  0.0317 -0.0073
  141SAPE  H13S15410   1.166   3.135   9.506  0.0137  0.1639  0.8834
  141SAPE  C21415411   1.016   3.228   9.383  0.0734  0.0566 -0.4777
  141SAPE  H14R15412   0.933   3.206   9.315  0.5124 -0.2511 -0.9179
  141SAPE  C21515413   1.043   3.354   9.417  0.2820  0.4944 -0.3580
  141SAPE  H15R15414   1.005   3.437   9.355  2.1070  1.5638 -0.1259
  141SAPE  C21615415   1.146   3.414   9.513  0.2866  0.4975 -0.3050
  141SAPE  H16R15416   1.226   3.339   9.532 -0.1055  0.2330  0.3451
  141SAPE  H16S15417   1.114   3.449   9.614  2.3964 -0.6711  0.8401
  141SAPE  C21715418   1.213   3.533   9.446 -0.2624 -0.8232  0.4662
  141SAPE  H17R15419   1.270   3.590   9.522 -2.6216  5.2177 -1.7409
  141SAPE  H17S15420   1.136   3.600   9.402  1.1176 -0.3245 -1.2865
  141SAPE  C21815421   1.306   3.503   9.328  0.1410 -0.2663  0.0899
  141SAPE  H18R15422   1.252   3.487   9.232 -0.6797 -0.5011  0.5764
  141SAPE  H18S15423   1.360   3.409   9.349  0.5254 -0.4688 -1.6062
  141SAPE  C21915424   1.407   3.616   9.295  0.6671 -0.1013  0.2008
  141SAPE  H19R15425   1.476   3.604   9.209  0.8745 -0.1842  0.3809
  141SAPE  H19S15426   1.463   3.628   9.390  0.2786  0.5124  0.3599
  141SAPE  C22015427   1.315   3.737   9.253 -0.2520  0.5958 -0.1714
  141SAPE  H20R15428   1.377   3.829   9.250 -0.6250  0.8554  0.1378
  141SAPE  H20S15429   1.236   3.756   9.328  0.6812  0.6800  0.8108
  141SAPE  H20T15430   1.263   3.728   9.155 -1.5205 -0.1506  0.5500
  141SAPE   C3315431  -0.088   3.012  10.291 -0.3402 -0.0287  0.1977
  141SAPE   H3X15432  -0.186   3.024  10.342 -0.0522  1.0164  0.5343
  141SAPE   H3Y15433  -0.047   2.914  10.323 -1.0377 -0.0797  0.9660
  141SAPE   C3415434  -0.109   2.982  10.136 -0.1973 -0.0653  0.1913
  141SAPE   H4X15435  -0.011   3.001  10.086  0.0908 -0.6821  0.5117
  141SAPE   H4Y15436  -0.179   3.059  10.097 -1.5202 -0.4477  1.7106
  141SAPE   C3515437  -0.161   2.846  10.105 -0.4192  0.5807  0.1064
  141SAPE   H5X15438  -0.249   2.823  10.168 -0.9005 -1.2126 -1.1231
  141SAPE   H5Y15439  -0.083   2.771  10.128  0.0167  1.0063  0.0202
  141SAPE   C3615440  -0.206   2.840   9.959  0.2577 -0.4774  0.4381
  141SAPE   H6X15441  -0.292   2.910   9.964  0.9527  0.6768 -2.1259
  141SAPE   H6Y15442  -0.250   2.738   9.947 -0.5012 -0.3318  1.7945
  141SAPE   C3715443  -0.096   2.855   9.858  0.3463 -0.3256  0.6282
  141SAPE   H7X15444  -0.021   2.773   9.866  0.7162 -0.1585 -0.7933
  141SAPE   H7Y15445  -0.047   2.954   9.859 -1.5946  0.7494 -1.2240
  141SAPE   C3815446  -0.168   2.862   9.723  0.3734  0.1135  0.3532
  141SAPE   H8X15447  -0.263   2.915   9.747 -0.2217 -1.6636  2.1918
  141SAPE   H8Y15448  -0.207   2.764   9.687 -2.5635  1.3578 -0.1796
  141SAPE   C3915449  -0.080   2.917   9.611  0.1876  0.0930  0.3153
  141SAPE   H9X15450   0.004   2.849   9.585  3.5796  4.1000 -0.4242
  141SAPE   H9Y15451  -0.032   3.013   9.643  0.3350  0.2036 -0.2174
  141SAPE  C31015452  -0.155   2.955   9.483  0.1044  0.2440 -0.3576
  141SAPE  H10X15453  -0.232   3.033   9.499  1.5452  1.6065  0.2152
  141SAPE  H10Y15454  -0.207   2.859   9.459  1.8820 -1.5686  2.4329
  141SAPE  C31115455  -0.061   2.986   9.367 -0.4971 -0.4439 -0.3318
  141SAPE  H11X15456  -0.022   2.892   9.321 -0.8533  1.1816 -4.2769
  141SAPE  H11Y15457   0.027   3.030   9.420  0.0626 -2.1270  0.2116
  141SAPE  C31215458  -0.132   3.092   9.281 -0.0470  0.5601  0.2167
  141SAPE  H12X15459  -0.148   3.186   9.338 -1.2349  1.5173 -1.6094
  141SAPE  H12Y15460  -0.238   3.062   9.271 -0.4996  1.5815  1.7085
  141SAPE  C31315461  -0.072   3.132   9.156  0.1821 -0.1112 -0.0518
  141SAPE  H13X15462  -0.091   3.056   9.078  2.1503  2.2715 -3.1057
  141SAPE  H13Y15463   0.039   3.136   9.151  0.1600  0.2720 -0.2707
  141SAPE  C31415464  -0.126   3.256   9.084 -0.1302  0.0945  1.0250
  141SAPE  H14X15465  -0.064   3.287   8.997  0.4603  1.2697  1.8308
  141SAPE  H14Y15466  -0.110   3.338   9.158  1.8859  0.1586  0.5614
  141SAPE  C31515467  -0.273   3.243   9.035 -0.3570  0.0184  0.1344
  141SAPE  H15X15468  -0.340   3.206   9.115  1.0780 -0.3629  1.1966
  141SAPE  H15Y15469  -0.272   3.160   8.961 -2.9191 -1.2805  1.4469
  141SAPE  C31615470  -0.318   3.368   8.961 -0.3149 -0.1733 -0.5035
  141SAPE  H16X15471  -0.333   3.452   9.031  1.7396  2.7052 -3.2380
  141SAPE  H16Y15472  -0.425   3.354   8.933 -0.8572 -0.4151  1.5408
  141SAPE  C31715473  -0.229   3.414   8.844 -0.5060  0.5456  0.4035
  141SAPE  H17X15474  -0.198   3.315   8.805  2.3325  0.6868  1.9979
  141SAPE  H17Y15475  -0.139   3.469   8.880  0.2952 -1.2982  1.3636
  141SAPE  C31815476  -0.293   3.495   8.729 -0.0717  0.4486 -0.0541
  141SAPE  H18X15477  -0.364   3.419   8.690 -1.0334  1.9892 -1.4443
  141SAPE  H18Y15478  -0.229   3.526   8.643  0.9229 -0.3467  0.3870
  141SAPE  H18Z15479  -0.355   3.580   8.767 -0.8263 -1.2860  2.8826
  142SAPE     N15480   0.704   6.369  10.924 -0.1391 -0.2701  0.1984
  142SAPE   HN115481   0.689   6.270  10.953  2.4799 -0.4828  1.1416
  142SAPE   HN215482   0.697   6.442  10.998 -1.2374 -0.1683  0.0143
  142SAPE   HN315483   0.659   6.395  10.834 -1.0928 -2.1983  0.0526
  142SAPE   C1215484   0.851   6.359  10.898  0.9157  0.6729 -0.2961
  142SAPE  H12A15485   0.901   6.458  10.904  0.3904  0.8650  1.5054
  142SAPE  H12B15486   0.857   6.332  10.790  1.3145  1.5335 -0.4996
  142SAPE   C1115487   0.903   6.258  11.005  0.3153 -0.7774  0.8761
  142SAPE  H11A15488   0.888   6.305  11.104  1.0363 -0.4880  0.8538
  142SAPE  H11B15489   1.011   6.232  11.000  0.2078 -1.3116  1.2636
  142SAPE     P15490   0.869   6.001  10.962 -0.4510  0.1824  0.0543
  142SAPE   O1315491   1.008   5.967  11.017 -0.1204  0.2212  0.7825
  142SAPE   O1415492   0.766   5.901  10.986 -0.1738  0.1146  0.0486
  142SAPE   O1215493   0.817   6.146  11.019 -0.9112 -0.1851  0.0130
  142SAPE   O1115494   0.874   6.037  10.805 -0.1244 -0.6897  0.4665
  142SAPE    C115495   0.742   6.039  10.745  0.4026  0.2770  0.6102
  142SAPE    HA15496   0.677   5.955  10.779 -2.3659  1.5149 -1.2314
  142SAPE    HB15497   0.687   6.130  10.777  0.2969 -0.4041  2.4788
  142SAPE    C215498   0.744   6.030  10.594 -0.2343 -0.4783  0.1891
  142SAPE    HS15499   0.656   6.090  10.563  0.6428  0.8587  0.2079
  142SAPE   O2115500   0.745   5.895  10.545 -0.2727  0.3175 -0.3883
  142SAPE   C2115501   0.624   5.847  10.519  0.1381  0.0019  0.0239
  142SAPE   O2215502   0.522   5.900  10.553 -0.6591  0.2160 -0.3190
  142SAPE   C2215503   0.636   5.713  10.447 -0.4048  0.2233 -0.1625
  142SAPE   H2R15504   0.721   5.722  10.376  0.2277  1.9757  0.7586
  142SAPE   H2S15505   0.660   5.641  10.528 -1.7525 -1.0907 -0.8763
  142SAPE    C315506   0.874   6.092  10.534  0.0677  0.0856 -0.0877
  142SAPE    HX15507   0.961   6.026  10.555  0.1920 -0.7418 -2.8787
  142SAPE    HY15508   0.898   6.192  10.578  1.6762 -0.4876  0.4287
  142SAPE   O3115509   0.857   6.121  10.396 -0.4625 -0.3304  1.0190
  142SAPE   C3115510   0.953   6.115  10.314 -0.7555  0.4208  0.2692
  142SAPE   O3215511   1.065   6.072  10.342 -0.8432  0.1627  0.4750
  142SAPE   C3215512   0.900   6.142  10.168 -0.4734 -0.4534 -0.1214
  142SAPE   H2X15513   0.946   6.238  10.137  0.9784 -0.1121  2.7819
  142SAPE   H2Y15514   0.792   6.158  10.189  0.1063  1.3802  1.8435
  142SAPE   C2315515   0.512   5.670  10.370  0.9330  0.6931  0.4852
  142SAPE   H3R15516   0.420   5.660  10.431  1.1993  0.9163  0.9343
  142SAPE   H3S15517   0.528   5.568  10.331 -2.9142  0.1397 -0.0320
  142SAPE   C2415518   0.494   5.762  10.253  0.2234  0.0567 -0.5612
  142SAPE   H4R15519   0.449   5.858  10.287 -2.3469 -1.2106 -0.1545
  142SAPE   H4S15520   0.407   5.718  10.200  0.7784 -0.5196 -1.0017
  142SAPE   C2515521   0.612   5.786  10.150  0.0680  0.2753  0.7654
  142SAPE   H5R15522   0.695   5.847  10.188  1.6456  0.6465 -2.8240
  142SAPE   C2615523   0.622   5.732  10.028 -0.1506 -0.1899  0.6326
  142SAPE   H6R15524   0.720   5.723   9.979  0.0834 -0.2280  1.1006
  142SAPE   C2715525   0.524   5.635   9.967  0.0862 -0.7864  0.2258
  142SAPE   H7R15526   0.446   5.695   9.916  1.3792  0.3517 -0.4697
  142SAPE   H7S15527   0.474   5.572  10.043  1.8173 -0.8974  1.3357
  142SAPE   C2815528   0.586   5.546   9.867  0.0388  0.4735 -0.1753
  142SAPE   H8R15529   0.693   5.519   9.872 -0.4179 -1.4047  0.2427
  142SAPE   C2915530   0.516   5.502   9.760 -0.2766  0.5340  0.3371
  142SAPE   H9R15531   0.567   5.425   9.700 -0.3552  1.7468 -1.3855
  142SAPE  C21015532   0.374   5.528   9.722  0.0910  0.4318  0.2269
  142SAPE  H10R15533   0.373   5.605   9.642  0.4129 -1.8934 -2.1485
  142SAPE  H10S15534   0.307   5.555   9.806 -1.7333 -0.1221 -0.9802
  142SAPE  C21115535   0.304   5.399   9.675  0.4939  0.3962  0.3070
  142SAPE  H11R15536   0.263   5.326   9.747 -0.6397  0.7727  0.0663
  142SAPE  C21215537   0.282   5.366   9.545  0.2010  0.7858 -0.0738
  142SAPE  H12R15538   0.236   5.267   9.530  0.7952  0.4995 -0.0342
  142SAPE  C21315539   0.324   5.441   9.418  0.4001 -0.1531  0.0362
  142SAPE  H13R15540   0.410   5.509   9.436  0.0705 -0.2266  2.2643
  142SAPE  H13S15541   0.242   5.503   9.377  0.6044 -0.1389 -0.3496
  142SAPE  C21415542   0.382   5.334   9.328 -0.2510  0.0593 -1.0307
  142SAPE  H14R15543   0.468   5.281   9.372  0.7385  0.3173 -2.5689
  142SAPE  C21515544   0.338   5.298   9.208  0.4301  0.1873  0.1067
  142SAPE  H15R15545   0.378   5.218   9.145 -0.2989  0.9203 -1.3284
  142SAPE  C21615546   0.215   5.365   9.145 -0.3562  0.2237  0.1965
  142SAPE  H16R15547   0.211   5.474   9.166 -0.9106  0.2033  0.2077
  142SAPE  H16S15548   0.132   5.315   9.200  0.5582  0.3893  1.7853
  142SAPE  C21715549   0.210   5.346   8.995  0.3766  0.4849 -0.6853
  142SAPE  H17R15550   0.113   5.394   8.970  0.1308 -0.4260 -1.5724
  142SAPE  H17S15551   0.183   5.241   8.968  0.0377  0.6185 -0.8720
  142SAPE  C21815552   0.329   5.419   8.932  0.0429 -0.5334 -0.4848
  142SAPE  H18R15553   0.422   5.384   8.982 -0.2776  1.5906  1.8436
  142SAPE  H18S15554   0.322   5.525   8.966  0.4909 -0.2570 -1.2383
  142SAPE  C21915555   0.339   5.395   8.782  0.8541  0.2178  0.3749
  142SAPE  H19R15556   0.357   5.288   8.759  3.2342  0.4452  0.9007
  142SAPE  H19S15557   0.435   5.444   8.752  0.7759 -0.7538 -1.5767
  142SAPE  C22015558   0.232   5.463   8.695  0.1744  0.0232 -0.2608
  142SAPE  H20R15559   0.132   5.429   8.728  1.7193  0.5309  6.3559
  142SAPE  H20S15560   0.256   5.446   8.588 -1.1620  1.5700 -0.8423
  142SAPE  H20T15561   0.233   5.568   8.731  1.5698 -0.1993  0.4157
  142SAPE   C3315562   0.928   6.025  10.072 -0.2576 -0.0310 -0.2338
  142SAPE   H3X15563   0.882   5.936  10.121 -2.4772  0.2007 -1.7690
  142SAPE   H3Y15564   1.036   5.997  10.067 -0.6340 -1.7709  0.5601
  142SAPE   C3415565   0.870   6.028   9.931  0.2244  0.0295  0.0724
  142SAPE   H4X15566   0.850   5.920   9.908  2.2661 -0.4904  0.5861
  142SAPE   H4Y15567   0.947   6.068   9.862  2.3622 -0.1433  2.2277
  142SAPE   C3515568   0.735   6.101   9.909 -0.6140 -1.0274  0.0858
  142SAPE   H5X15569   0.747   6.207   9.938 -2.5809 -0.4660 -0.9874
  142SAPE   H5Y15570   0.659   6.057   9.978 -3.0179 -0.3467 -1.9977
  142SAPE   C3615571   0.675   6.094   9.766 -0.3580  0.0746  0.2804
  142SAPE   H6X15572   0.738   6.151   9.695  2.3412 -0.0950  2.3891
  142SAPE   H6Y15573   0.575   6.143   9.773 -2.2740 -3.4617  0.0901
  142SAPE   C3715574   0.656   5.952   9.711  0.8924 -0.1270  0.1042
  142SAPE   H7X15575   0.598   5.878   9.769  0.4808 -0.2331 -0.4378
  142SAPE   H7Y15576   0.758   5.906   9.707  0.8025 -0.2743 -0.5972
  142SAPE   C3815577   0.604   5.949   9.564 -0.8235 -0.1748 -0.0897
  142SAPE   H8X15578   0.637   6.044   9.516 -1.0554  1.1363  2.2242
  142SAPE   H8Y15579   0.494   5.957   9.571 -0.7383  0.5280  0.5781
  142SAPE   C3915580   0.639   5.829   9.487 -0.0025  0.6405  0.9059
  142SAPE   H9X15581   0.584   5.747   9.537  0.0783 -0.2669 -0.4516
  142SAPE   H9Y15582   0.744   5.793   9.494 -0.5509 -0.8867  1.8392
  142SAPE  C31015583   0.589   5.829   9.346 -0.2467  0.2829 -0.5385
  142SAPE  H10X15584   0.619   5.919   9.289 -0.6599  0.3673 -0.6260
  142SAPE  H10Y15585   0.478   5.833   9.349 -0.2587  0.1490 -0.8015
  142SAPE  C31115586   0.629   5.700   9.266 -0.0223 -0.4263 -0.2210
  142SAPE  H11X15587   0.597   5.619   9.335  0.1652  0.8054  1.3661
  142SAPE  H11Y15588   0.737   5.687   9.246 -0.1200  0.8021 -1.7120
  142SAPE  C31215589   0.555   5.681   9.130  0.4236  0.2417  0.2478
  142SAPE  H12X15590   0.450   5.701   9.159  0.6688 -0.9887  2.2407
  142SAPE  H12Y15591   0.568   5.575   9.098 -2.7329 -0.1862  0.1548
  142SAPE  C31315592   0.610   5.778   9.020  0.2031  0.2270  0.2721
  142SAPE  H13X15593   0.718   5.756   9.004  0.1619 -0.3577  0.7337
  142SAPE  H13Y15594   0.615   5.886   9.047  2.2110 -0.0515  1.1696
  142SAPE  C31415595   0.542   5.756   8.884 -0.2856  0.2131 -0.8736
  142SAPE  H14X15596   0.436   5.784   8.902  0.3395  2.1971  0.0414
  142SAPE  H14Y15597   0.549   5.650   8.854 -0.1869  0.1659 -0.6835
  142SAPE  C31515598   0.588   5.858   8.779  0.2173  0.6013  0.4366
  142SAPE  H15X15599   0.693   5.832   8.754 -0.6326 -0.6664 -2.2498
  142SAPE  H15Y15600   0.583   5.957   8.828 -0.9244 -0.2319  2.1407
  142SAPE  C31615601   0.511   5.866   8.646  0.3740  0.3197 -0.3076
  142SAPE  H16X15602   0.529   5.768   8.595  0.4310 -0.0030  0.3285
  142SAPE  H16Y15603   0.556   5.943   8.580 -2.4762 -0.3408 -3.2805
  142SAPE  C31715604   0.362   5.870   8.659 -0.7573 -0.3434  0.2884
  142SAPE  H17X15605   0.324   5.970   8.692 -3.9142 -1.2613 -0.2379
  142SAPE  H17Y15606   0.335   5.787   8.727 -0.5571  0.1494  0.9851
  142SAPE  C31815607   0.288   5.832   8.526  0.3719  0.4137  0.1191
  142SAPE  H18X15608   0.180   5.858   8.529 -0.6101 -2.5974 -3.0008
  142SAPE  H18Y15609   0.306   5.726   8.500 -2.5977 -0.7154  2.1188
  142SAPE  H18Z15610   0.322   5.907   8.451  2.4921 -0.2801  0.3214
  143SAPE     N15611   4.763   6.578  10.836  0.1061 -0.0773 -0.5065
  143SAPE   HN115612   4.799   6.503  10.899  1.8293  0.0835 -1.2408
  143SAPE   HN215613   4.779   6.662  10.894 -0.2058 -0.2434 -0.1792
  143SAPE   HN315614   4.662   6.558  10.826 -0.7165  1.6983  2.8496
  143SAPE   C1215615   4.845   6.581  10.711 -0.0822  0.4649  0.1242
  143SAPE  H12A15616   4.946   6.620  10.736 -0.7564  1.1752  1.8256
  143SAPE  H12B15617   4.804   6.651  10.635 -0.6523 -0.4840 -0.4609
  143SAPE   C1115618   4.846   6.444  10.640  0.6227  0.4010 -0.3772
  143SAPE  H11A15619   4.906   6.457  10.547  2.4338  2.2419  0.9561
  143SAPE  H11B15620   4.742   6.409  10.624 -0.2350  2.4076  0.4604
  143SAPE     P15621   5.070   6.344  10.733 -0.0097  0.2276  0.4820
  143SAPE   O1315622   5.104   6.341  10.878 -0.6049  0.1608  0.1178
  143SAPE   O1415623   5.117   6.236  10.646 -0.4127 -0.1769 -0.2544
  143SAPE   O1215624   4.912   6.361  10.729 -0.1805  0.6442 -0.2174
  143SAPE   O1115625   5.121   6.486  10.671  0.7906  0.1826  0.5516
  143SAPE    C115626   5.235   6.491  10.587 -0.1841 -0.4947  0.1145
  143SAPE    HA15627   5.331   6.478  10.642  0.2627  3.4341  0.5803
  143SAPE    HB15628   5.242   6.410  10.512  1.1646  0.5214 -0.9161
  143SAPE    C215629   5.232   6.614  10.498  0.5538  0.0646  0.5976
  143SAPE    HS15630   5.228   6.706  10.561 -1.1972  1.4541 -1.3822
  143SAPE   O2115631   5.113   6.592  10.414  0.1816 -0.2170  0.3902
  143SAPE   C2115632   5.057   6.702  10.376 -0.6329  0.0858  0.4709
  143SAPE   O2215633   5.088   6.816  10.407 -0.0964 -0.4286 -0.0527
  143SAPE   C2215634   4.925   6.663  10.297 -0.3107 -0.0596 -0.4755
  143SAPE   H2R15635   4.959   6.600  10.212  2.8989  1.2204 -0.3075
  143SAPE   H2S15636   4.854   6.615  10.367  1.5358  0.8365  2.1694
  143SAPE    C315637   5.357   6.613  10.410 -0.4053  0.2534 -0.4080
  143SAPE    HX15638   5.391   6.508  10.397 -0.8488  0.3086 -2.3403
  143SAPE    HY15639   5.452   6.657  10.447  2.6320 -4.7365 -1.2567
  143SAPE   O3115640   5.325   6.666  10.278  0.0521  0.2864  0.1834
  143SAPE   C3115641   5.344   6.795  10.249 -0.9685  0.2780  0.1945
  143SAPE   O3215642   5.355   6.888  10.331 -0.3174 -0.2090  0.0579
  143SAPE   C3215643   5.355   6.819  10.095  0.9321 -0.7407  0.9026
  143SAPE   H2X15644   5.289   6.741  10.051  1.0226  0.3529 -1.2865
  143SAPE   H2Y15645   5.457   6.787  10.066  0.9971 -0.7648  1.1515
  143SAPE   C2315646   4.853   6.781  10.237 -0.5034  0.0139 -0.2544
  143SAPE   H3R15647   4.833   6.859  10.314 -2.0813 -0.7382  0.1597
  143SAPE   H3S15648   4.764   6.744  10.180 -0.5272 -0.2581 -0.0464
  143SAPE   C2415649   4.919   6.855  10.119  0.8478  0.4367  0.0785
  143SAPE   H4R15650   4.974   6.786  10.051  1.9730  1.3988 -0.0159
  143SAPE   H4S15651   5.005   6.898  10.174  1.6507 -2.1659  1.0189
  143SAPE   C2515652   4.827   6.936  10.031 -0.3790 -0.1019  0.0759
  143SAPE   H5R15653   4.764   7.015  10.074  0.7735  0.5280  0.6261
  143SAPE   C2615654   4.829   6.934   9.896  0.2265  0.4323 -0.2899
  143SAPE   H6R15655   4.767   7.010   9.849 -0.6412 -1.2837 -2.0296
  143SAPE   C2715656   4.903   6.852   9.791 -0.2781  0.6527  0.7307
  143SAPE   H7R15657   4.847   6.848   9.695  0.6129 -1.0266  0.2400
  143SAPE   H7S15658   4.925   6.748   9.824 -0.6020 -0.3639 -1.9629
  143SAPE   C2815659   5.042   6.901   9.749 -1.1161 -0.0982  0.0456
  143SAPE   H8R15660   5.122   6.856   9.809 -1.0247  1.2503  0.9786
  143SAPE   C2915661   5.063   6.996   9.656  0.3448 -0.0285 -0.1659
  143SAPE   H9R15662   5.164   7.029   9.629 -0.0501  1.6545  0.3088
  143SAPE  C21015663   4.951   7.064   9.584  0.0018 -0.4833  0.1886
  143SAPE  H10R15664   4.866   7.092   9.650 -0.3235 -1.8421  0.3919
  143SAPE  H10S15665   4.909   6.994   9.508 -2.6109 -0.6801  1.7111
  143SAPE  C21115666   4.988   7.195   9.523  0.0598 -0.4794  0.2852
  143SAPE  H11R15667   4.933   7.284   9.556 -1.2569 -0.7401 -1.1046
  143SAPE  C21215668   5.063   7.219   9.410 -0.3958  0.7699 -0.1444
  143SAPE  H12R15669   5.078   7.324   9.383  2.2038  1.0144  1.9122
  143SAPE  C21315670   5.128   7.109   9.330 -0.1792  0.0654  0.3749
  143SAPE  H13R15671   5.195   7.052   9.397 -0.0217  0.6064  0.6847
  143SAPE  H13S15672   5.193   7.168   9.261 -2.3832  1.3162 -0.7602
  143SAPE  C21415673   5.037   7.031   9.241 -0.0315 -0.0674  0.4109
  143SAPE  H14R15674   4.974   6.957   9.293  0.1288  0.2216  1.0282
  143SAPE  C21515675   5.005   7.058   9.113 -0.0985 -0.5292  0.2789
  143SAPE  H15R15676   4.922   7.007   9.062  0.3280 -2.4353  1.3881
  143SAPE  C21615677   5.060   7.171   9.029 -0.4237 -0.6297  0.2058
  143SAPE  H16R15678   5.167   7.158   9.001 -0.3479  1.5194 -0.6444
  143SAPE  H16S15679   5.056   7.265   9.087  0.0296  0.6177 -1.6731
  143SAPE  C21715680   4.981   7.200   8.900 -0.1739 -0.0422 -0.1471
  143SAPE  H17R15681   4.873   7.211   8.924 -0.0554 -0.6078  0.7125
  143SAPE  H17S15682   5.000   7.113   8.833  1.2555 -0.1829  0.4047
  143SAPE  C21815683   5.012   7.345   8.839  0.2702  0.0058  0.5216
  143SAPE  H18R15684   5.081   7.405   8.902 -0.6567  0.0226  1.5337
  143SAPE  H18S15685   4.914   7.387   8.809  1.8342  1.2723 -3.5476
  143SAPE  C21915686   5.078   7.325   8.705  0.3589 -0.2193  0.2693
  143SAPE  H19R15687   5.010   7.274   8.633  0.6285 -0.5762  0.2654
  143SAPE  H19S15688   5.173   7.272   8.726  3.2387  4.9959  2.1447
  143SAPE  C22015689   5.114   7.460   8.654  0.0782 -0.3476 -0.0217
  143SAPE  H20R15690   5.143   7.530   8.735  1.0023 -1.9682  1.1099
  143SAPE  H20S15691   5.025   7.506   8.604  0.0067 -1.0558 -0.5654
  143SAPE  H20T15692   5.210   7.458   8.599  0.8233  0.6714  1.1781
  143SAPE   C3315693   5.325   6.962  10.044  0.5164 -0.5936 -0.5457
  143SAPE   H3X15694   5.348   7.038  10.122  1.3058 -0.7390 -0.6236
  143SAPE   H3Y15695   5.217   6.965  10.019  0.0988  0.7311  1.2684
  143SAPE   C3415696   5.413   7.001   9.928  0.6872 -0.4507  0.6362
  143SAPE   H4X15697   5.375   6.949   9.838 -0.8919 -0.2406  1.1543
  143SAPE   H4Y15698   5.520   6.973   9.944  1.1187  0.2166 -0.9528
  143SAPE   C3515699   5.410   7.155   9.900  0.4598 -0.2282  0.6228
  143SAPE   H5X15700   5.431   7.209   9.995  1.7508 -1.6202  1.1728
  143SAPE   H5Y15701   5.311   7.189   9.866  1.7551  0.9976 -2.2096
  143SAPE   C3615702   5.508   7.198   9.792  0.5011 -0.4524 -0.1190
  143SAPE   H6X15703   5.612   7.169   9.818  0.1545 -2.5173 -0.8660
  143SAPE   H6Y15704   5.493   7.307   9.776 -1.6115 -0.8125 -0.9154
  143SAPE   C3715705   5.489   7.131   9.666 -0.0799 -0.0357  0.6472
  143SAPE   H7X15706   5.391   7.159   9.622 -0.5257 -0.0464  1.6240
  143SAPE   H7Y15707   5.488   7.020   9.674  0.6843  0.0038  1.5666
  143SAPE   C3815708   5.594   7.163   9.548 -0.0338 -0.7170  0.0793
  143SAPE   H8X15709   5.683   7.100   9.570  0.9022  0.1797 -1.0118
  143SAPE   H8Y15710   5.622   7.270   9.560  0.9782 -1.1921  2.7720
  143SAPE   C3915711   5.527   7.136   9.420 -0.4249  0.2798 -0.1456
  143SAPE   H9X15712   5.437   7.198   9.400 -0.6266 -0.3582 -1.3081
  143SAPE   H9Y15713   5.495   7.031   9.408 -0.0967  0.4783 -4.0492
  143SAPE  C31015714   5.618   7.162   9.303  0.4906 -0.3457 -0.3081
  143SAPE  H10X15715   5.722   7.133   9.329  1.1288  2.4498  0.5240
  143SAPE  H10Y15716   5.616   7.270   9.279  0.8944 -0.4097 -0.6440
  143SAPE  C31115717   5.571   7.096   9.176  0.3448  0.7060  0.0009
  143SAPE  H11X15718   5.473   7.143   9.150 -1.6620 -1.6424  2.6911
  143SAPE  H11Y15719   5.572   6.986   9.193  0.9318  0.9091  1.3923
  143SAPE  C31215720   5.669   7.129   9.072  0.2898  0.7150 -0.3802
  143SAPE  H12X15721   5.741   7.046   9.055  1.4750  1.0403  2.6064
  143SAPE  H12Y15722   5.736   7.216   9.087  2.1126  0.0893 -3.7707
  143SAPE  C31315723   5.596   7.157   8.936  0.0750  0.6013 -0.4431
  143SAPE  H13X15724   5.506   7.092   8.937 -0.2584  0.9027 -3.2113
  143SAPE  H13Y15725   5.655   7.121   8.850  1.1245 -0.9311  0.8680
  143SAPE  C31415726   5.556   7.304   8.925 -0.4431  0.2992 -0.0884
  143SAPE  H14X15727   5.521   7.342   9.024  0.3074  2.2493 -0.5169
  143SAPE  H14Y15728   5.469   7.304   8.856  0.9255 -2.8563 -2.0326
  143SAPE  C31515729   5.675   7.391   8.878 -0.1636 -0.1178 -0.6163
  143SAPE  H15X15730   5.749   7.332   8.821 -0.7415 -0.1032 -1.3935
  143SAPE  H15Y15731   5.716   7.433   8.972 -1.5338  1.2318 -0.5825
  143SAPE  C31615732   5.630   7.505   8.791 -0.0466 -0.0343 -0.3078
  143SAPE  H16X15733   5.554   7.556   8.853  1.2429 -0.3633  1.6491
  143SAPE  H16Y15734   5.577   7.475   8.698 -0.0589  1.8498 -0.9466
  143SAPE  C31715735   5.745   7.593   8.755 -0.1523 -0.4468  0.2211
  143SAPE  H17X15736   5.832   7.586   8.823  0.7013  0.4408 -0.7578
  143SAPE  H17Y15737   5.695   7.693   8.751 -0.6077 -0.6633  0.4229
  143SAPE  C31815738   5.799   7.563   8.608 -0.3214 -0.5957  0.2402
  143SAPE  H18X15739   5.847   7.463   8.605 -0.6337 -0.7199 -0.9173
  143SAPE  H18Y15740   5.873   7.641   8.581 -0.2703 -0.8605 -0.4114
  143SAPE  H18Z15741   5.709   7.566   8.543  0.2818  1.3777 -0.5837
  144SAPE     N15742   1.096   2.260  11.045 -0.3020  0.1011 -0.2629
  144SAPE   HN115743   1.132   2.354  11.072  0.6709  0.0243 -1.2041
  144SAPE   HN215744   1.045   2.281  10.957  1.6813 -0.0770 -1.5356
  144SAPE   HN315745   1.026   2.227  11.113 -0.0862  0.0285 -0.0756
  144SAPE   C1215746   1.201   2.155  11.024  0.3977 -0.2720  0.0666
  144SAPE  H12A15747   1.156   2.055  11.010 -0.5855  0.3480 -1.5499
  144SAPE  H12B15748   1.272   2.164  11.109  1.0339 -0.9240 -0.3871
  144SAPE   C1115749   1.276   2.173  10.885  0.4682  0.0553 -0.2149
  144SAPE  H11A15750   1.334   2.084  10.852  2.2385  1.1462 -0.1790
  144SAPE  H11B15751   1.357   2.248  10.899  0.1313  0.1680  1.2214
  144SAPE     P15752   1.109   2.104  10.705  0.2198 -0.0008 -0.0011
  144SAPE   O1315753   1.029   2.019  10.803 -0.7733  0.5510 -0.0181
  144SAPE   O1415754   1.025   2.171  10.601 -0.1970 -0.1508  0.0358
  144SAPE   O1215755   1.181   2.219  10.785  0.3521 -0.3332  0.2326
  144SAPE   O1115756   1.229   2.017  10.636  0.6506  0.3442 -0.6960
  144SAPE    C115757   1.338   2.082  10.570 -0.7437 -0.2098 -0.5571
  144SAPE    HA15758   1.373   2.174  10.623  3.6351 -2.2080  0.5180
  144SAPE    HB15759   1.431   2.022  10.561 -0.9674 -0.7358  0.5172
  144SAPE    C215760   1.311   2.106  10.423  0.6054 -0.2782  1.1881
  144SAPE    HS15761   1.242   2.191  10.409 -0.4531 -1.2295  0.4721
  144SAPE   O2115762   1.261   1.981  10.373 -0.6156 -0.6806  1.0401
  144SAPE   C2115763   1.157   1.992  10.286 -0.0256  0.6689 -0.2046
  144SAPE   O2215764   1.100   2.094  10.261 -0.1351 -0.3784 -1.0546
  144SAPE   C2215765   1.118   1.855  10.223  0.0386 -0.0888  0.0225
  144SAPE   H2R15766   1.179   1.766  10.249  0.4970 -0.4281 -2.0528
  144SAPE   H2S15767   1.012   1.839  10.253  0.0358  2.4387  1.7448
  144SAPE    C315768   1.434   2.150  10.337  0.3688 -0.1279  0.3323
  144SAPE    HX15769   1.521   2.082  10.351  1.5220  1.4556  1.0720
  144SAPE    HY15770   1.483   2.242  10.375 -0.3217  0.2902  0.2177
  144SAPE   O3115771   1.389   2.154  10.199 -0.4192  0.1827  0.1221
  144SAPE   C3115772   1.342   2.273  10.160  0.0663  0.1068  0.7280
  144SAPE   O3215773   1.380   2.380  10.204  0.7870 -0.6020  0.0942
  144SAPE   C3215774   1.236   2.262  10.047 -0.8583 -0.9178  0.2221
  144SAPE   H2X15775   1.153   2.331  10.071 -1.1767 -1.2260  0.0248
  144SAPE   H2Y15776   1.195   2.158  10.053  3.3682 -2.7373  1.6331
  144SAPE   C2315777   1.106   1.848  10.073  0.4586 -0.1613  0.4367
  144SAPE   H3R15778   1.060   1.939  10.030 -0.5999 -1.7528 -2.0763
  144SAPE   H3S15779   1.028   1.771  10.054  1.0058 -0.6023 -0.0973
  144SAPE   C2415780   1.237   1.837   9.990 -0.4140 -0.5469  0.1876
  144SAPE   H4R15781   1.314   1.892  10.048  0.3173 -1.3107 -0.0358
  144SAPE   H4S15782   1.228   1.903   9.901  2.2183 -0.7006 -0.2871
  144SAPE   C2515783   1.285   1.698   9.966  0.2838  0.2543 -0.0716
  144SAPE   H5R15784   1.354   1.647  10.034  1.0476  1.0733 -0.2096
  144SAPE   C2615785   1.257   1.634   9.851 -0.1144 -0.1077 -0.2464
  144SAPE   H6R15786   1.298   1.536   9.821 -1.7975 -0.8144 -0.3284
  144SAPE   C2715787   1.168   1.681   9.744  0.1534  0.1602  0.1147
  144SAPE   H7R15788   1.072   1.718   9.787  0.4619 -0.4781  1.3829
  144SAPE   H7S15789   1.135   1.594   9.683  0.8000  1.2203 -1.8623
  144SAPE   C2815790   1.241   1.776   9.652  0.2031 -0.6985  0.8802
  144SAPE   H8R15791   1.315   1.834   9.710 -1.2865  0.3094  1.8254
  144SAPE   C2915792   1.226   1.812   9.527  0.5842  0.9024 -1.2580
  144SAPE   H9R15793   1.304   1.876   9.483  0.6114  0.9984 -1.0688
  144SAPE  C21015794   1.127   1.751   9.431 -0.1024 -0.1905 -0.4188
  144SAPE  H10R15795   1.059   1.680   9.483 -0.3442  1.4836  1.6994
  144SAPE  H10S15796   1.178   1.675   9.368 -1.1054 -1.9101  0.7360
  144SAPE  C21115797   1.043   1.849   9.345 -0.7002  0.1039 -0.2421
  144SAPE  H11R15798   0.956   1.893   9.398  0.1746  0.2634  1.1088
  144SAPE  C21215799   1.066   1.890   9.216 -0.5730  0.2459 -0.5044
  144SAPE  H12R15800   0.994   1.955   9.164  0.6069  0.1330 -2.3427
  144SAPE  C21315801   1.178   1.837   9.138  0.1910 -0.0884  0.1789
  144SAPE  H13R15802   1.131   1.740   9.112 -1.8088  0.4771  1.4660
  144SAPE  H13S15803   1.270   1.823   9.199  0.3001  1.4751  0.4282
  144SAPE  C21415804   1.211   1.922   9.020 -0.0043 -0.1713 -0.0905
  144SAPE  H14R15805   1.239   2.027   9.037  0.5983 -0.5180  1.1943
  144SAPE  C21515806   1.243   1.881   8.891 -0.3055  0.4018  0.2539
  144SAPE  H15R15807   1.274   1.956   8.817  2.6443  0.2285  1.1810
  144SAPE  C21615808   1.242   1.741   8.847  0.2263 -0.1009  0.0571
  144SAPE  H16R15809   1.141   1.718   8.806 -0.5699  0.3627  1.6892
  144SAPE  H16S15810   1.279   1.675   8.928  0.8521  0.6284  0.3807
  144SAPE  C21715811   1.343   1.707   8.730  0.0607 -0.7608  0.7065
  144SAPE  H17R15812   1.331   1.597   8.721 -1.2275 -0.6727  1.0629
  144SAPE  H17S15813   1.440   1.742   8.771  1.1642 -1.8270 -0.9151
  144SAPE  C21815814   1.323   1.773   8.591  0.0924  0.7099 -0.2070
  144SAPE  H18R15815   1.369   1.718   8.506 -1.5178  1.6664 -1.7509
  144SAPE  H18S15816   1.370   1.873   8.599 -0.0254  0.6890  0.9345
  144SAPE  C21915817   1.176   1.787   8.549 -0.3523  0.4004  0.0136
  144SAPE  H19R15818   1.176   1.856   8.461 -1.1497  1.1092  0.5548
  144SAPE  H19S15819   1.143   1.846   8.637 -0.0135  1.3299 -0.4588
  144SAPE  C22015820   1.102   1.664   8.517 -0.1887  1.1460  0.0467
  144SAPE  H20R15821   0.992   1.667   8.499 -0.0027 -0.7101 -1.7006
  144SAPE  H20S15822   1.116   1.588   8.598  2.4150  0.8097 -0.6293
  144SAPE  H20T15823   1.142   1.607   8.431 -2.3994 -0.9327  0.2897
  144SAPE   C3315824   1.294   2.297   9.904 -0.2622  0.3665 -0.3331
  144SAPE   H3X15825   1.346   2.395   9.903  1.7628 -0.6327 -1.3772
  144SAPE   H3Y15826   1.200   2.299   9.845 -0.4431  0.1872 -0.0567
  144SAPE   C3415827   1.400   2.192   9.858  0.0140  0.0810 -0.7125
  144SAPE   H4X15828   1.362   2.089   9.842  0.2397  0.0221 -0.8902
  144SAPE   H4Y15829   1.489   2.184   9.925 -0.6384  0.7836  0.2572
  144SAPE   C3515830   1.464   2.235   9.721 -0.3417 -0.1838  0.0454
  144SAPE   H5X15831   1.566   2.192   9.709  1.0849  2.5754  1.4305
  144SAPE   H5Y15832   1.470   2.345   9.717  0.5994 -0.2438 -0.6104
  144SAPE   C3615833   1.383   2.192   9.597  0.4339 -0.1473 -0.1039
  144SAPE   H6X15834   1.273   2.211   9.600  0.3908 -0.2403 -0.9384
  144SAPE   H6Y15835   1.386   2.083   9.578  0.5089 -0.0372 -0.7426
  144SAPE   C3715836   1.426   2.246   9.464  0.2858  0.1997  0.1456
  144SAPE   H7X15837   1.518   2.193   9.431 -0.0035 -0.2473  0.0386
  144SAPE   H7Y15838   1.447   2.354   9.453 -1.1187  0.3404 -1.5562
  144SAPE   C3815839   1.317   2.208   9.358 -0.1012  0.0980 -0.2895
  144SAPE   H8X15840   1.225   2.257   9.394 -0.2613 -0.1092 -0.4165
  144SAPE   H8Y15841   1.309   2.097   9.351 -0.1798  0.0061  0.9978
  144SAPE   C3915842   1.365   2.260   9.224  0.2716 -0.0144 -0.4219
  144SAPE   H9X15843   1.379   2.370   9.219  0.0378 -0.0376 -2.1261
  144SAPE   H9Y15844   1.276   2.248   9.158  0.7124  3.2919 -1.7883
  144SAPE  C31015845   1.485   2.181   9.165  0.8122  0.5586 -0.1208
  144SAPE  H10X15846   1.461   2.073   9.175 -1.3238  1.0656  0.7368
  144SAPE  H10Y15847   1.580   2.206   9.218 -0.0197  0.6521  1.3624
  144SAPE  C31115848   1.500   2.204   9.017  0.2479 -0.1631 -0.4711
  144SAPE  H11X15849   1.541   2.306   9.006 -0.8256  1.0896  4.7237
  144SAPE  H11Y15850   1.402   2.214   8.964 -0.1754  1.0307  0.5182
  144SAPE  C31215851   1.582   2.103   8.939 -0.7165  0.3949  0.0330
  144SAPE  H12X15852   1.523   2.009   8.942 -2.3081  1.3643  0.8449
  144SAPE  H12Y15853   1.681   2.087   8.986  0.2818  1.6277 -1.5209
  144SAPE  C31315854   1.603   2.141   8.792 -0.6781  0.6153  0.0792
  144SAPE  H13X15855   1.684   2.216   8.779  0.6552 -0.9210 -0.6561
  144SAPE  H13Y15856   1.511   2.189   8.750 -1.2516 -1.0843 -0.6621
  144SAPE  C31415857   1.636   2.011   8.708 -0.6701  0.1435  0.0067
  144SAPE  H14X15858   1.543   1.950   8.715 -0.8297 -0.2094 -3.4994
  144SAPE  H14Y15859   1.716   1.950   8.755  1.7972  0.2339 -3.6813
  144SAPE  C31515860   1.672   2.038   8.556  0.3328 -0.2830  0.4090
  144SAPE  H15X15861   1.752   2.113   8.540  1.2245 -1.5394 -1.4046
  144SAPE  H15Y15862   1.588   2.091   8.506  3.3746  2.8698 -1.8639
  144SAPE  C31615863   1.708   1.906   8.481  0.2977  0.2489  0.5318
  144SAPE  H16X15864   1.615   1.846   8.484 -0.0167  0.3365 -2.9528
  144SAPE  H16Y15865   1.785   1.849   8.535 -0.9156 -1.4814  0.5060
  144SAPE  C31715866   1.748   1.922   8.334 -0.8706 -0.1014  0.1622
  144SAPE  H17X15867   1.855   1.950   8.329 -0.5139 -1.4196 -0.1344
  144SAPE  H17Y15868   1.689   2.006   8.292 -0.8589  0.2539  0.8562
  144SAPE  C31815869   1.728   1.800   8.244 -0.6918 -0.0820  0.4049
  144SAPE  H18X15870   1.771   1.824   8.145  0.4332  0.6129  1.0308
  144SAPE  H18Y15871   1.619   1.784   8.231 -0.8654  0.3293  1.2502
  144SAPE  H18Z15872   1.779   1.709   8.284 -0.2566  0.2401  0.5905
  145SAPE     N15873   4.847   5.956  11.028 -0.3907  0.2206  0.6932
  145SAPE   HN115874   4.923   5.890  11.003 -0.7811  0.8148 -2.4418
  145SAPE   HN215875   4.864   5.991  11.124  3.3216 -1.5216  0.8674
  145SAPE   HN315876   4.758   5.902  11.025 -0.1108 -0.2339  0.4946
  145SAPE   C1215877   4.850   6.058  10.919 -0.3938 -0.4718 -0.0359
  145SAPE  H12A15878   4.836   6.007  10.821 -3.6124  1.2619 -0.6385
  145SAPE  H12B15879   4.943   6.118  10.927 -0.0282 -1.0256 -0.0455
  145SAPE   C1115880   4.729   6.155  10.934 -1.2907  0.3078  1.1301
  145SAPE  H11A15881   4.725   6.218  10.843 -1.8158 -1.3118 -0.0235
  145SAPE  H11B15882   4.747   6.215  11.026  1.4802  1.8608 -0.3032
  145SAPE     P15883   4.465   6.153  10.943  0.2556  0.3706  0.1311
  145SAPE   O1315884   4.361   6.044  10.959 -0.2571 -0.2954 -0.0372
  145SAPE   O1415885   4.461   6.256  11.046  0.4063 -0.6661 -0.0754
  145SAPE   O1215886   4.607   6.082  10.939  0.0579  0.5460 -0.4198
  145SAPE   O1115887   4.462   6.226  10.801 -0.2299 -0.6100 -0.0105
  145SAPE    C115888   4.383   6.165  10.699 -0.2270 -0.1763  0.3925
  145SAPE    HA15889   4.292   6.115  10.737 -0.3627 -1.0094 -0.9561
  145SAPE    HB15890   4.345   6.242  10.628 -0.1200  0.7909  1.3519
  145SAPE    C215891   4.473   6.067  10.619  0.4691 -0.0335 -0.1753
  145SAPE    HS15892   4.509   5.990  10.690 -1.2600  0.1993  1.0131
  145SAPE   O2115893   4.575   6.142  10.556  0.4403  0.2457  0.4265
  145SAPE   C2115894   4.685   6.070  10.536 -0.2945  0.7517 -0.9392
  145SAPE   O2215895   4.724   5.971  10.601 -0.6138 -0.0842  0.3297
  145SAPE   C2215896   4.762   6.123  10.419 -0.0484  0.4194 -0.0753
  145SAPE   H2R15897   4.761   6.233  10.435  0.6530  0.6070 -1.1870
  145SAPE   H2S15898   4.862   6.074  10.422  0.2809  1.1214  0.6498
  145SAPE    C315899   4.388   5.989  10.511 -0.3422  0.1687  0.6822
  145SAPE    HX15900   4.352   6.049  10.425 -0.7995 -0.0742  0.7006
  145SAPE    HY15901   4.295   5.967  10.568 -0.0050  0.1205  1.2217
  145SAPE   O3115902   4.470   5.881  10.462  0.1179  0.6515 -0.0102
  145SAPE   C3115903   4.405   5.760  10.462  0.3277  0.2671 -0.0513
  145SAPE   O3215904   4.285   5.748  10.482  0.0631 -0.3093  0.0690
  145SAPE   C3215905   4.503   5.641  10.441 -0.2368 -0.6652 -0.4987
  145SAPE   H2X15906   4.441   5.550  10.452 -0.1408 -0.5902  0.8100
  145SAPE   H2Y15907   4.569   5.645  10.530 -1.3370 -0.6173  0.3484
  145SAPE   C2315908   4.701   6.095  10.278  0.0373  0.2207 -0.5228
  145SAPE   H3R15909   4.618   6.167  10.262  0.4852  0.1152 -4.3221
  145SAPE   H3S15910   4.663   5.991  10.284 -2.3160  1.1045  2.1992
  145SAPE   C2415911   4.793   6.115  10.152 -0.8515  1.0287 -0.2926
  145SAPE   H4R15912   4.846   6.211  10.169  0.9184  0.0285  0.0800
  145SAPE   H4S15913   4.733   6.126  10.059  0.2783  2.6946 -0.8789
  145SAPE   C2515914   4.884   5.996  10.133  0.3426  0.0358 -0.5855
  145SAPE   H5R15915   4.941   5.968  10.223  1.0176 -1.8731 -1.5598
  145SAPE   C2615916   4.897   5.920  10.023  0.2974 -0.2591  0.6686
  145SAPE   H6R15917   4.954   5.826  10.028  0.2467 -0.3819 -0.6664
  145SAPE   C2715918   4.817   5.952   9.895 -0.7672 -0.1054  0.5916
  145SAPE   H7R15919   4.842   6.057   9.868  0.6873 -0.8661 -1.2191
  145SAPE   H7S15920   4.708   5.949   9.913 -0.8783 -0.0657 -0.0601
  145SAPE   C2815921   4.865   5.850   9.786  0.0699 -0.6639  0.2666
  145SAPE   H8R15922   4.909   5.755   9.819  0.5193 -0.2065  1.0368
  145SAPE   C2915923   4.864   5.870   9.649 -0.5911  0.0774  0.0145
  145SAPE   H9R15924   4.904   5.789   9.587  0.7265  1.4910 -1.0859
  145SAPE  C21015925   4.815   5.987   9.583 -0.4311  0.0534  0.1192
  145SAPE  H10R15926   4.748   6.050   9.645  0.6646 -1.1839  2.6669
  145SAPE  H10S15927   4.741   5.951   9.508 -1.7669 -1.6187  2.1413
  145SAPE  C21115928   4.921   6.084   9.521 -0.5280 -0.2289 -0.5164
  145SAPE  H11R15929   4.983   6.132   9.598  3.3110 -1.4641 -2.6007
  145SAPE  C21215930   4.943   6.107   9.390  0.1118 -0.0534  0.2116
  145SAPE  H12R15931   5.036   6.164   9.372  0.7073 -0.8072  0.7912
  145SAPE  C21315932   4.860   6.045   9.275  0.0173  0.0834 -0.2441
  145SAPE  H13R15933   4.789   6.124   9.244  0.2920  0.5016  0.1718
  145SAPE  H13S15934   4.803   5.954   9.304 -0.6037 -0.2512 -2.3321
  145SAPE  C21415935   4.953   6.009   9.164  0.0913  0.2701  0.3584
  145SAPE  H14R15936   5.014   5.918   9.180 -1.5944 -1.4256 -2.2034
  145SAPE  C21515937   4.979   6.079   9.050  0.0522 -0.0685  0.5876
  145SAPE  H15R15938   5.051   6.033   8.980  0.0914  1.2204 -0.2421
  145SAPE  C21615939   4.924   6.217   9.019  0.0196  0.2726 -0.4727
  145SAPE  H16R15940   4.944   6.284   9.105  2.4348 -1.1523  0.1466
  145SAPE  H16S15941   4.813   6.219   9.009  0.0428  1.3779 -0.5685
  145SAPE  C21715942   4.986   6.284   8.902 -0.1795 -0.9633 -0.2935
  145SAPE  H17R15943   5.097   6.288   8.908 -0.1432 -0.6881 -1.0415
  145SAPE  H17S15944   4.948   6.388   8.902 -1.5944 -1.4365 -1.7164
  145SAPE  C21815945   4.945   6.222   8.770 -0.3114 -0.1621 -0.3780
  145SAPE  H18R15946   4.835   6.208   8.771 -0.2517 -0.8160 -1.3587
  145SAPE  H18S15947   4.977   6.116   8.775 -0.5490 -0.1786  1.8192
  145SAPE  C21915948   5.008   6.293   8.650  0.3913 -0.1638  0.1432
  145SAPE  H19R15949   5.116   6.310   8.669  0.1222  0.7478  0.9794
  145SAPE  H19S15950   4.971   6.396   8.629 -1.1521 -0.5860  0.6722
  145SAPE  C22015951   4.990   6.211   8.523 -0.0002 -0.3914 -0.5100
  145SAPE  H20R15952   5.032   6.109   8.527 -2.5667 -1.4833  0.7920
  145SAPE  H20S15953   5.041   6.274   8.446  0.5772  1.8161  1.5394
  145SAPE  H20T15954   4.885   6.186   8.495 -0.0274 -4.0181  2.2001
  145SAPE   C3315955   4.563   5.657  10.300 -0.4554 -0.3980  0.2274
  145SAPE   H3X15956   4.616   5.560  10.288 -0.6636 -0.5497  0.5012
  145SAPE   H3Y15957   4.625   5.746  10.279 -0.6628 -0.1603  0.6117
  145SAPE   C3415958   4.458   5.645  10.187 -0.2151 -0.3108  0.2523
  145SAPE   H4X15959   4.395   5.736  10.177 -0.5203 -0.4109  1.1796
  145SAPE   H4Y15960   4.396   5.554  10.200 -1.1166 -0.0444 -1.7742
  145SAPE   C3515961   4.531   5.623  10.052  0.1764 -0.2628  0.1766
  145SAPE   H5X15962   4.596   5.533  10.052  0.0592 -0.3613 -0.6400
  145SAPE   H5Y15963   4.587   5.718  10.041  0.0514 -0.2098 -0.0336
  145SAPE   C3615964   4.436   5.605   9.929  0.5341  0.2543  0.1044
  145SAPE   H6X15965   4.342   5.664   9.943 -0.1658 -0.3504 -1.7854
  145SAPE   H6Y15966   4.400   5.503   9.902  0.8834  0.2623 -0.4055
  145SAPE   C3715967   4.498   5.662   9.801  0.9513 -0.7584 -0.0792
  145SAPE   H7X15968   4.570   5.585   9.766  1.2446 -1.2639  1.5238
  145SAPE   H7Y15969   4.553   5.757   9.819 -2.0652  0.9600  0.7825
  145SAPE   C3815970   4.388   5.699   9.694 -0.4547 -0.9941  0.1943
  145SAPE   H8X15971   4.313   5.767   9.739 -0.2766  0.9689 -2.2758
  145SAPE   H8Y15972   4.330   5.611   9.659  1.7752 -3.0041  1.2295
  145SAPE   C3915973   4.470   5.751   9.569  0.2269  0.0936  0.2205
  145SAPE   H9X15974   4.568   5.700   9.557  2.2517  3.5837  0.5993
  145SAPE   H9Y15975   4.497   5.853   9.603  0.3362  1.0687 -2.6140
  145SAPE  C31015976   4.399   5.753   9.435 -0.2081 -0.3427  0.4183
  145SAPE  H10X15977   4.309   5.816   9.450  0.0145 -0.3768  2.1925
  145SAPE  H10Y15978   4.379   5.652   9.394 -0.0755 -0.6215  1.0202
  145SAPE  C31115979   4.484   5.824   9.322  0.6755 -0.3246 -0.3001
  145SAPE  H11X15980   4.570   5.761   9.293  0.1793 -1.1678  0.0442
  145SAPE  H11Y15981   4.527   5.914   9.370  1.8246 -0.9182 -0.1947
  145SAPE  C31215982   4.405   5.852   9.193 -0.4710  0.0027  0.0667
  145SAPE  H12X15983   4.316   5.913   9.220 -1.7690 -0.4800 -2.7011
  145SAPE  H12Y15984   4.374   5.750   9.160 -0.9420  0.2361 -0.2324
  145SAPE  C31315985   4.485   5.915   9.076 -0.4723  0.6546 -0.6902
  145SAPE  H13X15986   4.587   5.871   9.077 -1.2304 -1.1655  0.4359
  145SAPE  H13Y15987   4.509   6.017   9.114  1.5611  0.4311 -1.2947
  145SAPE  C31415988   4.410   5.917   8.939  0.2789 -0.1489  0.7651
  145SAPE  H14X15989   4.311   5.968   8.936  0.4883  0.1932 -1.1857
  145SAPE  H14Y15990   4.383   5.811   8.919 -4.6620  1.1849 -1.0571
  145SAPE  C31515991   4.499   5.963   8.823  0.3249 -0.3242  0.2069
  145SAPE  H15X15992   4.599   5.921   8.846 -0.4850 -1.0348  2.6958
  145SAPE  H15Y15993   4.516   6.072   8.837  1.5340 -0.6254  1.1537
  145SAPE  C31615994   4.442   5.949   8.685 -0.1321  0.2659  0.1486
  145SAPE  H16X15995   4.445   5.846   8.642  1.6448  1.0831 -1.8458
  145SAPE  H16Y15996   4.513   6.009   8.624  0.0777  0.2242  0.3492
  145SAPE  C31715997   4.292   5.989   8.655  0.3474  0.6744  0.5552
  145SAPE  H17X15998   4.259   6.075   8.717  0.7889  2.1637 -1.2196
  145SAPE  H17Y15999   4.228   5.901   8.681  0.7342 -0.0331 -0.8067
  145SAPE  C31816000   4.263   6.024   8.512  0.3359  0.5834 -0.3143
  145SAPE  H18X16001   4.306   6.121   8.480  1.2142 -0.2680 -1.8272
  145SAPE  H18Y16002   4.154   6.038   8.502  0.5061  1.1662 -1.4664
  145SAPE  H18Z16003   4.310   5.950   8.444 -0.0042 -0.7063  0.8253
  146SAPE     N16004   0.740   2.128  10.667  0.4364 -0.0931 -0.0585
  146SAPE   HN116005   0.837   2.120  10.631 -0.6336  0.8130 -3.5598
  146SAPE   HN216006   0.696   2.034  10.667  1.7578 -0.7397  0.7683
  146SAPE   HN316007   0.691   2.176  10.589  3.4764 -0.2753 -2.2351
  146SAPE   C1216008   0.709   2.198  10.796 -0.3908  0.6282  1.0944
  146SAPE  H12A16009   0.809   2.193  10.844 -0.1718  0.9052  0.6695
  146SAPE  H12B16010   0.646   2.127  10.855 -1.4242  0.7283  0.1540
  146SAPE   C1116011   0.648   2.336  10.787  0.5797  0.1208  0.4224
  146SAPE  H11A16012   0.630   2.366  10.892  0.6526  1.1722  0.1464
  146SAPE  H11B16013   0.549   2.341  10.736 -0.8510 -2.5617  2.6528
  146SAPE     P16014   0.858   2.493  10.804 -0.0918 -0.0860  0.2106
  146SAPE   O1316015   0.811   2.587  10.906 -0.1664 -0.6662  0.4019
  146SAPE   O1416016   0.948   2.387  10.843 -0.1239  0.1329  0.6333
  146SAPE   O1216017   0.739   2.433  10.722 -0.2697  0.4890  0.9170
  146SAPE   O1116018   0.942   2.573  10.699 -0.4519 -0.6497  0.7837
  146SAPE    C116019   0.891   2.694  10.638 -0.4225  0.0512 -0.1276
  146SAPE    HA16020   0.806   2.667  10.571 -1.4736 -2.3454  1.9951
  146SAPE    HB16021   0.836   2.755  10.713 -0.2260 -0.3892  0.3761
  146SAPE    C216022   0.995   2.786  10.571  0.4537 -0.1619  0.1949
  146SAPE    HS16023   0.939   2.867  10.520 -1.8634 -2.2862 -0.8454
  146SAPE   O2116024   1.082   2.712  10.484  0.0663 -0.2562  1.1433
  146SAPE   C2116025   1.023   2.707  10.362  0.2504 -0.0423 -0.4411
  146SAPE   O2216026   0.907   2.737  10.331 -0.4034  0.6551 -0.4264
  146SAPE   C2216027   1.126   2.662  10.258 -0.0774 -0.0798  0.2405
  146SAPE   H2R16028   1.203   2.736  10.231  0.2414 -1.3998 -2.8154
  146SAPE   H2S16029   1.186   2.589  10.317  0.1867  1.1093  1.4916
  146SAPE    C316030   1.079   2.859  10.679  0.0148 -0.0310 -0.2961
  146SAPE    HX16031   1.126   2.791  10.754  1.4761 -0.6504 -1.7176
  146SAPE    HY16032   1.002   2.921  10.729  1.5916 -0.4548  2.8987
  146SAPE   O3116033   1.175   2.950  10.606  0.0235 -0.0398 -0.1748
  146SAPE   C3116034   1.304   2.937  10.643 -0.2115  0.4691  0.1309
  146SAPE   O3216035   1.331   2.870  10.740  0.4494 -0.3706 -0.2085
  146SAPE   C3216036   1.408   3.015  10.557  0.4361  0.2494 -0.6959
  146SAPE   H2X16037   1.503   2.987  10.606 -1.0424 -0.7895  1.7502
  146SAPE   H2Y16038   1.397   3.123  10.579  3.1483  0.7871 -1.6055
  146SAPE   C2316039   1.062   2.595  10.139  0.1453 -0.2272  0.0886
  146SAPE   H3R16040   0.986   2.515  10.148 -0.5055  0.0518 -2.2512
  146SAPE   H3S16041   1.150   2.545  10.094  1.1084 -1.4754  3.1212
  146SAPE   C2416042   0.992   2.678  10.030 -0.5118 -0.0762 -0.7456
  146SAPE   H4R16043   1.066   2.755   9.997  0.1013 -0.3511 -0.0434
  146SAPE   H4S16044   0.919   2.750  10.073  0.8848  2.0729 -1.7478
  146SAPE   C2516045   0.913   2.596   9.929  0.4055 -0.4638  0.1528
  146SAPE   H5R16046   0.812   2.576   9.968  0.3313  2.3252  1.7120
  146SAPE   C2616047   0.963   2.540   9.815  0.9937  0.0222  0.0377
  146SAPE   H6R16048   0.888   2.504   9.743  2.0384 -1.8752 -0.1571
  146SAPE   C2716049   1.111   2.565   9.782 -0.5758 -0.3296  0.6341
  146SAPE   H7R16050   1.150   2.476   9.728 -1.6433  0.3653 -1.3656
  146SAPE   H7S16051   1.171   2.575   9.875  0.4862  0.1722 -0.0802
  146SAPE   C2816052   1.130   2.682   9.688  0.5936 -0.2710  0.5809
  146SAPE   H8R16053   1.135   2.776   9.746  2.7036 -1.2643  2.1571
  146SAPE   C2916054   1.148   2.678   9.554 -0.8277  0.0037  0.2302
  146SAPE   H9R16055   1.165   2.773   9.502 -1.3106  0.8610  1.5981
  146SAPE  C21016056   1.159   2.554   9.471 -0.2598 -0.1342  0.8004
  146SAPE  H10R16057   1.054   2.519   9.461  0.1586 -1.4870  0.9685
  146SAPE  H10S16058   1.217   2.473   9.520 -1.6958 -2.5671 -1.2667
  146SAPE  C21116059   1.228   2.584   9.341 -0.3192  0.8402 -0.1416
  146SAPE  H11R16060   1.338   2.583   9.339 -0.3150 -0.1198 -2.0564
  146SAPE  C21216061   1.170   2.608   9.225 -0.1546 -0.3816 -1.1718
  146SAPE  H12R16062   1.228   2.623   9.133  1.2643  0.0194 -0.2516
  146SAPE  C21316063   1.020   2.621   9.195 -0.9531 -0.3440  0.5170
  146SAPE  H13R16064   0.955   2.582   9.276 -0.8935 -0.2563  0.6068
  146SAPE  H13S16065   0.992   2.586   9.093 -1.6489  0.6872  0.3409
  146SAPE  C21416066   0.979   2.765   9.216 -0.1583 -0.0639  0.3791
  146SAPE  H14R16067   1.020   2.813   9.306  0.0164 -0.0288  0.2799
  146SAPE  C21516068   0.886   2.838   9.148 -0.5945 -0.1749 -0.1859
  146SAPE  H15R16069   0.865   2.939   9.186  0.1309 -0.3161  0.6260
  146SAPE  C21616070   0.810   2.803   9.022  0.3911 -0.0782 -0.1769
  146SAPE  H16R16071   0.848   2.706   8.982  1.5589  0.1246  0.3883
  146SAPE  H16S16072   0.815   2.882   8.944 -1.6763 -0.5581 -0.8435
  146SAPE  C21716073   0.657   2.774   9.028 -0.4613 -0.0017  0.2966
  146SAPE  H17R16074   0.607   2.769   8.929 -1.1348 -1.7237  0.6804
  146SAPE  H17S16075   0.626   2.865   9.083  0.7944 -0.3924  1.7216
  146SAPE  C21816076   0.615   2.644   9.107 -0.0470  0.2548 -0.0093
  146SAPE  H18R16077   0.685   2.630   9.192  0.7626  2.8211 -0.1640
  146SAPE  H18S16078   0.638   2.562   9.036 -0.2783  1.3705 -1.4200
  146SAPE  C21916079   0.469   2.647   9.144 -0.1908  0.1679 -0.2388
  146SAPE  H19R16080   0.405   2.659   9.054  0.0006  0.3698 -0.3476
  146SAPE  H19S16081   0.467   2.729   9.219  0.7892 -0.0925  0.0912
  146SAPE  C22016082   0.436   2.519   9.216  0.0599 -0.3844  0.0270
  146SAPE  H20R16083   0.331   2.522   9.253  0.5976 -1.6830  1.7612
  146SAPE  H20S16084   0.499   2.513   9.307  0.6445 -3.1055 -0.4679
  146SAPE  H20T16085   0.434   2.424   9.159  0.2341  0.4724 -1.4754
  146SAPE   C3316086   1.421   2.977  10.409  0.1874  0.8351 -0.2775
  146SAPE   H3X16087   1.474   3.049  10.343  0.1510  0.9156 -0.2204
  146SAPE   H3Y16088   1.322   2.964  10.360 -0.3979  1.2141  0.7682
  146SAPE   C3416089   1.489   2.843  10.390 -0.6474 -0.1124  0.3816
  146SAPE   H4X16090   1.428   2.751  10.409 -1.0485  0.3130  1.2139
  146SAPE   H4Y16091   1.572   2.838  10.463 -1.0055  0.4770  0.8359
  146SAPE   C3516092   1.564   2.832  10.261  0.3012 -0.1539 -0.3112
  146SAPE   H5X16093   1.615   2.735  10.243  2.8040  0.9471  0.4158
  146SAPE   H5Y16094   1.630   2.921  10.253  1.6594 -1.1611 -0.8971
  146SAPE   C3616095   1.473   2.852  10.138 -0.3194 -0.1640  1.0429
  146SAPE   H6X16096   1.410   2.943  10.138  1.3017  1.0779 -1.8779
  146SAPE   H6Y16097   1.412   2.759  10.138  0.6979 -0.8512  1.7038
  146SAPE   C3716098   1.541   2.853  10.003  0.5165 -0.6969  0.3718
  146SAPE   H7X16099   1.586   2.753   9.987  1.5142  0.1172 -2.6258
  146SAPE   H7Y16100   1.612   2.938  10.016 -1.6845  1.2754  0.1265
  146SAPE   C3816101   1.456   2.900   9.883  0.2321 -0.1669  0.6052
  146SAPE   H8X16102   1.400   2.987   9.925 -4.8433 -2.5689 -0.3193
  146SAPE   H8Y16103   1.373   2.830   9.860 -3.2991  1.8904  5.3949
  146SAPE   C3916104   1.534   2.928   9.751 -0.3513  0.6800  0.1459
  146SAPE   H9X16105   1.566   2.828   9.715 -1.0880 -0.6982  3.0175
  146SAPE   H9Y16106   1.627   2.986   9.766  0.4110 -0.0120 -1.6404
  146SAPE  C31016107   1.434   2.990   9.647 -0.2401  0.4598 -0.5781
  146SAPE  H10X16108   1.381   3.083   9.676 -2.0149 -1.1280  1.6292
  146SAPE  H10Y16109   1.369   2.909   9.609  1.3759 -1.2065  0.0088
  146SAPE  C31116110   1.521   3.035   9.527  0.4643  0.3946  0.1370
  146SAPE  H11X16111   1.588   2.957   9.486  0.7023 -1.1005  3.0921
  146SAPE  H11Y16112   1.590   3.113   9.567  1.0315 -0.4361  0.8054
  146SAPE  C31216113   1.430   3.081   9.418  0.0442 -0.7438 -0.2635
  146SAPE  H12X16114   1.385   3.178   9.449  2.2667  0.4072 -0.4794
  146SAPE  H12Y16115   1.347   3.007   9.408 -1.5088  0.3751  2.9544
  146SAPE  C31316116   1.501   3.080   9.280  0.3671  0.6858 -0.0281
  146SAPE  H13X16117   1.436   3.048   9.195  0.0785  1.3853 -0.0742
  146SAPE  H13Y16118   1.580   3.003   9.293 -1.9849 -1.5300  2.4133
  146SAPE  C31416119   1.548   3.218   9.237  0.3966  0.3123 -0.0835
  146SAPE  H14X16120   1.573   3.278   9.328 -0.0545 -2.1362  1.7657
  146SAPE  H14Y16121   1.465   3.281   9.200 -0.2576  0.0062  0.8218
  146SAPE  C31516122   1.668   3.206   9.147  0.4300 -0.3815 -0.5865
  146SAPE  H15X16123   1.745   3.141   9.194 -0.1742  0.4036  1.6023
  146SAPE  H15Y16124   1.701   3.312   9.138  1.4931 -0.7243 -0.8113
  146SAPE  C31616125   1.632   3.148   9.010  0.0973 -0.5317  0.3755
  146SAPE  H16X16126   1.537   3.197   8.978  0.0938 -1.0920 -0.5259
  146SAPE  H16Y16127   1.611   3.039   9.021  0.7170 -0.6066  0.8937
  146SAPE  C31716128   1.736   3.177   8.901 -0.4672 -0.0977 -0.4674
  146SAPE  H17X16129   1.707   3.112   8.816 -0.8385  0.9958 -1.1899
  146SAPE  H17Y16130   1.838   3.148   8.935 -1.0841 -2.6352 -0.5937
  146SAPE  C31816131   1.742   3.324   8.857  0.2657  0.1781 -0.1672
  146SAPE  H18X16132   1.812   3.332   8.771 -2.2367 -1.8067 -2.5626
  146SAPE  H18Y16133   1.777   3.381   8.945 -3.8757  0.4729  1.5240
  146SAPE  H18Z16134   1.641   3.366   8.836  0.1473 -0.8396 -1.8988
  147SAPE     N16135   2.114   0.871   5.912  0.0664 -0.6717  0.2353
  147SAPE   HN116136   2.112   0.931   5.827  0.8291  0.5846  1.0695
  147SAPE   HN216137   2.085   0.777   5.876 -0.8644  0.6716 -2.9447
  147SAPE   HN316138   2.045   0.900   5.984 -1.7012 -0.8628 -1.2962
  147SAPE   C1216139   2.247   0.877   5.988  0.0420 -0.8736 -0.1429
  147SAPE  H12A16140   2.325   0.844   5.917  1.4827 -1.4731  1.6266
  147SAPE  H12B16141   2.227   0.818   6.080  0.9318 -3.1249 -1.3165
  147SAPE   C1116142   2.287   1.024   6.013 -0.3300  0.1542 -0.5039
  147SAPE  H11A16143   2.272   1.091   5.925 -3.1103  0.4784  0.1376
  147SAPE  H11B16144   2.397   1.024   6.029 -0.2890 -1.4793 -0.6288
  147SAPE     P16145   2.273   1.188   6.219  0.1793  0.1929 -0.0802
  147SAPE   O1316146   2.418   1.208   6.199 -0.2186  0.0436  0.1836
  147SAPE   O1416147   2.196   1.313   6.209 -0.2464 -0.3430  0.0825
  147SAPE   O1216148   2.209   1.081   6.119  0.3932  0.3983  0.5944
  147SAPE   O1116149   2.246   1.126   6.364  0.0246 -0.1164  0.0743
  147SAPE    C116150   2.112   1.095   6.408  0.1256 -0.5231 -0.3560
  147SAPE    HA16151   2.035   1.163   6.367 -1.4312 -0.7358  2.0685
  147SAPE    HB16152   2.083   1.000   6.358 -1.2089  0.3268 -1.2564
  147SAPE    C216153   2.123   1.070   6.563  0.4009 -0.5900 -0.0036
  147SAPE    HS16154   2.045   0.997   6.593 -0.2785 -0.1827 -0.7537
  147SAPE   O2116155   2.106   1.198   6.634  0.1506  0.1302  0.4329
  147SAPE   C2116156   1.981   1.238   6.649  0.8974  0.5475 -0.2681
  147SAPE   O2216157   1.878   1.174   6.624 -0.2392 -0.6166  0.4700
  147SAPE   C2216158   1.981   1.359   6.729  0.1770 -0.2060 -0.7570
  147SAPE   H2R16159   2.089   1.369   6.755  0.1765  2.0354 -1.4012
  147SAPE   H2S16160   1.949   1.448   6.671 -2.2455 -0.4541  0.0965
  147SAPE    C316161   2.258   0.993   6.599  0.1128 -0.1451  0.6287
  147SAPE    HX16162   2.343   1.049   6.555  0.3191 -1.4877 -0.7718
  147SAPE    HY16163   2.244   0.903   6.535 -0.0457 -0.5296  1.1924
  147SAPE   O3116164   2.274   0.975   6.739  0.2890  0.2665  0.2621
  147SAPE   C3116165   2.265   0.848   6.774  0.4848  0.1214 -0.4254
  147SAPE   O3216166   2.241   0.754   6.710  0.3119  0.0027  0.8772
  147SAPE   C3216167   2.319   0.847   6.915  0.5263  0.0762  0.8256
  147SAPE   H2X16168   2.243   0.790   6.975 -0.7518  0.2586 -0.5575
  147SAPE   H2Y16169   2.327   0.948   6.959  0.4750  0.4395  0.0146
  147SAPE   C2316170   1.890   1.340   6.853  0.6048 -0.2362 -0.0739
  147SAPE   H3R16171   1.786   1.320   6.822  0.4262  0.8869 -0.2263
  147SAPE   H3S16172   1.892   1.434   6.912 -1.4172 -0.2684  0.0929
  147SAPE   C2416173   1.939   1.235   6.958  0.5688  0.0747 -0.0064
  147SAPE   H4R16174   1.934   1.138   6.903  1.9600  0.1637 -0.3302
  147SAPE   H4S16175   1.869   1.235   7.045 -1.4003 -1.9865 -1.4518
  147SAPE   C2516176   2.079   1.265   6.999  0.7597  0.2172 -0.5683
  147SAPE   H5R16177   2.158   1.250   6.923 -0.4335 -1.4480 -1.5397
  147SAPE   C2616178   2.125   1.282   7.119 -0.3233 -0.2351  0.0758
  147SAPE   H6R16179   2.232   1.305   7.129 -0.4047  0.8416 -1.2024
  147SAPE   C2716180   2.040   1.290   7.241 -0.1927  0.4776 -0.2959
  147SAPE   H7R16181   1.956   1.360   7.223 -0.9273  0.8840  3.7157
  147SAPE   H7S16182   2.096   1.332   7.328 -0.7340 -1.7076  1.1982
  147SAPE   C2816183   1.969   1.167   7.288 -0.5409 -1.3327 -0.0369
  147SAPE   H8R16184   1.958   1.079   7.223 -0.5919 -0.8984 -0.6222
  147SAPE   C2916185   1.917   1.161   7.413 -0.7300 -0.8014  1.1414
  147SAPE   H9R16186   1.862   1.068   7.434 -1.0301 -0.6094  1.2031
  147SAPE  C21016187   1.917   1.265   7.522  0.1628 -0.8636  0.3258
  147SAPE  H10R16188   1.935   1.365   7.477  0.9792  1.4065  5.0212
  147SAPE  H10S16189   2.010   1.248   7.581  1.0045  3.4090  0.5625
  147SAPE  C21116190   1.786   1.261   7.593  0.5531  0.8261 -0.5376
  147SAPE  H11R16191   1.714   1.331   7.549 -0.9641 -1.5067 -1.9983
  147SAPE  C21216192   1.763   1.185   7.702 -0.5506 -0.4690 -0.1252
  147SAPE  H12R16193   1.665   1.191   7.753 -0.5955  0.1565 -0.2708
  147SAPE  C21316194   1.865   1.092   7.763 -0.4968 -1.2124 -0.1094
  147SAPE  H13R16195   1.927   1.150   7.835 -1.3975  3.8491 -2.9132
  147SAPE  H13S16196   1.930   1.049   7.684 -0.1167 -0.0589 -0.4428
  147SAPE  C21416197   1.809   0.979   7.840 -0.0123 -0.3564  0.3469
  147SAPE  H14R16198   1.802   0.890   7.777 -1.4827 -0.6103  0.8325
  147SAPE  C21516199   1.772   0.971   7.965 -0.0152  0.6906 -0.0496
  147SAPE  H15R16200   1.748   0.869   7.997 -1.4341  1.1890  0.5229
  147SAPE  C21616201   1.776   1.084   8.070  0.0967 -0.2921  0.3349
  147SAPE  H16R16202   1.679   1.095   8.121 -0.4819  0.0541 -0.8037
  147SAPE  H16S16203   1.795   1.181   8.018 -0.3495  0.6412  1.8596
  147SAPE  C21716204   1.881   1.070   8.186  0.4388  0.1835  0.1683
  147SAPE  H17R16205   1.851   0.992   8.260 -1.1775  2.1550  1.7267
  147SAPE  H17S16206   1.876   1.168   8.238  1.3524  1.3089 -1.7924
  147SAPE  C21816207   2.027   1.070   8.137 -0.0247 -0.2688  0.2826
  147SAPE  H18R16208   2.024   1.141   8.052  2.9268 -2.1765 -1.6288
  147SAPE  H18S16209   2.062   0.974   8.094 -1.4921 -0.9139  0.4657
  147SAPE  C21916210   2.126   1.109   8.248 -0.0196  0.0372 -0.5359
  147SAPE  H19R16211   2.095   1.201   8.302 -0.9203 -0.4966 -0.1018
  147SAPE  H19S16212   2.223   1.123   8.196 -0.4273  1.8033 -0.8759
  147SAPE  C22016213   2.136   0.986   8.342  0.6988 -0.2197  0.4384
  147SAPE  H20R16214   2.167   0.898   8.281 -3.0413  0.0547 -2.2171
  147SAPE  H20S16215   2.039   0.959   8.387  0.4556  1.0836  0.7249
  147SAPE  H20T16216   2.212   0.999   8.422  0.8297 -1.8827  0.6151
  147SAPE   C3316217   2.453   0.771   6.936 -0.1413  0.3778 -0.0816
  147SAPE   H3X16218   2.529   0.834   6.884 -1.3231 -0.2661 -2.7936
  147SAPE   H3Y16219   2.458   0.674   6.883 -0.7078 -0.8375  1.9720
  147SAPE   C3416220   2.496   0.773   7.081  0.0253 -0.3454  0.0148
  147SAPE   H4X16221   2.429   0.707   7.141  0.7029 -0.0699  1.1233
  147SAPE   H4Y16222   2.483   0.867   7.139  2.9835  0.8749 -1.0800
  147SAPE   C3516223   2.639   0.727   7.089 -0.0227 -1.2883  0.4793
  147SAPE   H5X16224   2.697   0.820   7.108 -0.9367 -0.0251 -2.3398
  147SAPE   H5Y16225   2.679   0.677   6.997  1.7613  1.4435 -0.3356
  147SAPE   C3616226   2.666   0.634   7.211  0.3667  0.2136  0.2982
  147SAPE   H6X16227   2.612   0.537   7.203  2.2034 -0.9238  1.0249
  147SAPE   H6Y16228   2.620   0.681   7.301  0.4876 -1.1786  1.1158
  147SAPE   C3716229   2.815   0.604   7.222 -0.0971 -0.5629  0.2993
  147SAPE   H7X16230   2.873   0.692   7.255 -1.4577  0.3689  0.2669
  147SAPE   H7Y16231   2.846   0.556   7.126 -1.1158 -0.5376 -0.0498
  147SAPE   C3816232   2.848   0.507   7.334 -0.9646  1.1334 -0.1106
  147SAPE   H8X16233   2.811   0.404   7.315  1.5188  0.0123  0.6531
  147SAPE   H8Y16234   2.797   0.542   7.426  0.7257  1.0791  0.8804
  147SAPE   C3916235   3.001   0.510   7.371 -0.1917 -0.0416 -0.2368
  147SAPE   H9X16236   3.030   0.610   7.409 -0.4548  0.5648 -1.5772
  147SAPE   H9Y16237   3.061   0.497   7.279  1.0046 -0.7225  0.6022
  147SAPE  C31016238   3.045   0.402   7.474  0.0809 -0.5685  0.5882
  147SAPE  H10X16239   3.152   0.424   7.494 -0.3960  3.4502 -0.5515
  147SAPE  H10Y16240   3.026   0.299   7.435 -2.6141 -0.0530  0.3300
  147SAPE  C31116241   2.979   0.405   7.611  0.4367 -0.4668  0.3754
  147SAPE  H11X16242   2.877   0.361   7.604 -0.6018  1.5365  1.8810
  147SAPE  H11Y16243   2.948   0.506   7.646  1.0297 -0.2387  0.2515
  147SAPE  C31216244   3.062   0.331   7.714  0.3621 -0.2150  0.6792
  147SAPE  H12X16245   3.015   0.332   7.814 -1.2294  2.3290  0.0096
  147SAPE  H12Y16246   3.153   0.395   7.727 -0.4116  0.7056  1.8016
  147SAPE  C31316247   3.081   0.193   7.664 -0.1782  0.8541 -0.2360
  147SAPE  H13X16248   3.163   0.193   7.588 -0.0564  2.6817 -0.1463
  147SAPE  H13Y16249   2.992   0.145   7.618  0.6167  0.1668 -1.1281
  147SAPE  C31416250   3.122   0.098   7.782 -0.4259 -0.1790  0.1936
  147SAPE  H14X16251   3.127  -0.011   7.762  0.1621 -0.4358  1.6423
  147SAPE  H14Y16252   3.051   0.098   7.867 -0.2672 -1.9163  0.3648
  147SAPE  C31516253   3.257   0.159   7.834 -0.2467 -0.0431  0.6619
  147SAPE  H15X16254   3.234   0.263   7.865 -0.1677 -0.3993  1.9903
  147SAPE  H15Y16255   3.334   0.161   7.754 -0.3419  0.5731  0.5834
  147SAPE  C31616256   3.306   0.084   7.956 -0.4861 -0.2761  0.1542
  147SAPE  H16X16257   3.348  -0.013   7.921  1.3962  0.2507  0.8396
  147SAPE  H16Y16258   3.222   0.071   8.028 -0.4207  0.4302  0.3634
  147SAPE  C31716259   3.418   0.162   8.029 -0.1717 -0.1431  0.4166
  147SAPE  H17X16260   3.491   0.196   7.953 -0.4445 -0.6675 -0.0855
  147SAPE  H17Y16261   3.475   0.092   8.093 -0.6978 -2.3305 -1.3815
  147SAPE  C31816262   3.383   0.297   8.108  0.3911  0.1806 -0.2487
  147SAPE  H18X16263   3.322   0.259   8.193  2.6946 -2.3682  0.3895
  147SAPE  H18Y16264   3.315   0.358   8.044 -1.7898  0.2138  1.9493
  147SAPE  H18Z16265   3.474   0.344   8.151 -0.1865  1.1252 -0.0304
  148SAPE     N16266   3.567   6.575   6.213  0.2656 -0.5811 -0.1864
  148SAPE   HN116267   3.626   6.544   6.133 -1.3274 -1.4644 -1.0737
  148SAPE   HN216268   3.643   6.587   6.283 -0.3832  1.6095  0.2186
  148SAPE   HN316269   3.507   6.498   6.249  0.9519 -0.3728  1.4766
  148SAPE   C1216270   3.497   6.701   6.185  0.3655 -0.9245  0.1402
  148SAPE  H12A16271   3.428   6.721   6.269 -0.7570  0.0803 -0.9636
  148SAPE  H12B16272   3.426   6.702   6.099 -1.1253  1.0654  1.3102
  148SAPE   C1116273   3.603   6.812   6.153 -0.2340  0.0181 -0.4853
  148SAPE  H11A16274   3.553   6.901   6.110 -0.2255 -0.3525 -1.2804
  148SAPE  H11B16275   3.673   6.786   6.071  0.9880 -0.8552  0.7771
  148SAPE     P16276   3.780   6.959   6.272 -0.2423 -0.3611 -0.2843
  148SAPE   O1316277   3.894   6.932   6.353 -0.1471  0.1710 -0.0031
  148SAPE   O1416278   3.810   6.998   6.132  0.1362 -0.8593 -0.4324
  148SAPE   O1216279   3.676   6.832   6.274  0.2137 -0.1161 -0.0049
  148SAPE   O1116280   3.707   7.085   6.341 -0.0196 -0.2781  0.1467
  148SAPE    C116281   3.598   7.050   6.424  0.2350  0.8690  0.5372
  148SAPE    HA16282   3.515   7.020   6.356  0.8132  1.1219 -0.2992
  148SAPE    HB16283   3.625   6.965   6.490  2.0521  0.4910 -0.6282
  148SAPE    C216284   3.554   7.156   6.526  0.0554 -0.3882  0.9533
  148SAPE    HS16285   3.535   7.247   6.465  0.8449 -0.0877  1.1445
  148SAPE   O2116286   3.660   7.180   6.623 -0.3897 -0.8171 -0.0524
  148SAPE   C2116287   3.646   7.297   6.690 -0.9895  0.5141  0.6057
  148SAPE   O2216288   3.564   7.379   6.660  0.4373  0.0878  0.0228
  148SAPE   C2216289   3.758   7.306   6.797 -0.5631 -0.3650  0.5663
  148SAPE   H2R16290   3.843   7.252   6.749 -1.0320 -1.0905  0.5328
  148SAPE   H2S16291   3.780   7.413   6.813  0.9725 -0.0319 -2.9070
  148SAPE    C316292   3.421   7.120   6.601 -0.2945 -0.1512 -0.5267
  148SAPE    HX16293   3.337   7.126   6.529 -0.6940  2.1629  0.0531
  148SAPE    HY16294   3.387   7.200   6.671 -1.1659 -0.8280 -0.1487
  148SAPE   O3116295   3.414   6.990   6.669 -0.1503 -0.1109  0.7305
  148SAPE   C3116296   3.458   6.993   6.800  1.0762 -0.3471  0.5488
  148SAPE   O3216297   3.481   7.093   6.863 -0.4054 -0.5224  0.2926
  148SAPE   C3216298   3.493   6.854   6.851 -0.4810  0.7916  0.1888
  148SAPE   H2X16299   3.563   6.804   6.781 -1.8249 -2.7054  1.1366
  148SAPE   H2Y16300   3.399   6.795   6.854 -0.2592  0.3484 -0.9405
  148SAPE   C2316301   3.723   7.228   6.924 -0.4743 -0.2019  0.5121
  148SAPE   H3R16302   3.701   7.121   6.904  0.8199 -0.3480 -0.2014
  148SAPE   H3S16303   3.624   7.269   6.957 -2.5880 -2.6457 -2.2346
  148SAPE   C2416304   3.838   7.253   7.025  0.0789  0.9937 -0.4316
  148SAPE   H4R16305   3.810   7.237   7.131  1.9436  3.1758  0.4931
  148SAPE   H4S16306   3.872   7.359   7.024  1.9020  0.4568  0.0810
  148SAPE   C2516307   3.943   7.152   6.988 -0.7495 -0.5300 -0.7377
  148SAPE   H5R16308   3.918   7.045   6.992 -0.3925 -0.6439 -1.4489
  148SAPE   C2616309   4.072   7.174   6.952  0.4209 -0.2344 -0.0032
  148SAPE   H6R16310   4.135   7.084   6.953  1.3607  0.4135  0.7662
  148SAPE   C2716311   4.138   7.312   6.940  0.3407 -0.0092 -0.2893
  148SAPE   H7R16312   4.115   7.377   7.027  0.5337  0.9903 -0.9716
  148SAPE   H7S16313   4.097   7.372   6.856 -0.5480  3.0253  2.1265
  148SAPE   C2816314   4.291   7.306   6.929 -0.0753 -0.6824  0.7042
  148SAPE   H8R16315   4.335   7.302   6.828 -1.4496  1.5219 -0.0450
  148SAPE   C2916316   4.382   7.303   7.029 -0.5869  0.1697 -0.2057
  148SAPE   H9R16317   4.488   7.306   6.999  0.2944 -1.7964  2.3543
  148SAPE  C21016318   4.362   7.304   7.179 -0.3144  0.3820 -0.5220
  148SAPE  H10R16319   4.272   7.358   7.215 -1.0233 -0.7490 -0.5498
  148SAPE  H10S16320   4.449   7.359   7.221  0.7276 -0.6422 -1.2530
  148SAPE  C21116321   4.351   7.164   7.238  0.7076  0.9041  0.3209
  148SAPE  H11R16322   4.317   7.088   7.166 -0.0329  1.3802  0.1529
  148SAPE  C21216323   4.390   7.125   7.361 -0.6310  0.5135  0.2177
  148SAPE  H12R16324   4.381   7.018   7.386 -0.5308  0.1624 -1.1503
  148SAPE  C21316325   4.448   7.209   7.473  0.1858  0.3213 -0.1025
  148SAPE  H13R16326   4.411   7.170   7.570  0.5010  1.4863  0.5118
  148SAPE  H13S16327   4.408   7.312   7.464 -0.9666 -0.1884 -1.0754
  148SAPE  C21416328   4.598   7.204   7.469  0.1952 -0.6699 -0.4567
  148SAPE  H14R16329   4.637   7.254   7.379 -1.5234 -0.3836 -1.0814
  148SAPE  C21516330   4.685   7.163   7.565  0.5990  0.2035  0.0979
  148SAPE  H15R16331   4.789   7.176   7.534 -0.1423  1.3538 -2.0946
  148SAPE  C21616332   4.643   7.106   7.700  0.1057  0.7979  1.2559
  148SAPE  H16R16333   4.609   7.001   7.687  0.1674  0.9063  0.1264
  148SAPE  H16S16334   4.569   7.176   7.745 -0.8260  0.2180  0.6709
  148SAPE  C21716335   4.760   7.105   7.801 -0.3683 -0.7369 -0.3301
  148SAPE  H17R16336   4.794   7.209   7.823  0.4768 -1.3090  1.2307
  148SAPE  H17S16337   4.849   7.060   7.751  1.3107  1.6733  0.3267
  148SAPE  C21816338   4.729   7.040   7.935 -0.7765  0.5595  0.2112
  148SAPE  H18R16339   4.625   7.003   7.951 -0.8729  0.4264 -0.6669
  148SAPE  H18S16340   4.745   7.125   8.004 -0.2225  2.1050 -1.7284
  148SAPE  C21916341   4.833   6.921   7.951 -0.9144 -0.0582 -0.2216
  148SAPE  H19R16342   4.833   6.877   8.053  2.1520 -0.8168 -0.4211
  148SAPE  H19S16343   4.937   6.960   7.947 -0.7969 -0.3985 -3.9028
  148SAPE  C22016344   4.802   6.819   7.842  0.2668  0.5452  0.0011
  148SAPE  H20R16345   4.847   6.721   7.870  3.0617  2.6225  3.5895
  148SAPE  H20S16346   4.834   6.849   7.740 -2.6323  3.1083 -0.2883
  148SAPE  H20T16347   4.691   6.810   7.841  0.1937  0.8729 -2.8935
  148SAPE   C3316348   3.564   6.856   6.984 -0.3711  0.1635 -0.6425
  148SAPE   H3X16349   3.511   6.912   7.065  0.2813 -0.1358 -0.0015
  148SAPE   H3Y16350   3.661   6.908   6.971  0.3734 -0.5469  1.5780
  148SAPE   C3416351   3.596   6.708   7.041  0.2260 -0.8307  1.1340
  148SAPE   H4X16352   3.633   6.637   6.964  2.5598 -0.1869  1.5774
  148SAPE   H4Y16353   3.498   6.663   7.066 -0.8740  0.5706 -0.4158
  148SAPE   C3516354   3.683   6.706   7.166 -0.0076 -0.2564  0.6162
  148SAPE   H5X16355   3.777   6.764   7.157 -0.1517 -0.2600 -1.2891
  148SAPE   H5Y16356   3.715   6.602   7.189  0.5370 -0.4685 -1.0202
  148SAPE   C3616357   3.610   6.766   7.291  0.1856  0.0247 -0.1098
  148SAPE   H6X16358   3.519   6.703   7.301 -0.5744  0.8757 -1.3477
  148SAPE   H6Y16359   3.597   6.873   7.264 -0.1667  0.5606  1.9880
  148SAPE   C3716360   3.702   6.750   7.408 -0.5329  1.0247 -0.6320
  148SAPE   H7X16361   3.807   6.776   7.383  0.3428 -0.7391  0.9216
  148SAPE   H7Y16362   3.705   6.646   7.447 -1.7295  1.3233  0.3187
  148SAPE   C3816363   3.661   6.844   7.519 -0.7061  0.4623  0.2593
  148SAPE   H8X16364   3.554   6.834   7.548 -0.5730  0.3482  0.7212
  148SAPE   H8Y16365   3.667   6.950   7.488  0.4891  0.0907 -0.8420
  148SAPE   C3916366   3.741   6.826   7.645 -0.5006 -0.3571 -0.0687
  148SAPE   H9X16367   3.843   6.848   7.609 -0.8833  1.8503  0.0456
  148SAPE   H9Y16368   3.731   6.726   7.694 -0.4664  0.1135  0.9274
  148SAPE  C31016369   3.716   6.931   7.756  0.2388 -0.3445 -0.0734
  148SAPE  H10X16370   3.608   6.930   7.779  0.8400 -0.7738  3.4069
  148SAPE  H10Y16371   3.748   7.024   7.704  1.3795 -1.2126 -0.9971
  148SAPE  C31116372   3.794   6.887   7.884 -0.4053 -0.3779 -0.4139
  148SAPE  H11X16373   3.890   6.841   7.853  0.0499 -1.2714  2.1108
  148SAPE  H11Y16374   3.734   6.801   7.922 -0.0187  0.3194  1.9048
  148SAPE  C31216375   3.813   6.998   7.992  0.0207 -0.4501  0.5393
  148SAPE  H12X16376   3.719   7.018   8.048  0.7973  2.5894  0.9563
  148SAPE  H12Y16377   3.841   7.092   7.940 -2.8411  1.0968  1.5870
  148SAPE  C31316378   3.913   6.950   8.087 -0.7748  0.1701 -0.2442
  148SAPE  H13X16379   4.013   6.944   8.039 -0.1714  0.6391  0.9194
  148SAPE  H13Y16380   3.887   6.849   8.127 -0.3936  0.0581 -0.2759
  148SAPE  C31416381   3.943   7.039   8.211  0.6937 -0.0292 -0.0593
  148SAPE  H14X16382   3.997   6.973   8.283  1.6515  2.4339  1.6248
  148SAPE  H14Y16383   3.854   7.075   8.266  0.9873 -1.6892  1.6157
  148SAPE  C31516384   4.032   7.158   8.183 -0.6256 -0.0669  0.4616
  148SAPE  H15X16385   4.103   7.148   8.098 -0.6742  1.2249  0.2459
  148SAPE  H15Y16386   4.109   7.167   8.263  1.9683 -0.4146 -1.8428
  148SAPE  C31616387   3.976   7.308   8.178  0.0017  0.6337  0.6401
  148SAPE  H16X16388   3.891   7.309   8.249 -0.8824  1.2588 -0.3980
  148SAPE  H16Y16389   3.924   7.324   8.081 -1.3704 -0.4345  1.1760
  148SAPE  C31716390   4.070   7.429   8.200  0.2166 -0.4873  0.0940
  148SAPE  H17X16391   4.134   7.454   8.112  0.5525 -0.3203  0.3835
  148SAPE  H17Y16392   4.146   7.414   8.280  0.4433  1.1354  0.2289
  148SAPE  C31816393   3.992   7.564   8.226 -0.3564  0.2761  0.3493
  148SAPE  H18X16394   3.969   7.606   8.126  0.8600 -1.4862 -0.7346
  148SAPE  H18Y16395   4.059   7.641   8.271 -1.7586  1.6573  0.1392
  148SAPE  H18Z16396   3.901   7.546   8.288 -0.3432 -0.0859  0.2666
  149SAPE     N16397   0.271   1.046   6.125  0.2421  0.1881  0.5342
  149SAPE   HN116398   0.258   1.138   6.080 -0.3998  0.5321  1.3989
  149SAPE   HN216399   0.176   1.008   6.141  0.3958 -1.8897 -2.7175
  149SAPE   HN316400   0.309   1.062   6.221  0.2753  0.5567  0.4590
  149SAPE   C1216401   0.343   0.935   6.055 -0.1815 -0.0979  0.0368
  149SAPE  H12A16402   0.445   0.976   6.036 -0.5443  0.1651 -1.4165
  149SAPE  H12B16403   0.300   0.907   5.957  0.8777  2.9465 -1.4074
  149SAPE   C1116404   0.333   0.801   6.131  0.2250  0.6101 -0.5404
  149SAPE  H11A16405   0.379   0.818   6.230 -0.4272  1.8529 -0.4291
  149SAPE  H11B16406   0.403   0.729   6.082 -1.6557 -1.4754 -0.3537
  149SAPE     P16407   0.191   0.610   6.224  0.0178 -0.3075 -0.5089
  149SAPE   O1316408   0.057   0.557   6.206  0.5557  0.0178  0.4057
  149SAPE   O1416409   0.296   0.513   6.198  0.5556 -0.1691  0.3136
  149SAPE   O1216410   0.209   0.743   6.140 -0.2158  0.2664  0.5291
  149SAPE   O1116411   0.206   0.652   6.381 -0.0685 -0.4284  0.1174
  149SAPE    C116412   0.146   0.762   6.444  0.1448  0.4578  0.9594
  149SAPE    HA16413   0.205   0.848   6.405  1.7743 -1.6053 -1.4411
  149SAPE    HB16414   0.040   0.778   6.415  0.2575 -0.2686  0.0807
  149SAPE    C216415   0.143   0.744   6.592 -0.2785 -0.1813 -0.4193
  149SAPE    HS16416   0.056   0.804   6.626 -0.3465  0.7002 -2.0268
  149SAPE   O2116417   0.269   0.787   6.654  0.1048  0.4539  0.4162
  149SAPE   C2116418   0.263   0.861   6.768 -0.2032  0.7375 -0.0326
  149SAPE   O2216419   0.161   0.885   6.829 -0.5432 -0.5970 -0.5503
  149SAPE   C2216420   0.405   0.923   6.784 -0.0980  0.4585 -0.2293
  149SAPE   H2R16421   0.458   0.923   6.687  1.1602  1.8947  0.4063
  149SAPE   H2S16422   0.403   1.031   6.814  2.8931  0.5364 -0.0532
  149SAPE    C316423   0.130   0.598   6.638 -0.2062  0.7307  0.3597
  149SAPE    HX16424   0.224   0.545   6.610 -1.0748 -1.9963  2.1693
  149SAPE    HY16425   0.056   0.549   6.572  0.5643 -1.9336  1.3323
  149SAPE   O3116426   0.106   0.576   6.775 -0.5015 -0.3460 -0.4438
  149SAPE   C3116427  -0.024   0.589   6.815  0.1335  0.4136 -0.4971
  149SAPE   O3216428  -0.114   0.620   6.741 -0.3640 -0.7259 -0.5977
  149SAPE   C3216429  -0.040   0.559   6.964  0.0222 -0.2796  0.0996
  149SAPE   H2X16430  -0.044   0.659   7.014  2.3844  0.3094 -0.7784
  149SAPE   H2Y16431   0.054   0.510   6.996  1.1607  1.3783 -0.5529
  149SAPE   C2316432   0.495   0.839   6.882  0.1589 -0.0946  0.3397
  149SAPE   H3R16433   0.511   0.755   6.811 -2.4703  0.5347 -1.1536
  149SAPE   H3S16434   0.429   0.807   6.965  0.0958 -0.7488  0.0381
  149SAPE   C2416435   0.632   0.900   6.920 -0.1474 -0.7762  0.2653
  149SAPE   H4R16436   0.627   1.009   6.936 -0.0208 -1.2016  3.9387
  149SAPE   H4S16437   0.697   0.896   6.829  0.5601  1.2819  0.6419
  149SAPE   C2516438   0.711   0.833   7.028 -0.1949  1.0659 -0.5250
  149SAPE   H5R16439   0.775   0.748   7.003  0.2252  1.0306  0.5771
  149SAPE   C2616440   0.709   0.859   7.162  0.2439 -0.1230  0.2870
  149SAPE   H6R16441   0.765   0.790   7.228 -0.5160 -0.5149  0.5360
  149SAPE   C2716442   0.616   0.957   7.227  0.3070  0.2368 -0.2538
  149SAPE   H7R16443   0.555   0.900   7.300  1.6133 -1.3297 -0.3096
  149SAPE   H7S16444   0.548   1.010   7.158  0.5962 -0.0892 -0.7965
  149SAPE   C2816445   0.705   1.058   7.293 -0.3090  0.3649 -0.1499
  149SAPE   H8R16446   0.726   1.146   7.232 -1.3421  0.6382 -0.1419
  149SAPE   C2916447   0.712   1.092   7.420  0.0950  0.1292 -0.8564
  149SAPE   H9R16448   0.791   1.162   7.451 -1.5714  2.0103 -0.6693
  149SAPE  C21016449   0.633   1.032   7.530  0.3870  0.3027  0.8568
  149SAPE  H10R16450   0.527   1.030   7.496  0.3432  3.9864  0.3265
  149SAPE  H10S16451   0.647   1.099   7.617  2.3222 -2.5550  2.8968
  149SAPE  C21116452   0.680   0.894   7.562  0.0935  0.3991  0.4224
  149SAPE  H11R16453   0.699   0.833   7.473 -1.2777 -0.6607  0.8254
  149SAPE  C21216454   0.695   0.841   7.686 -0.1822  0.6812  0.0448
  149SAPE  H12R16455   0.729   0.736   7.687 -0.3308  0.5066 -3.0224
  149SAPE  C21316456   0.666   0.898   7.819 -0.8102 -0.0226 -0.3416
  149SAPE  H13R16457   0.645   0.816   7.891 -1.5015  0.6210  0.2095
  149SAPE  H13S16458   0.571   0.955   7.824 -0.3195  0.7256  2.3063
  149SAPE  C21416459   0.779   0.974   7.889 -0.4824 -0.0522  0.6958
  149SAPE  H14R16460   0.874   0.920   7.903  1.7115  2.7830 -1.6505
  149SAPE  C21516461   0.780   1.095   7.941  0.6960  0.0409  0.3608
  149SAPE  H15R16462   0.874   1.138   7.979 -0.0776  1.1566  1.1127
  149SAPE  C21616463   0.661   1.190   7.949  0.1749 -0.0180 -0.7024
  149SAPE  H16R16464   0.582   1.163   7.876 -0.6164 -1.5948  0.6528
  149SAPE  H16S16465   0.698   1.292   7.926 -2.0258  1.0280  0.0710
  149SAPE  C21716466   0.583   1.206   8.084  0.5946  0.2376  0.3170
  149SAPE  H17R16467   0.534   1.306   8.073  1.5733  0.7162  0.2189
  149SAPE  H17S16468   0.654   1.217   8.169 -2.3019 -0.8726  3.0827
  149SAPE  C21816469   0.472   1.114   8.109  0.7841  0.1065 -0.5589
  149SAPE  H18R16470   0.514   1.015   8.081  0.5079 -0.1919  0.0654
  149SAPE  H18S16471   0.383   1.136   8.046 -0.5115  0.8961  1.4477
  149SAPE  C21916472   0.428   1.091   8.257 -0.1955 -1.1407  0.1039
  149SAPE  H19R16473   0.528   1.073   8.301 -0.3612  0.1048  1.0324
  149SAPE  H19S16474   0.375   0.994   8.269 -0.4643 -1.1046 -0.7347
  149SAPE  C22016475   0.353   1.206   8.313  0.8602 -1.4272 -0.3053
  149SAPE  H20R16476   0.347   1.198   8.423 -1.4319  2.5626  0.0485
  149SAPE  H20S16477   0.249   1.211   8.275 -0.0613  2.6207  2.1940
  149SAPE  H20T16478   0.415   1.296   8.290 -1.6888  0.0134 -2.1301
  149SAPE   C3316479  -0.177   0.485   7.000 -0.4031  0.0097  0.8028
  149SAPE   H3X16480  -0.168   0.387   6.950  0.1168  1.8764 -3.1788
  149SAPE   H3Y16481  -0.257   0.541   6.948  0.6366  0.6864 -0.1153
  149SAPE   C3416482  -0.203   0.469   7.149 -0.0769  0.7272  0.5821
  149SAPE   H4X16483  -0.314   0.459   7.154 -0.0543  0.3156  0.3396
  149SAPE   H4Y16484  -0.175   0.555   7.213  2.2124 -0.2058  0.9431
  149SAPE   C3516485  -0.153   0.343   7.213 -0.1932  1.0082  0.0004
  149SAPE   H5X16486  -0.043   0.348   7.209 -0.1179 -0.7165 -1.0041
  149SAPE   H5Y16487  -0.172   0.252   7.152  0.3525 -0.1667  1.5070
  149SAPE   C3616488  -0.212   0.315   7.354  0.1796 -0.1035  0.7252
  149SAPE   H6X16489  -0.157   0.233   7.405  1.4990  0.7728  0.7314
  149SAPE   H6Y16490  -0.319   0.289   7.336  0.7304 -2.0646 -0.0322
  149SAPE   C3716491  -0.231   0.426   7.449 -0.1814  0.5000  0.0508
  149SAPE   H7X16492  -0.294   0.399   7.536  2.2109  2.9545  2.7474
  149SAPE   H7Y16493  -0.283   0.516   7.411 -0.0284  0.0897 -1.1878
  149SAPE   C3816494  -0.096   0.474   7.515 -0.5350  0.2480 -0.4489
  149SAPE   H8X16495  -0.017   0.492   7.440  0.3822  1.3740  0.7416
  149SAPE   H8Y16496  -0.062   0.388   7.576 -1.1507  0.2419 -0.1002
  149SAPE   C3916497  -0.110   0.605   7.590 -0.3107  0.1347 -0.3920
  149SAPE   H9X16498  -0.189   0.601   7.668 -1.5090  1.7021 -1.4694
  149SAPE   H9Y16499  -0.143   0.689   7.525 -2.6105 -0.4828 -0.1181
  149SAPE  C31016500   0.019   0.651   7.664 -0.0538 -0.2709  0.4014
  149SAPE  H10X16501   0.091   0.663   7.580  0.9193 -0.2327  1.2287
  149SAPE  H10Y16502   0.056   0.568   7.727 -0.8301 -1.2117 -0.3598
  149SAPE  C31116503   0.008   0.790   7.740 -0.3309  0.6239  0.2703
  149SAPE  H11X16504  -0.049   0.862   7.678 -0.5583 -0.9625 -1.4432
  149SAPE  H11Y16505   0.115   0.819   7.744  0.0512 -0.3902 -1.3350
  149SAPE  C31216506  -0.054   0.766   7.869  0.3562 -0.0483  0.5946
  149SAPE  H12X16507   0.014   0.699   7.925  1.4835  0.4726 -0.1007
  149SAPE  H12Y16508  -0.155   0.722   7.860  0.2759  0.4408 -1.2721
  149SAPE  C31316509  -0.069   0.898   7.949  0.5346 -0.0752  0.6504
  149SAPE  H13X16510  -0.161   0.958   7.933 -0.4289 -0.5036  3.9274
  149SAPE  H13Y16511   0.023   0.955   7.925  0.0423  0.0972 -0.9725
  149SAPE  C31416512  -0.075   0.857   8.097  0.2743 -0.7137  0.5785
  149SAPE  H14X16513   0.020   0.803   8.111  0.8401  0.0473 -0.2201
  149SAPE  H14Y16514  -0.161   0.787   8.109 -1.8830  0.4206 -4.9730
  149SAPE  C31516515  -0.077   0.985   8.190 -0.1415  0.3606  0.1921
  149SAPE  H15X16516  -0.170   1.001   8.249 -0.7194 -2.0608  0.0560
  149SAPE  H15Y16517  -0.070   1.070   8.119 -1.0497 -1.7640 -2.6134
  149SAPE  C31616518   0.035   0.990   8.293  0.6023  0.3977  0.0486
  149SAPE  H16X16519   0.052   1.081   8.354 -1.1717 -0.5771  2.1458
  149SAPE  H16Y16520   0.123   0.966   8.231  0.0139  2.1121 -1.5627
  149SAPE  C31716521   0.033   0.866   8.389  0.1564 -0.3591  0.8463
  149SAPE  H17X16522   0.050   0.780   8.321 -1.4068  1.1566 -1.5766
  149SAPE  H17Y16523  -0.060   0.854   8.448  0.9150 -0.5107  2.0589
  149SAPE  C31816524   0.149   0.871   8.492  0.7977  0.0853 -0.0256
  149SAPE  H18X16525   0.235   0.927   8.451  0.9268 -0.2903 -0.2720
  149SAPE  H18Y16526   0.169   0.765   8.519 -1.0769  0.0993  1.6672
  149SAPE  H18Z16527   0.111   0.935   8.575 -0.1106 -0.3763 -0.0790
  150SAPE     N16528   1.872   3.515   6.236 -0.2757  0.7182 -0.3246
  150SAPE   HN116529   1.975   3.498   6.242 -0.6766 -2.6296 -0.6098
  150SAPE   HN216530   1.860   3.598   6.175 -0.6983  2.1763  1.6634
  150SAPE   HN316531   1.841   3.535   6.333 -1.7653 -1.2510 -0.3328
  150SAPE   C1216532   1.804   3.385   6.195  0.0912 -0.0490 -0.6006
  150SAPE  H12A16533   1.825   3.303   6.266  3.3174 -0.5461 -1.9513
  150SAPE  H12B16534   1.849   3.368   6.094  1.6097  0.0253  0.0343
  150SAPE   C1116535   1.654   3.397   6.189  0.1950  0.4058 -0.0068
  150SAPE  H11A16536   1.623   3.293   6.169 -0.5359  0.7791 -0.8456
  150SAPE  H11B16537   1.620   3.455   6.101  1.1034  2.0794  0.6902
  150SAPE     P16538   1.466   3.402   6.362  0.4310 -0.0675 -0.1402
  150SAPE   O1316539   1.411   3.511   6.448  0.1840 -0.2954 -0.2824
  150SAPE   O1416540   1.379   3.376   6.249  0.0332  0.5984  0.7169
  150SAPE   O1216541   1.607   3.440   6.318  0.0718 -0.0720 -0.2694
  150SAPE   O1116542   1.480   3.275   6.454 -0.6230 -0.0789  0.0344
  150SAPE    C116543   1.601   3.207   6.486 -0.3148 -0.7442  0.2100
  150SAPE    HA16544   1.586   3.109   6.435  0.3624 -1.1542  0.7734
  150SAPE    HB16545   1.691   3.244   6.432 -1.7264  1.1639 -0.9407
  150SAPE    C216546   1.632   3.197   6.638  0.1249  0.2959 -0.4477
  150SAPE    HS16547   1.741   3.190   6.658 -0.5301 -1.0733  3.4846
  150SAPE   O2116548   1.567   3.083   6.687 -0.5863  0.3013 -0.6290
  150SAPE   C2116549   1.630   2.969   6.660  0.8268 -0.0038 -0.4587
  150SAPE   O2216550   1.737   2.960   6.607 -0.0490  0.8685 -0.4418
  150SAPE   C2216551   1.550   2.854   6.722  0.3113  0.2191 -0.6566
  150SAPE   H2R16552   1.460   2.829   6.662  0.4683 -0.1776 -0.7293
  150SAPE   H2S16553   1.620   2.767   6.720 -0.2506 -0.2362 -1.0048
  150SAPE    C316554   1.580   3.330   6.712 -0.2990 -0.1782 -0.3599
  150SAPE    HX16555   1.470   3.332   6.699 -0.3065  0.5315 -0.1766
  150SAPE    HY16556   1.628   3.413   6.656  2.6128 -0.0218  2.1606
  150SAPE   O3116557   1.618   3.333   6.855  0.9310 -0.4605  0.0011
  150SAPE   C3116558   1.523   3.282   6.938 -0.6538  0.1738 -0.0297
  150SAPE   O3216559   1.409   3.251   6.914 -0.5223  0.1507  0.1988
  150SAPE   C3216560   1.577   3.266   7.079  0.4236 -0.0058  0.6918
  150SAPE   H2X16561   1.545   3.357   7.135 -0.6720 -1.7762  3.0797
  150SAPE   H2Y16562   1.688   3.255   7.079  0.4937  0.4694 -0.5520
  150SAPE   C2316563   1.504   2.898   6.858 -0.4116  0.0106  0.5999
  150SAPE   H3R16564   1.420   2.970   6.860 -1.5996 -1.3125  0.1845
  150SAPE   H3S16565   1.589   2.947   6.910  0.1025  0.6721 -0.8303
  150SAPE   C2416566   1.451   2.779   6.945  0.5013  0.6029 -0.1098
  150SAPE   H4R16567   1.384   2.735   6.867  0.5107  2.0093 -0.9470
  150SAPE   H4S16568   1.403   2.823   7.035 -2.5315  1.0961 -1.8109
  150SAPE   C2516569   1.566   2.687   6.974 -0.2741  0.2506  0.4943
  150SAPE   H5R16570   1.655   2.704   6.911 -0.3668 -1.5758 -0.1994
  150SAPE   C2616571   1.569   2.605   7.081 -0.0310 -0.3925  0.5178
  150SAPE   H6R16572   1.660   2.543   7.090 -0.1659 -0.9933 -1.6325
  150SAPE   C2716573   1.452   2.590   7.180 -0.7250 -0.7009  0.0139
  150SAPE   H7R16574   1.355   2.608   7.128 -2.1160  0.5211  2.8401
  150SAPE   H7S16575   1.453   2.673   7.253  0.9906 -0.3975 -0.3185
  150SAPE   C2816576   1.453   2.458   7.246 -0.6028 -0.3760  0.1816
  150SAPE   H8R16577   1.496   2.381   7.181 -1.8473 -1.1826  0.2854
  150SAPE   C2916578   1.398   2.441   7.366  0.2957 -0.0239 -0.6508
  150SAPE   H9R16579   1.396   2.340   7.411 -0.1587  1.0011  1.7520
  150SAPE  C21016580   1.350   2.548   7.461 -0.1337  0.1182 -0.9198
  150SAPE  H10R16581   1.282   2.500   7.534  1.2863  1.7313  1.6287
  150SAPE  H10S16582   1.297   2.634   7.416  0.4578  0.9602 -0.0698
  150SAPE  C21116583   1.460   2.611   7.539  0.1777 -0.2669 -0.2790
  150SAPE  H11R16584   1.555   2.630   7.486 -2.0899  0.3573 -4.5930
  150SAPE  C21216585   1.468   2.634   7.668 -0.2742 -0.4670 -0.0771
  150SAPE  H12R16586   1.558   2.680   7.711 -2.3392  3.1010  0.8071
  150SAPE  C21316587   1.361   2.597   7.772  0.1490  0.2491  0.5029
  150SAPE  H13R16588   1.263   2.606   7.721 -0.3334  1.9555  1.6196
  150SAPE  H13S16589   1.345   2.667   7.858 -0.5580  2.3826 -1.2632
  150SAPE  C21416590   1.370   2.457   7.828  0.2753 -0.2935 -0.7366
  150SAPE  H14R16591   1.377   2.375   7.754  1.7826 -0.7973 -0.0692
  150SAPE  C21516592   1.351   2.418   7.959  0.1049  0.5958 -0.2124
  150SAPE  H15R16593   1.353   2.309   7.975 -1.8942  0.4729 -0.5951
  150SAPE  C21616594   1.322   2.501   8.086 -0.2549 -0.6270 -0.0276
  150SAPE  H16R16595   1.218   2.490   8.123  0.0319 -0.8303  0.7210
  150SAPE  H16S16596   1.344   2.609   8.073  1.2032 -0.9572 -0.4679
  150SAPE  C21716597   1.418   2.465   8.198 -0.0499  0.3150 -0.2543
  150SAPE  H17R16598   1.427   2.547   8.273 -0.2254 -0.5268  0.7168
  150SAPE  H17S16599   1.519   2.442   8.158 -1.0210 -0.8167 -2.1810
  150SAPE  C21816600   1.386   2.338   8.275  0.5261  0.2944 -0.6064
  150SAPE  H18R16601   1.406   2.255   8.203  1.4411 -0.0112 -0.0168
  150SAPE  H18S16602   1.279   2.343   8.303  0.7528 -0.7383  0.5339
  150SAPE  C21916603   1.468   2.324   8.398 -0.0827 -0.5185 -0.6524
  150SAPE  H19R16604   1.576   2.308   8.374 -0.3662 -4.0623 -0.1895
  150SAPE  H19S16605   1.443   2.223   8.439  2.2348 -0.3416  1.4361
  150SAPE  C22016606   1.466   2.430   8.503 -0.7363 -0.2945  0.4757
  150SAPE  H20R16607   1.366   2.474   8.517  0.1182  2.0652 -0.3750
  150SAPE  H20S16608   1.537   2.507   8.465  0.1934 -1.7736 -1.0081
  150SAPE  H20T16609   1.503   2.397   8.602  2.3486 -0.1645 -0.5240
  150SAPE   C3316610   1.518   3.148   7.150  0.7855  0.1035 -0.1904
  150SAPE   H3X16611   1.565   3.052   7.121  1.7586 -0.6361  3.3588
  150SAPE   H3Y16612   1.408   3.137   7.137  1.0797 -3.0363 -0.8046
  150SAPE   C3416613   1.563   3.159   7.295  0.2140 -0.8116  0.8326
  150SAPE   H4X16614   1.525   3.251   7.345 -2.3671 -2.2220  1.6605
  150SAPE   H4Y16615   1.673   3.165   7.282  0.1245 -0.0693  0.4251
  150SAPE   C3516616   1.548   3.028   7.386  0.8990 -0.0619  0.2979
  150SAPE   H5X16617   1.577   2.942   7.322 -1.0209 -0.3963 -0.1859
  150SAPE   H5Y16618   1.442   3.011   7.417  0.5776  0.8229 -0.2950
  150SAPE   C3616619   1.640   3.023   7.513 -0.4913  0.6498  0.1396
  150SAPE   H6X16620   1.743   3.035   7.474 -1.1381  0.9413 -1.5337
  150SAPE   H6Y16621   1.622   2.926   7.565  0.2668  0.1854 -0.4496
  150SAPE   C3716622   1.612   3.134   7.615 -0.0078 -0.0146  0.3727
  150SAPE   H7X16623   1.507   3.169   7.607 -0.5533 -1.7056 -0.2336
  150SAPE   H7Y16624   1.675   3.224   7.598 -0.7152  0.3793 -0.2326
  150SAPE   C3816625   1.629   3.080   7.756 -0.8235  0.6807 -0.1028
  150SAPE   H8X16626   1.667   3.164   7.819  0.4619 -0.0723  0.1607
  150SAPE   H8Y16627   1.700   2.996   7.770  0.1721  1.4159 -0.6369
  150SAPE   C3916628   1.490   3.027   7.818 -0.7019  0.1428  0.8929
  150SAPE   H9X16629   1.447   2.950   7.751 -0.1886  0.0119  0.7112
  150SAPE   H9Y16630   1.433   3.122   7.830  0.2047  0.6915  1.0280
  150SAPE  C31016631   1.519   2.980   7.962 -0.1975  0.0343 -0.2113
  150SAPE  H10X16632   1.576   2.885   7.952 -2.0139 -0.9916 -1.4654
  150SAPE  H10Y16633   1.426   2.947   8.013  0.1018 -1.3463 -0.4969
  150SAPE  C31116634   1.601   3.080   8.053  0.3210  0.4430  0.0174
  150SAPE  H11X16635   1.584   3.189   8.042 -0.2508  0.5392  1.6803
  150SAPE  H11Y16636   1.709   3.061   8.030 -0.3032 -0.6652 -2.3873
  150SAPE  C31216637   1.582   3.052   8.197  0.1329  0.7948 -0.0795
  150SAPE  H12X16638   1.654   3.117   8.252  0.8077  1.4653 -1.6843
  150SAPE  H12Y16639   1.615   2.952   8.231  0.6369  1.7562  2.5001
  150SAPE  C31316640   1.436   3.092   8.240 -0.0053  0.4930 -0.4221
  150SAPE  H13X16641   1.384   2.995   8.233  2.2302 -0.9596  1.4303
  150SAPE  H13Y16642   1.408   3.167   8.163  1.2480  1.0419 -0.3789
  150SAPE  C31416643   1.430   3.168   8.377 -0.4025 -0.2195 -0.5969
  150SAPE  H14X16644   1.457   3.099   8.460 -2.8293 -0.7125 -0.1369
  150SAPE  H14Y16645   1.322   3.191   8.388  0.4446  3.7268  0.8772
  150SAPE  C31516646   1.503   3.304   8.378  0.0816 -1.0152 -0.4672
  150SAPE  H15X16647   1.466   3.347   8.283 -3.3941 -0.7966  0.8214
  150SAPE  H15Y16648   1.613   3.288   8.372  0.5640  1.6835 -0.2727
  150SAPE  C31616649   1.469   3.396   8.502 -0.3739  0.0242 -0.3999
  150SAPE  H16X16650   1.525   3.492   8.501  1.7713 -1.0267  2.9618
  150SAPE  H16Y16651   1.488   3.336   8.593 -0.6576 -0.1563 -0.4595
  150SAPE  C31716652   1.324   3.444   8.517 -0.4912 -0.2601  0.7692
  150SAPE  H17X16653   1.259   3.354   8.529 -1.5201  0.0666 -1.8124
  150SAPE  H17Y16654   1.292   3.490   8.422  0.8882  0.1262  0.4864
  150SAPE  C31816655   1.297   3.553   8.623  0.0062  0.0564  0.5013
  150SAPE  H18X16656   1.187   3.557   8.633 -0.0422  0.4232 -0.1723
  150SAPE  H18Y16657   1.335   3.650   8.586 -1.3970  0.1313 -0.8150
  150SAPE  H18Z16658   1.350   3.517   8.714 -1.1713 -3.4757 -0.0578
  151SAPE     N16659   3.585   6.150   6.371  0.1141  0.1775 -1.0623
  151SAPE   HN116660   3.515   6.198   6.311  0.2479  0.9511 -0.6155
  151SAPE   HN216661   3.640   6.235   6.397  0.9419 -0.8009  0.5432
  151SAPE   HN316662   3.647   6.082   6.324  0.0116 -0.1823 -0.6835
  151SAPE   C1216663   3.528   6.071   6.491  0.4456 -0.2793 -0.6376
  151SAPE  H12A16664   3.604   6.041   6.566 -1.4976  1.5927  2.2889
  151SAPE  H12B16665   3.469   5.989   6.443  0.4583  0.3757 -1.8076
  151SAPE   C1116666   3.420   6.161   6.566  1.0102 -0.4501  0.5480
  151SAPE  H11A16667   3.482   6.245   6.605 -0.1405  0.5019  0.3504
  151SAPE  H11B16668   3.381   6.105   6.654 -1.9049 -1.3820 -1.2175
  151SAPE     P16669   3.210   6.104   6.422  0.3768  0.8140  0.2595
  151SAPE   O1316670   3.092   6.177   6.378 -0.0466  0.3904 -0.1149
  151SAPE   O1416671   3.278   6.019   6.325 -0.3002 -0.2923  0.2735
  151SAPE   O1216672   3.315   6.201   6.475 -0.2095 -0.6292  0.3509
  151SAPE   O1116673   3.169   6.025   6.551 -0.5645  0.1318 -0.2923
  151SAPE    C116674   3.067   6.081   6.635  1.0660 -0.1755  0.3142
  151SAPE    HA16675   2.974   6.102   6.578 -0.0580 -0.0728  2.1138
  151SAPE    HB16676   3.029   6.010   6.712 -1.8935 -1.1503 -1.8663
  151SAPE    C216677   3.111   6.202   6.719  0.1690  0.7211 -0.1965
  151SAPE    HS16678   3.158   6.274   6.649  0.5143  0.3094 -0.3913
  151SAPE   O2116679   3.200   6.159   6.819 -0.1523  0.2226  0.2409
  151SAPE   C2116680   3.295   6.236   6.860  0.1189  0.4945  0.1570
  151SAPE   O2216681   3.314   6.351   6.824 -0.4253 -0.7134 -0.3838
  151SAPE   C2216682   3.374   6.172   6.976 -0.0668  0.1219 -0.0202
  151SAPE   H2R16683   3.302   6.139   7.053  0.1620 -2.2929 -0.7684
  151SAPE   H2S16684   3.435   6.086   6.940  0.5096  0.1554  0.8203
  151SAPE    C316685   2.978   6.269   6.783 -0.7508  0.0287 -0.1458
  151SAPE    HX16686   2.937   6.193   6.853  0.7277  0.5653  1.3580
  151SAPE    HY16687   2.902   6.293   6.706 -0.3019  0.0602 -0.5787
  151SAPE   O3116688   3.004   6.375   6.871  0.1154 -0.4530 -0.3657
  151SAPE   C3116689   3.030   6.491   6.813 -0.9155 -0.2463  0.5086
  151SAPE   O3216690   3.028   6.516   6.691 -0.1662  0.0836 -0.6558
  151SAPE   C3216691   3.079   6.586   6.918  0.1404  0.1230  0.6203
  151SAPE   H2X16692   3.115   6.680   6.871 -2.5042  0.5483 -0.7931
  151SAPE   H2Y16693   3.162   6.548   6.981  0.1625 -2.1634 -0.6900
  151SAPE   C2316694   3.470   6.265   7.049  0.1223  0.8382  0.3414
  151SAPE   H3R16695   3.524   6.323   6.971 -0.8923  0.2316 -0.8473
  151SAPE   H3S16696   3.547   6.214   7.110  0.2409  1.2478  0.5355
  151SAPE   C2416697   3.396   6.361   7.153 -0.2918  0.1794  0.0518
  151SAPE   H4R16698   3.320   6.414   7.091 -0.4193 -0.3782 -0.2806
  151SAPE   H4S16699   3.472   6.438   7.179 -1.7602  1.8465 -0.3702
  151SAPE   C2516700   3.343   6.283   7.272  0.4536  0.3297 -0.7788
  151SAPE   H5R16701   3.258   6.215   7.254 -1.1700  1.3632  2.2827
  151SAPE   C2616702   3.401   6.277   7.396  0.5438 -0.1725 -0.3741
  151SAPE   H6R16703   3.348   6.223   7.476 -0.5763  0.7540 -0.4679
  151SAPE   C2716704   3.522   6.357   7.438  0.8746 -0.0575 -0.1579
  151SAPE   H7R16705   3.479   6.442   7.495 -0.3214 -1.6428  1.4163
  151SAPE   H7S16706   3.573   6.398   7.348 -0.3885 -0.7960 -1.2513
  151SAPE   C2816707   3.636   6.289   7.512 -0.2510 -0.3453  0.8107
  151SAPE   H8R16708   3.718   6.263   7.442 -1.0588 -0.8050  0.0131
  151SAPE   C2916709   3.643   6.271   7.643 -0.0695 -0.5025 -0.5156
  151SAPE   H9R16710   3.738   6.235   7.685  0.8732  1.1838 -1.1040
  151SAPE  C21016711   3.542   6.321   7.747 -0.0118 -0.2939 -0.3442
  151SAPE  H10R16712   3.439   6.299   7.712  0.3782 -0.9133 -1.1223
  151SAPE  H10S16713   3.555   6.431   7.759  0.7847 -0.2946 -1.0420
  151SAPE  C21116714   3.561   6.262   7.885  0.5548 -0.4552  0.7046
  151SAPE  H11R16715   3.515   6.162   7.895  0.9476 -0.5359  1.8800
  151SAPE  C21216716   3.612   6.329   7.994 -0.8220  0.5808  0.1211
  151SAPE  H12R16717   3.632   6.271   8.085  0.8200 -1.3415 -1.3601
  151SAPE  C21316718   3.661   6.470   7.996 -0.6558 -0.3827 -0.1641
  151SAPE  H13R16719   3.708   6.494   7.898  0.7851 -1.3951  0.2336
  151SAPE  H13S16720   3.743   6.471   8.071  0.1525  1.5935 -1.0192
  151SAPE  C21416721   3.557   6.571   8.031 -0.6980 -0.3203  0.2158
  151SAPE  H14R16722   3.460   6.556   7.982 -1.3903  1.2667  1.0351
  151SAPE  C21516723   3.561   6.666   8.128  0.7263  0.4518  0.0147
  151SAPE  H15R16724   3.479   6.739   8.125 -0.6450 -1.0476 -0.6485
  151SAPE  C21616725   3.667   6.701   8.228 -0.2659 -0.1788 -0.4531
  151SAPE  H16R16726   3.703   6.805   8.213 -0.1686  0.0942  1.3759
  151SAPE  H16S16727   3.761   6.642   8.214 -0.6894 -0.1614 -4.2453
  151SAPE  C21716728   3.623   6.709   8.377  0.4083 -0.4199  0.0932
  151SAPE  H17R16729   3.708   6.732   8.445  0.8874 -1.3376 -0.1672
  151SAPE  H17S16730   3.579   6.613   8.410 -2.8713  1.2457  0.9377
  151SAPE  C21816731   3.519   6.823   8.401 -0.0701 -0.8670  0.3645
  151SAPE  H18R16732   3.442   6.807   8.322 -1.6416 -2.7168  2.1655
  151SAPE  H18S16733   3.567   6.923   8.389 -0.4340 -0.7495 -0.1551
  151SAPE  C21916734   3.462   6.816   8.544 -0.6033  0.2755  0.2094
  151SAPE  H19R16735   3.458   6.921   8.577 -0.2480  0.6214 -0.7975
  151SAPE  H19S16736   3.529   6.758   8.611 -0.9866 -0.1570  0.2270
  151SAPE  C22016737   3.320   6.756   8.533 -0.4592 -0.2897 -0.3295
  151SAPE  H20R16738   3.287   6.748   8.639  2.2073 -2.1811  0.4776
  151SAPE  H20S16739   3.260   6.811   8.457  1.0584  1.2836 -0.4625
  151SAPE  H20T16740   3.330   6.657   8.484 -0.2173  1.2325 -3.6844
  151SAPE   C3316741   2.963   6.634   7.015 -0.2643 -1.3782 -0.1200
  151SAPE   H3X16742   2.880   6.674   6.954  0.5634  2.6687  1.0935
  151SAPE   H3Y16743   2.995   6.715   7.085 -1.5113 -1.8369  1.0192
  151SAPE   C3416744   2.920   6.527   7.112 -0.4780  0.4488  0.0445
  151SAPE   H4X16745   2.858   6.449   7.064  1.3539 -1.6447  0.9201
  151SAPE   H4Y16746   2.852   6.573   7.187  0.0385 -0.0468  0.8321
  151SAPE   C3516747   3.036   6.474   7.196  0.4151  0.3943 -0.1107
  151SAPE   H5X16748   3.115   6.550   7.211 -0.0135  0.8407 -0.0842
  151SAPE   H5Y16749   3.077   6.396   7.129  0.8599 -1.5768  2.2995
  151SAPE   C3616750   2.990   6.398   7.321 -0.1655 -0.1335 -0.0460
  151SAPE   H6X16751   2.945   6.474   7.388  1.8315 -1.4788  3.0865
  151SAPE   H6Y16752   3.080   6.365   7.378 -0.6705 -1.7804 -0.1425
  151SAPE   C3716753   2.901   6.276   7.297 -0.1816  0.8859 -0.0121
  151SAPE   H7X16754   2.953   6.199   7.235 -0.1622  1.1397 -0.3128
  151SAPE   H7Y16755   2.823   6.312   7.226  1.0766  0.7919 -1.4975
  151SAPE   C3816756   2.823   6.220   7.417 -0.3960 -0.1162  0.5147
  151SAPE   H8X16757   2.726   6.271   7.430  0.0494  0.5671  1.2387
  151SAPE   H8Y16758   2.875   6.254   7.509 -0.8346  1.7483  0.1081
  151SAPE   C3916759   2.807   6.067   7.423  0.2599  0.1420  0.2534
  151SAPE   H9X16760   2.902   6.011   7.428  0.2170  0.1556  1.4716
  151SAPE   H9Y16761   2.765   6.032   7.327 -0.1849 -1.2699  0.9430
  151SAPE  C31016762   2.711   6.020   7.538 -0.3176 -1.0101  0.6532
  151SAPE  H10X16763   2.648   5.941   7.492 -1.2640  1.0907 -1.9388
  151SAPE  H10Y16764   2.637   6.096   7.572  0.3701  0.0219 -0.1378
  151SAPE  C31116765   2.793   5.965   7.648  0.0790 -0.5425 -0.5520
  151SAPE  H11X16766   2.853   6.045   7.697 -1.6110 -0.3194  1.2839
  151SAPE  H11Y16767   2.868   5.890   7.614  0.6819 -0.9896  1.5963
  151SAPE  C31216768   2.698   5.899   7.747  0.1466 -0.0503 -0.3070
  151SAPE  H12X16769   2.629   5.840   7.683  0.4995 -1.8445  0.8794
  151SAPE  H12Y16770   2.635   5.972   7.801 -1.6365 -2.2957  0.8089
  151SAPE  C31316771   2.768   5.821   7.860  0.4473 -0.5159 -0.1964
  151SAPE  H13X16772   2.862   5.777   7.821  1.4712 -0.9537  2.5175
  151SAPE  H13Y16773   2.705   5.733   7.882  0.1805 -0.4688 -0.7574
  151SAPE  C31416774   2.796   5.900   7.989 -0.4236 -0.7305 -0.5357
  151SAPE  H14X16775   2.702   5.950   8.020  1.1360  2.0359  0.0465
  151SAPE  H14Y16776   2.872   5.977   7.963 -0.9567 -0.4830 -1.3900
  151SAPE  C31516777   2.839   5.816   8.113  0.2788 -0.6709  0.1643
  151SAPE  H15X16778   2.861   5.890   8.193  0.3758 -0.3541 -0.1529
  151SAPE  H15Y16779   2.919   5.748   8.076 -0.4730 -2.1139  1.0825
  151SAPE  C31616780   2.737   5.712   8.177  0.5009 -0.6695  0.8438
  151SAPE  H16X16781   2.799   5.650   8.245  1.0838 -0.9037  0.1189
  151SAPE  H16Y16782   2.697   5.646   8.097  1.8001 -1.0430  0.4704
  151SAPE  C31716783   2.619   5.771   8.242  0.6465  0.3401  0.1325
  151SAPE  H17X16784   2.556   5.826   8.168  1.1883 -0.0486 -0.6271
  151SAPE  H17Y16785   2.650   5.846   8.318  1.1764 -1.1791  1.4733
  151SAPE  C31816786   2.526   5.651   8.291 -0.5020 -0.4285  0.4595
  151SAPE  H18X16787   2.498   5.582   8.208 -0.4639  0.2875 -0.1684
  151SAPE  H18Y16788   2.433   5.695   8.334 -0.9066  0.1630 -0.9224
  151SAPE  H18Z16789   2.580   5.593   8.368 -0.5061  0.0141  0.7980
  152SAPE     N16790   0.837   2.301   6.000  0.9938  0.7819 -0.0123
  152SAPE   HN116791   0.915   2.350   6.047  0.1380 -0.0817  2.4408
  152SAPE   HN216792   0.868   2.245   5.918  0.7462  0.6943 -0.0466
  152SAPE   HN316793   0.770   2.365   5.954 -0.5851 -0.9463 -0.2360
  152SAPE   C1216794   0.757   2.218   6.097 -0.0691 -0.0305 -0.0565
  152SAPE  H12A16795   0.813   2.135   6.144 -0.5587 -0.6459 -0.5284
  152SAPE  H12B16796   0.669   2.180   6.041  0.1363  0.9121 -1.0709
  152SAPE   C1116797   0.704   2.308   6.207  0.5168 -0.3940 -0.1186
  152SAPE  H11A16798   0.793   2.343   6.264  0.6208  0.7325 -0.9503
  152SAPE  H11B16799   0.645   2.235   6.267  0.8410 -0.1958  0.4543
  152SAPE     P16800   0.487   2.472   6.197 -0.0761 -0.1798  0.2606
  152SAPE   O1316801   0.479   2.616   6.155 -0.2298 -0.4134  0.3376
  152SAPE   O1416802   0.367   2.389   6.158  0.3509  0.4896 -0.0067
  152SAPE   O1216803   0.628   2.414   6.151  0.2463 -0.0488 -0.1173
  152SAPE   O1116804   0.499   2.471   6.349  0.1744 -0.5757 -0.8725
  152SAPE    C116805   0.450   2.358   6.431  0.5049 -0.6699 -0.1220
  152SAPE    HA16806   0.436   2.262   6.377 -4.4727  0.1656 -0.7679
  152SAPE    HB16807   0.527   2.342   6.509 -0.5802  2.8049  1.8702
  152SAPE    C216808   0.318   2.384   6.511 -0.1170  0.1556  0.2531
  152SAPE    HS16809   0.249   2.411   6.428 -0.3194 -1.6512 -0.2043
  152SAPE   O2116810   0.335   2.478   6.609 -0.0876 -0.9653 -0.5766
  152SAPE   C2116811   0.299   2.607   6.581  0.1957  0.4257  0.0076
  152SAPE   O2216812   0.226   2.640   6.485 -0.1565  0.3049  0.0825
  152SAPE   C2216813   0.335   2.697   6.694  0.2346 -0.5743 -0.1221
  152SAPE   H2R16814   0.429   2.662   6.742  0.1246  0.1645  0.6492
  152SAPE   H2S16815   0.358   2.801   6.662  2.6827 -0.2915  2.1744
  152SAPE    C316816   0.281   2.249   6.573 -0.0979 -0.5400  0.2436
  152SAPE    HX16817   0.378   2.201   6.600  0.1587 -1.2445 -1.8025
  152SAPE    HY16818   0.243   2.183   6.493 -1.0419  0.1350  0.1259
  152SAPE   O3116819   0.209   2.261   6.698  0.1816  0.4222 -0.2610
  152SAPE   C3116820   0.082   2.296   6.661 -0.7585  0.3045  0.6203
  152SAPE   O3216821   0.053   2.327   6.542 -0.2262  0.0559 -1.0552
  152SAPE   C3216822   0.001   2.293   6.790  0.8320  0.0441 -0.4820
  152SAPE   H2X16823   0.066   2.284   6.880  1.9385 -0.1035 -1.2772
  152SAPE   H2Y16824  -0.065   2.204   6.781 -3.4347  2.9287 -1.0866
  152SAPE   C2316825   0.220   2.693   6.794  0.3631  0.0285 -0.2417
  152SAPE   H3R16826   0.196   2.587   6.813 -1.8277  0.4195 -0.4720
  152SAPE   H3S16827   0.130   2.741   6.750  0.5776  0.2607 -0.4250
  152SAPE   C2416828   0.251   2.764   6.924 -0.3190 -0.7483 -0.8597
  152SAPE   H4R16829   0.264   2.869   6.891 -1.4635 -0.5773 -0.7996
  152SAPE   H4S16830   0.351   2.736   6.963  0.8527  1.5067 -2.0159
  152SAPE   C2516831   0.146   2.747   7.031 -0.0401  0.5474 -0.4855
  152SAPE   H5R16832   0.046   2.745   6.985 -0.0798  1.9837 -0.5042
  152SAPE   C2616833   0.170   2.725   7.162  0.7230 -0.0301  0.0171
  152SAPE   H6R16834   0.082   2.707   7.226  0.7327 -1.2595 -0.2818
  152SAPE   C2716835   0.304   2.719   7.231  0.3939 -0.7634  0.2520
  152SAPE   H7R16836   0.387   2.733   7.158 -0.5993  2.7236 -0.4021
  152SAPE   H7S16837   0.325   2.617   7.269 -0.9892 -2.2290 -2.6184
  152SAPE   C2816838   0.318   2.830   7.325  0.0184 -0.5748 -0.0874
  152SAPE   H8R16839   0.272   2.921   7.285 -0.5169 -1.1063 -0.6858
  152SAPE   C2916840   0.380   2.821   7.444 -0.6384 -0.1492 -0.1014
  152SAPE   H9R16841   0.388   2.911   7.506  1.2712  0.0531 -0.5677
  152SAPE  C21016842   0.448   2.703   7.510  0.5834  0.0724 -0.7551
  152SAPE  H10R16843   0.398   2.616   7.463 -3.1165  1.5838  0.0851
  152SAPE  H10S16844   0.427   2.684   7.618 -0.0810 -0.9234 -1.0524
  152SAPE  C21116845   0.595   2.710   7.498  0.2858 -0.4049  0.5624
  152SAPE  H11R16846   0.633   2.672   7.402 -3.7412  0.8895 -1.7810
  152SAPE  C21216847   0.675   2.756   7.598 -0.3186  0.0912  0.7475
  152SAPE  H12R16848   0.782   2.739   7.578 -0.7485 -2.6968  0.2909
  152SAPE  C21316849   0.641   2.809   7.735 -0.4064  0.0655 -0.4838
  152SAPE  H13R16850   0.736   2.795   7.791 -0.9879  1.6951  1.0141
  152SAPE  H13S16851   0.565   2.745   7.786 -0.9829  0.0678 -1.3155
  152SAPE  C21416852   0.610   2.960   7.727  0.2660  0.7115 -0.1792
  152SAPE  H14R16853   0.679   3.019   7.664  0.5955 -0.0832 -0.5717
  152SAPE  C21516854   0.511   3.024   7.784  0.4733  0.4226 -0.2733
  152SAPE  H15R16855   0.499   3.131   7.766 -0.5457 -0.1683 -3.7288
  152SAPE  C21616856   0.403   2.962   7.877  0.1585  0.0219 -0.2872
  152SAPE  H16R16857   0.375   2.857   7.854 -2.0808  0.4577  0.2268
  152SAPE  H16S16858   0.305   3.011   7.863  1.1570  1.8709 -1.2461
  152SAPE  C21716859   0.438   2.965   8.028  0.4372  0.9795  0.8731
  152SAPE  H17R16860   0.476   3.064   8.062  0.0894  0.8194  1.7890
  152SAPE  H17S16861   0.512   2.884   8.045 -0.3639 -0.5117 -2.2057
  152SAPE  C21816862   0.315   2.917   8.108  0.6613  0.2440  0.3581
  152SAPE  H18R16863   0.276   2.827   8.057  0.8848  0.1995  0.2633
  152SAPE  H18S16864   0.241   2.998   8.093  1.4462  0.6162 -1.8328
  152SAPE  C21916865   0.339   2.886   8.258  0.4278 -0.4064 -0.3284
  152SAPE  H19R16866   0.418   2.957   8.290 -0.8482  0.6684  0.5421
  152SAPE  H19S16867   0.379   2.782   8.269  0.3908 -0.3790  0.0892
  152SAPE  C22016868   0.219   2.900   8.353 -0.1568  0.2753  0.8713
  152SAPE  H20R16869   0.186   3.006   8.355  0.6336  0.5533 -0.2374
  152SAPE  H20S16870   0.255   2.877   8.456  1.1138  0.4822  0.4961
  152SAPE  H20T16871   0.129   2.837   8.334  0.0151 -0.5482  2.5574
  152SAPE   C3316872  -0.101   2.411   6.800  0.7437  0.0583  0.2767
  152SAPE   H3X16873  -0.162   2.414   6.707 -1.4731 -5.3276  1.1520
  152SAPE   H3Y16874  -0.043   2.505   6.807  0.4242  0.1680  1.5290
  152SAPE   C3416875  -0.188   2.390   6.928  0.0709  0.0835 -0.4051
  152SAPE   H4X16876  -0.279   2.332   6.903 -0.7590  0.2486  2.0082
  152SAPE   H4Y16877  -0.231   2.490   6.949 -2.4642 -1.0318  0.0645
  152SAPE   C3516878  -0.123   2.332   7.053 -0.2162  0.9433  0.1666
  152SAPE   H5X16879  -0.054   2.246   7.038  0.7994  1.7371  0.1870
  152SAPE   H5Y16880  -0.205   2.307   7.124 -0.3630  2.1857  0.4546
  152SAPE   C3616881  -0.039   2.436   7.122  0.2349 -0.2334 -0.0712
  152SAPE   H6X16882  -0.078   2.539   7.111 -0.0812 -0.4648 -1.2520
  152SAPE   H6Y16883   0.060   2.423   7.072 -0.2172 -0.7596 -0.8430
  152SAPE   C3716884  -0.020   2.410   7.264  0.0273 -0.4043 -0.6935
  152SAPE   H7X16885   0.077   2.451   7.300 -0.4626  1.6725 -1.5798
  152SAPE   H7Y16886  -0.022   2.302   7.290 -1.3527 -0.2083  0.1394
  152SAPE   C3816887  -0.130   2.464   7.352  0.1247 -0.3174 -0.3253
  152SAPE   H8X16888  -0.227   2.416   7.325 -1.4452  1.5222  1.6568
  152SAPE   H8Y16889  -0.133   2.574   7.334  0.0439  0.0048  1.4942
  152SAPE   C3916890  -0.116   2.460   7.507  0.4906  0.2668  0.6101
  152SAPE   H9X16891  -0.142   2.354   7.530 -1.4641  0.1517 -1.6872
  152SAPE   H9Y16892  -0.204   2.517   7.543 -0.8379 -0.7236 -0.9239
  152SAPE  C31016893   0.008   2.526   7.559 -0.1038  0.4772  0.0343
  152SAPE  H10X16894   0.003   2.629   7.518 -1.1768 -0.3571 -2.0797
  152SAPE  H10Y16895   0.101   2.484   7.516  0.4012  0.5265  1.0422
  152SAPE  C31116896   0.014   2.526   7.720  0.5403  0.0027  0.0771
  152SAPE  H11X16897   0.017   2.419   7.750  3.8566 -0.1928 -0.5142
  152SAPE  H11Y16898  -0.082   2.565   7.759 -1.0256 -1.9514 -1.5741
  152SAPE  C31216899   0.136   2.591   7.780 -0.0276  0.5832  0.2394
  152SAPE  H12X16900   0.094   2.661   7.856  0.8272  1.0702  0.2790
  152SAPE  H12Y16901   0.189   2.646   7.699  3.5868  0.1647  2.1072
  152SAPE  C31316902   0.223   2.494   7.850  0.2595  0.2606 -0.1775
  152SAPE  H13X16903   0.262   2.419   7.778  1.0470 -1.1985  1.6831
  152SAPE  H13Y16904   0.151   2.440   7.915 -1.4296  2.5390 -0.0180
  152SAPE  C31416905   0.346   2.565   7.912 -0.2213 -0.2286  0.1625
  152SAPE  H14X16906   0.312   2.665   7.945 -2.0519 -0.0107 -2.0915
  152SAPE  H14Y16907   0.412   2.571   7.823 -0.8126  0.3138 -0.2494
  152SAPE  C31516908   0.417   2.495   8.024 -0.2598 -0.4467 -0.0987
  152SAPE  H15X16909   0.514   2.548   8.037 -0.1390 -0.5843 -0.4182
  152SAPE  H15Y16910   0.442   2.398   7.976 -2.4900 -0.4558 -1.4100
  152SAPE  C31616911   0.343   2.484   8.158  0.4160 -0.2315  0.0338
  152SAPE  H16X16912   0.238   2.451   8.148  0.2817  0.0114  0.5854
  152SAPE  H16Y16913   0.323   2.584   8.202  2.1395 -0.1887  0.8248
  152SAPE  C31716914   0.415   2.396   8.263  0.1453 -0.5863  0.1476
  152SAPE  H17X16915   0.425   2.289   8.233 -0.0411 -0.6393  0.2749
  152SAPE  H17Y16916   0.369   2.391   8.364 -0.2352  0.0779  0.0125
  152SAPE  C31816917   0.561   2.450   8.286 -0.5509 -0.3844 -0.3297
  152SAPE  H18X16918   0.610   2.385   8.361 -1.2186  1.1584  1.5444
  152SAPE  H18Y16919   0.562   2.557   8.319 -1.3001 -0.6115  0.4725
  152SAPE  H18Z16920   0.617   2.450   8.191 -1.7443  0.5227 -1.0648
  153SAPE     N16921   4.261   4.213   5.923 -0.3519 -0.3526  0.0725
  153SAPE   HN116922   4.193   4.164   5.862 -0.0426 -0.9837  0.2223
  153SAPE   HN216923   4.203   4.253   5.999 -3.2367 -0.1241 -2.1060
  153SAPE   HN316924   4.290   4.294   5.864 -1.0050  0.3905  0.7378
  153SAPE   C1216925   4.388   4.136   5.966 -0.6926  0.4885  0.5292
  153SAPE  H12A16926   4.441   4.186   6.050 -0.4314 -1.8504  1.8718
  153SAPE  H12B16927   4.452   4.135   5.875 -2.0839  0.4906 -0.4777
  153SAPE   C1116928   4.337   3.997   5.999 -0.1447  0.3790 -0.7399
  153SAPE  H11A16929   4.249   3.994   6.066 -1.3201 -1.3792 -2.2540
  153SAPE  H11B16930   4.418   3.946   6.055 -0.1027 -0.0237 -1.1567
  153SAPE     P16931   4.358   3.784   5.845  0.0767 -0.0946  0.0563
  153SAPE   O1316932   4.252   3.717   5.769  0.0018 -0.1288 -0.0207
  153SAPE   O1416933   4.496   3.783   5.794  0.4830 -0.3325  0.2177
  153SAPE   O1216934   4.306   3.929   5.874 -0.1987 -0.4277 -0.1401
  153SAPE   O1116935   4.362   3.721   5.989  0.3255 -0.4312  0.7331
  153SAPE    C116936   4.240   3.693   6.056  0.3648 -0.5668 -0.3683
  153SAPE    HA16937   4.197   3.794   6.072  3.7689  2.1065 -5.4915
  153SAPE    HB16938   4.171   3.630   5.996 -2.4082 -0.4642  2.4485
  153SAPE    C216939   4.272   3.604   6.188 -0.2830 -0.0294  0.9691
  153SAPE    HS16940   4.186   3.571   6.252  0.1796 -0.2773  1.4716
  153SAPE   O2116941   4.377   3.655   6.279  0.1695  0.5094  0.1599
  153SAPE   C2116942   4.342   3.773   6.333 -0.2265 -0.2117 -0.3155
  153SAPE   O2216943   4.237   3.830   6.324 -0.4246  0.0612 -0.2491
  153SAPE   C2216944   4.464   3.830   6.400 -0.4235  0.0765  0.5622
  153SAPE   H2R16945   4.499   3.752   6.471 -0.2104 -2.6009 -2.2632
  153SAPE   H2S16946   4.545   3.846   6.326 -0.1158 -1.5202  0.5297
  153SAPE    C316947   4.319   3.464   6.123 -0.5052 -0.3137 -0.9417
  153SAPE    HX16948   4.408   3.494   6.065 -1.6803 -1.0607 -3.2485
  153SAPE    HY16949   4.244   3.438   6.045  0.2591  0.0662 -1.8160
  153SAPE   O3116950   4.344   3.362   6.226 -0.6791  0.0291 -0.0923
  153SAPE   C3116951   4.269   3.249   6.221 -0.6811 -0.0112  0.1722
  153SAPE   O3216952   4.179   3.237   6.142  0.3757  0.6027 -0.0387
  153SAPE   C3216953   4.301   3.153   6.328 -0.8104  0.3647 -0.6618
  153SAPE   H2X16954   4.410   3.134   6.323 -0.7127  0.9669 -1.0229
  153SAPE   H2Y16955   4.244   3.061   6.304  0.9715 -0.7390 -0.8118
  153SAPE   C2316956   4.430   3.969   6.464  0.2527  0.8139 -0.5712
  153SAPE   H3R16957   4.335   3.971   6.521  0.1217 -1.1080 -0.6644
  153SAPE   H3S16958   4.432   4.041   6.379  0.6575  0.0437 -1.2204
  153SAPE   C2416959   4.551   4.014   6.543  0.1976  0.2486  0.4251
  153SAPE   H4R16960   4.625   4.018   6.460  1.1470 -0.6674  1.2045
  153SAPE   H4S16961   4.580   3.938   6.618 -0.1414 -0.8645 -0.5398
  153SAPE   C2516962   4.525   4.157   6.598 -0.3674 -0.0067  0.1510
  153SAPE   H5R16963   4.529   4.241   6.527 -0.7430  0.3142  0.5080
  153SAPE   C2616964   4.504   4.180   6.729 -0.1497  0.0226 -0.5430
  153SAPE   H6R16965   4.491   4.281   6.770 -2.7387 -0.8075  0.8589
  153SAPE   C2716966   4.518   4.084   6.844 -0.1235  0.2081 -0.6723
  153SAPE   H7R16967   4.562   4.140   6.929 -3.5559 -0.4930  1.7671
  153SAPE   H7S16968   4.587   3.997   6.835 -1.9262 -1.4576  0.7055
  153SAPE   C2816969   4.383   4.024   6.883  0.1277 -0.3784 -0.5243
  153SAPE   H8R16970   4.333   3.976   6.799 -1.7066  1.2877 -0.4493
  153SAPE   C2916971   4.332   4.022   7.006 -0.2274  0.0215  0.0457
  153SAPE   H9R16972   4.231   3.978   7.009  0.2466 -1.0422  1.6391
  153SAPE  C21016973   4.396   4.057   7.133 -0.2441  0.8821 -0.3572
  153SAPE  H10R16974   4.318   4.064   7.211  0.4572 -0.8265  0.5538
  153SAPE  H10S16975   4.444   4.156   7.114 -0.9360  1.6310  1.5613
  153SAPE  C21116976   4.507   3.953   7.162  0.6264  0.5674  0.4662
  153SAPE  H11R16977   4.612   3.983   7.146  0.6914  0.3324  0.4412
  153SAPE  C21216978   4.484   3.834   7.229  0.1766  0.4842  0.6312
  153SAPE  H12R16979   4.568   3.770   7.259 -1.1210 -2.4476 -1.5395
  153SAPE  C21316980   4.345   3.783   7.286 -1.1050 -0.4986 -0.2293
  153SAPE  H13R16981   4.262   3.819   7.222 -0.7615  1.8231  0.5111
  153SAPE  H13S16982   4.321   3.826   7.386 -0.6895 -0.8128  0.0034
  153SAPE  C21416983   4.345   3.633   7.287  0.3376  0.5444  0.2254
  153SAPE  H14R16984   4.286   3.588   7.206  1.1810 -0.4557  0.1374
  153SAPE  C21516985   4.397   3.553   7.386  0.5600  1.1353  0.9547
  153SAPE  H15R16986   4.380   3.445   7.387 -0.5073  1.2401 -1.0651
  153SAPE  C21616987   4.469   3.615   7.503  0.1479 -0.2473 -0.0913
  153SAPE  H16R16988   4.399   3.686   7.551  0.8781  0.8760 -0.6476
  153SAPE  H16S16989   4.556   3.673   7.465 -0.0073  1.2470  1.6858
  153SAPE  C21716990   4.515   3.501   7.600 -0.0649  0.0167 -0.0775
  153SAPE  H17R16991   4.550   3.414   7.541 -0.3817  0.0431 -0.3048
  153SAPE  H17S16992   4.437   3.473   7.674  2.7043  0.4278  3.2989
  153SAPE  C21816993   4.641   3.544   7.689  0.1137 -0.4749  0.2639
  153SAPE  H18R16994   4.602   3.628   7.750  0.7937  0.3646 -0.4280
  153SAPE  H18S16995   4.717   3.591   7.622 -0.5088 -0.0659 -0.1690
  153SAPE  C21916996   4.691   3.440   7.785  0.2315  0.0808  0.1461
  153SAPE  H19R16997   4.616   3.415   7.863 -1.3906  1.9851 -0.7151
  153SAPE  H19S16998   4.780   3.483   7.835  0.8277  1.1981 -1.7621
  153SAPE  C22016999   4.737   3.304   7.721 -0.6139 -0.4837 -0.0603
  153SAPE  H20R17000   4.805   3.257   7.794 -0.7233 -0.3172  0.1496
  153SAPE  H20S17001   4.770   3.312   7.615 -1.5612 -2.8361 -0.6035
  153SAPE  H20T17002   4.645   3.242   7.713  0.2572 -1.8024 -0.1855
  153SAPE   C3317003   4.263   3.193   6.477 -0.0922 -0.1174 -0.0756
  153SAPE   H3X17004   4.314   3.285   6.512  1.2308 -0.5636 -0.7819
  153SAPE   H3Y17005   4.292   3.113   6.548 -0.1682  1.3024  1.6323
  153SAPE   C3417006   4.110   3.214   6.511 -0.0473  0.1688  0.3793
  153SAPE   H4X17007   4.043   3.131   6.477 -1.6306  1.0135  1.3145
  153SAPE   H4Y17008   4.061   3.304   6.467  1.6957  0.8572 -0.2322
  153SAPE   C3517009   4.093   3.237   6.661  0.3749  0.3826  0.2553
  153SAPE   H5X17010   4.160   3.318   6.697  0.7816  0.8616 -1.5304
  153SAPE   H5Y17011   4.116   3.140   6.712  0.2137  1.3125  2.2033
  153SAPE   C3617012   3.954   3.287   6.690  0.6549  0.2570 -0.2723
  153SAPE   H6X17013   3.885   3.237   6.619  2.8824 -2.3251 -0.7609
  153SAPE   H6Y17014   3.940   3.395   6.670  0.5589  0.2721 -0.1265
  153SAPE   C3717015   3.914   3.251   6.836  0.3113  1.0574  0.5227
  153SAPE   H7X17016   3.947   3.146   6.855 -2.1990 -0.0696 -0.7785
  153SAPE   H7Y17017   3.804   3.246   6.849  0.0322 -0.9490 -1.8106
  153SAPE   C3817018   3.985   3.348   6.934 -0.0801 -0.2038 -0.2406
  153SAPE   H8X17019   3.972   3.455   6.907  1.8194  0.5965  1.7375
  153SAPE   H8Y17020   4.094   3.332   6.919  0.0293 -0.7673  1.0415
  153SAPE   C3917021   3.938   3.312   7.073 -0.0305  0.7525 -0.2155
  153SAPE   H9X17022   3.931   3.203   7.091 -0.3518  1.1733  2.6105
  153SAPE   H9Y17023   3.835   3.353   7.081 -1.0335 -1.2627 -1.8867
  153SAPE  C31017024   4.026   3.371   7.181 -0.1295 -0.2334  0.8338
  153SAPE  H10X17025   3.998   3.477   7.197  0.0168 -0.1450  0.5129
  153SAPE  H10Y17026   4.132   3.359   7.150 -0.4534 -0.3986 -0.2837
  153SAPE  C31117027   3.994   3.304   7.317 -0.1747 -0.5249  0.3198
  153SAPE  H11X17028   3.987   3.194   7.304  0.3574 -0.5459  0.1642
  153SAPE  H11Y17029   3.903   3.342   7.367  0.1581 -1.3109  1.5790
  153SAPE  C31217030   4.107   3.328   7.412 -0.1659 -0.0872  0.4295
  153SAPE  H12X17031   4.116   3.436   7.438  2.1505  0.1584 -1.1190
  153SAPE  H12Y17032   4.207   3.298   7.374 -0.0123  1.3828 -0.3794
  153SAPE  C31317033   4.082   3.234   7.537 -0.2430  0.1532 -0.1024
  153SAPE  H13X17034   4.087   3.125   7.515 -0.6863  0.3020 -1.0425
  153SAPE  H13Y17035   3.974   3.254   7.556 -0.6426  0.7227 -2.5509
  153SAPE  C31417036   4.164   3.262   7.663 -0.1460 -0.5262  0.4753
  153SAPE  H14X17037   4.150   3.370   7.687 -0.1214 -0.5140  0.4352
  153SAPE  H14Y17038   4.273   3.253   7.643  0.3510  0.7889  2.3120
  153SAPE  C31517039   4.126   3.182   7.781 -0.3488  0.7932  0.0254
  153SAPE  H15X17040   4.131   3.072   7.762 -1.1648  0.8153 -0.3324
  153SAPE  H15Y17041   4.024   3.205   7.819 -0.5428 -2.4421  1.8245
  153SAPE  C31617042   4.221   3.208   7.899  0.1197 -0.7413  1.1065
  153SAPE  H16X17043   4.227   3.316   7.922  1.5618 -0.7356  0.7752
  153SAPE  H16Y17044   4.325   3.180   7.870  0.6624  1.3701  0.8861
  153SAPE  C31717045   4.196   3.137   8.040 -0.4653  0.6738  0.0616
  153SAPE  H17X17046   4.227   3.031   8.029  1.6048  1.1472  0.9044
  153SAPE  H17Y17047   4.087   3.149   8.061 -0.5939  1.9752 -1.2344
  153SAPE  C31817048   4.282   3.192   8.150 -0.8097  0.1643 -0.0486
  153SAPE  H18X17049   4.230   3.286   8.180 -1.4747 -0.7116  1.6874
  153SAPE  H18Y17050   4.383   3.228   8.125 -1.3326  2.7790  1.2399
  153SAPE  H18Z17051   4.305   3.119   8.231  0.2393  1.4982  0.9054
  154SAPE     N17052   0.562   1.557   5.706 -0.0746  0.6270  0.0060
  154SAPE   HN117053   0.591   1.603   5.617  0.8091 -0.3948 -0.2407
  154SAPE   HN217054   0.642   1.521   5.760  0.7011  0.0017 -1.5011
  154SAPE   HN317055   0.500   1.480   5.673 -1.2670  2.0265 -1.1844
  154SAPE   C1217056   0.477   1.656   5.784  0.0811  0.3809 -0.8688
  154SAPE  H12A17057   0.391   1.676   5.717  0.7260  0.3718 -1.7162
  154SAPE  H12B17058   0.528   1.754   5.796 -1.0776  0.9222 -0.2385
  154SAPE   C1117059   0.437   1.593   5.913 -0.3596 -0.8920 -0.1668
  154SAPE  H11A17060   0.362   1.657   5.963  0.1997 -0.5334  0.2247
  154SAPE  H11B17061   0.525   1.608   5.978 -1.9736  1.0546  1.6979
  154SAPE     P17062   0.410   1.366   6.033 -0.3562  0.3425 -0.0536
  154SAPE   O1317063   0.302   1.267   6.015 -0.0743 -0.2454 -0.8876
  154SAPE   O1417064   0.551   1.329   6.033  0.0716 -0.1622  0.0381
  154SAPE   O1217065   0.389   1.457   5.909  0.5318 -0.1850 -0.1813
  154SAPE   O1117066   0.383   1.470   6.148 -0.2714 -0.5819 -0.3746
  154SAPE    C117067   0.267   1.535   6.185  0.7754 -0.8059  0.0576
  154SAPE    HA17068   0.283   1.645   6.183 -0.8023 -0.4629  2.0664
  154SAPE    HB17069   0.180   1.506   6.122  1.4513 -1.2255 -0.6875
  154SAPE    C217070   0.213   1.492   6.327  0.5047  0.0000  0.0843
  154SAPE    HS17071   0.110   1.534   6.334 -0.1819 -1.2197 -1.9607
  154SAPE   O2117072   0.298   1.540   6.429  0.6152  0.1641  0.5336
  154SAPE   C2117073   0.232   1.566   6.545 -0.4244  0.2084 -0.2685
  154SAPE   O2217074   0.112   1.556   6.569  0.0148 -0.2654 -0.0488
  154SAPE   C2217075   0.332   1.625   6.648  0.3716  0.2702  0.1952
  154SAPE   H2R17076   0.333   1.561   6.738 -1.9898  0.4208  0.4022
  154SAPE   H2S17077   0.435   1.622   6.608  1.0781  0.0037  1.9634
  154SAPE    C317078   0.192   1.338   6.333  0.8289 -0.1824 -0.2348
  154SAPE    HX17079   0.292   1.291   6.333  0.4972 -0.9017 -0.4757
  154SAPE    HY17080   0.160   1.298   6.235  3.6838 -0.8970 -0.9617
  154SAPE   O3117081   0.091   1.312   6.431 -0.1933  0.3543 -0.0192
  154SAPE   C3117082   0.122   1.235   6.533  0.6744 -0.0160 -0.1205
  154SAPE   O3217083   0.231   1.209   6.580 -0.2803  0.3404  0.2966
  154SAPE   C3217084  -0.009   1.169   6.573  0.1846 -0.2672  0.2785
  154SAPE   H2X17085  -0.006   1.067   6.528  1.3155 -0.3931  0.6174
  154SAPE   H2Y17086  -0.095   1.231   6.539  0.5640 -0.3882 -0.9444
  154SAPE   C2317087   0.289   1.765   6.710 -0.1894 -0.7418 -0.3525
  154SAPE   H3R17088   0.188   1.772   6.756  0.0435 -0.2407  0.0789
  154SAPE   H3S17089   0.296   1.842   6.630 -0.3082 -0.8938 -0.5121
  154SAPE   C2417090   0.391   1.803   6.823  0.0359 -0.3866  1.0022
  154SAPE   H4R17091   0.488   1.806   6.769 -0.9995  1.6474 -0.8621
  154SAPE   H4S17092   0.382   1.707   6.878 -0.1206 -2.5282 -2.4431
  154SAPE   C2517093   0.359   1.936   6.887 -0.3928  0.0270  0.1216
  154SAPE   H5R17094   0.328   2.015   6.817  1.1869  1.4006  0.8879
  154SAPE   C2617095   0.386   1.967   7.015  0.0641  0.4496 -0.1860
  154SAPE   H6R17096   0.366   2.070   7.047 -0.3226  0.0858  0.8004
  154SAPE   C2717097   0.451   1.867   7.119  0.3491  0.1439  0.2377
  154SAPE   H7R17098   0.503   1.779   7.073 -1.3873 -2.6085  3.1336
  154SAPE   H7S17099   0.369   1.821   7.177  0.3954 -0.1193  0.0982
  154SAPE   C2817100   0.542   1.937   7.221  1.1736  0.3861  0.4222
  154SAPE   H8R17101   0.570   2.038   7.190 -2.0175  0.5738 -2.3763
  154SAPE   C2917102   0.570   1.904   7.348  0.0818  0.0644  0.0442
  154SAPE   H9R17103   0.626   1.962   7.424  0.0073  1.8707 -1.2003
  154SAPE  C21017104   0.523   1.768   7.398  0.0579  0.2185 -0.3760
  154SAPE  H10R17105   0.586   1.740   7.485 -1.3193  2.3012  1.4184
  154SAPE  H10S17106   0.545   1.696   7.317 -1.3177  1.1661 -1.6286
  154SAPE  C21117107   0.382   1.757   7.441  0.4038 -0.3663 -0.0243
  154SAPE  H11R17108   0.338   1.851   7.477  0.9570  0.0959 -0.5215
  154SAPE  C21217109   0.304   1.647   7.429  0.3409 -0.4210 -0.3703
  154SAPE  H12R17110   0.199   1.656   7.459  0.0168 -2.1372 -0.8652
  154SAPE  C21317111   0.345   1.514   7.383  0.4205  0.0406  0.2050
  154SAPE  H13R17112   0.408   1.513   7.291  1.3158 -0.9115  0.8130
  154SAPE  H13S17113   0.254   1.464   7.342  1.5138 -2.4200  0.6049
  154SAPE  C21417114   0.410   1.435   7.495  0.5517 -0.1464 -0.1056
  154SAPE  H14R17115   0.518   1.456   7.509  0.3422 -0.2538  2.0208
  154SAPE  C21517116   0.352   1.353   7.578  0.1161 -0.1040 -0.5343
  154SAPE  H15R17117   0.420   1.301   7.647  0.4142  0.7622 -0.1612
  154SAPE  C21617118   0.210   1.305   7.564  0.0504  0.0106  0.2041
  154SAPE  H16R17119   0.155   1.340   7.474  0.0490  3.2839  1.3718
  154SAPE  H16S17120   0.161   1.334   7.659 -0.4222 -0.6968  0.1865
  154SAPE  C21717121   0.180   1.154   7.561  0.4752  0.0248 -0.5027
  154SAPE  H17R17122   0.070   1.144   7.573  0.4296  0.8759 -0.1559
  154SAPE  H17S17123   0.226   1.103   7.648  0.3629  1.7300  0.6095
  154SAPE  C21817124   0.222   1.090   7.432  0.0134 -0.9115 -0.2904
  154SAPE  H18R17125   0.324   1.125   7.407 -0.6432  1.5232  0.1880
  154SAPE  H18S17126   0.151   1.130   7.357 -0.2946 -0.9702 -0.0321
  154SAPE  C21917127   0.207   0.936   7.429 -0.4312 -0.0149  0.4652
  154SAPE  H19R17128   0.101   0.912   7.452 -0.6342  1.6454  1.4163
  154SAPE  H19S17129   0.277   0.891   7.502  0.4397  0.2935 -0.1655
  154SAPE  C22017130   0.231   0.869   7.297 -0.2617  0.5344 -0.0314
  154SAPE  H20R17131   0.335   0.862   7.257 -0.2919  0.2707 -0.0623
  154SAPE  H20S17132   0.177   0.910   7.209  0.6252 -1.0411 -1.3737
  154SAPE  H20T17133   0.214   0.760   7.299  1.0176  0.3160  2.0148
  154SAPE   C3317134  -0.024   1.161   6.734  0.2239  0.1964 -0.6854
  154SAPE   H3X17135  -0.014   1.267   6.767 -0.4884  0.1238 -0.2082
  154SAPE   H3Y17136   0.056   1.096   6.776 -1.6659 -0.4043  2.2429
  154SAPE   C3417137  -0.171   1.109   6.782 -0.6598  0.0772 -0.3609
  154SAPE   H4X17138  -0.176   1.001   6.756 -1.6862 -0.4884  1.8828
  154SAPE   H4Y17139  -0.247   1.169   6.727 -0.6090  0.2609 -0.2334
  154SAPE   C3517140  -0.195   1.123   6.932 -0.5137  0.2461  0.7109
  154SAPE   H5X17141  -0.292   1.071   6.948 -1.4402  1.7223  0.1128
  154SAPE   H5Y17142  -0.206   1.230   6.961 -2.8009 -0.0345  1.1125
  154SAPE   C3617143  -0.089   1.064   7.015 -0.2819 -0.8246  0.8669
  154SAPE   H6X17144   0.008   1.114   6.991  0.0060 -1.1594  1.3345
  154SAPE   H6Y17145  -0.067   0.958   6.993  2.9273  0.2178 -1.9035
  154SAPE   C3717146  -0.116   1.092   7.167  0.6111 -0.6505  0.5698
  154SAPE   H7X17147  -0.139   1.201   7.175 -2.2303 -1.2094  1.2926
  154SAPE   H7Y17148  -0.022   1.063   7.218  2.9019  0.6877 -2.5349
  154SAPE   C3817149  -0.235   1.002   7.206  0.3527  0.4174  0.0100
  154SAPE   H8X17150  -0.205   0.897   7.191 -0.5906  0.4204 -2.3364
  154SAPE   H8Y17151  -0.325   1.031   7.148  1.2808 -0.3164 -1.8795
  154SAPE   C3917152  -0.279   1.022   7.351 -0.5456  0.2902 -0.0596
  154SAPE   H9X17153  -0.188   1.032   7.414  0.5858 -1.1583 -1.3736
  154SAPE   H9Y17154  -0.340   0.938   7.391 -0.9758  0.2013 -0.8873
  154SAPE  C31017155  -0.358   1.148   7.375 -0.0147 -0.5671  0.0294
  154SAPE  H10X17156  -0.461   1.150   7.333 -0.5822  0.3873  1.3754
  154SAPE  H10Y17157  -0.312   1.234   7.320 -0.5722 -0.1599  0.1835
  154SAPE  C31117158  -0.379   1.189   7.523  0.1107  0.4211  0.3114
  154SAPE  H11X17159  -0.435   1.105   7.570  3.0488 -1.7868  0.1035
  154SAPE  H11Y17160  -0.447   1.278   7.523  1.1906  1.2967 -1.2559
  154SAPE  C31217161  -0.255   1.226   7.606 -0.0738 -0.1481  0.1259
  154SAPE  H12X17162  -0.180   1.293   7.558  2.2807 -1.1216  2.2644
  154SAPE  H12Y17163  -0.203   1.129   7.619  0.0556 -0.1927 -0.6908
  154SAPE  C31317164  -0.282   1.290   7.738  0.4580 -0.6772 -0.0682
  154SAPE  H13X17165  -0.342   1.214   7.793 -1.1100  0.8300  0.3887
  154SAPE  H13Y17166  -0.342   1.381   7.717  0.2716  0.3327  4.0191
  154SAPE  C31417167  -0.157   1.318   7.819 -0.4701  0.2408 -0.3329
  154SAPE  H14X17168  -0.105   1.403   7.770 -1.5727 -0.1249 -2.2067
  154SAPE  H14Y17169  -0.093   1.227   7.823 -1.4568 -0.4179  1.4062
  154SAPE  C31517170  -0.191   1.355   7.966  0.4903  0.3187  0.1584
  154SAPE  H15X17171  -0.203   1.255   8.012  1.8554  0.0100 -0.1342
  154SAPE  H15Y17172  -0.285   1.414   7.975  0.4356 -0.0496  2.5121
  154SAPE  C31617173  -0.070   1.418   8.044  0.0118  0.6238 -0.6483
  154SAPE  H16X17174  -0.056   1.526   8.021  4.3235  0.1857 -0.8371
  154SAPE  H16Y17175   0.025   1.364   8.026  0.4722  1.0277  0.4813
  154SAPE  C31717176  -0.102   1.414   8.193  0.2257 -0.6834  0.5913
  154SAPE  H17X17177  -0.118   1.310   8.229 -1.0894 -0.0318  2.0439
  154SAPE  H17Y17178  -0.196   1.471   8.209  1.1151  1.6636 -2.0035
  154SAPE  C31817179   0.007   1.480   8.282  0.4526  0.1519 -0.2952
  154SAPE  H18X17180   0.009   1.586   8.252  1.8173  0.0072 -0.7505
  154SAPE  H18Y17181   0.106   1.436   8.260  0.3715 -0.6868  0.8627
  154SAPE  H18Z17182  -0.024   1.466   8.388  0.0499  0.1485 -0.4116
  155SAPE     N17183   2.861   6.170   6.270  0.2228  0.1138  0.2444
  155SAPE   HN117184   2.811   6.094   6.321 -1.9039  2.0314  1.1971
  155SAPE   HN217185   2.956   6.188   6.308  0.0208 -1.9195  1.9110
  155SAPE   HN317186   2.805   6.252   6.300  0.3343  0.2838 -0.0143
  155SAPE   C1217187   2.858   6.142   6.126  0.2337  0.5845  0.1309
  155SAPE  H12A17188   2.959   6.100   6.106 -0.0276  0.3911 -0.8159
  155SAPE  H12B17189   2.831   6.237   6.074 -2.3569 -0.1306  0.0465
  155SAPE   C1117190   2.745   6.040   6.107  0.3310 -0.2249  0.6834
  155SAPE  H11A17191   2.778   5.949   6.160 -2.2746 -0.6733  1.7361
  155SAPE  H11B17192   2.737   6.019   5.999  0.9110 -1.5013  0.8772
  155SAPE     P17193   2.493   5.997   6.167 -0.2033  0.0029 -0.2995
  155SAPE   O1317194   2.392   6.058   6.085 -0.4981 -0.5863 -0.0255
  155SAPE   O1417195   2.530   5.859   6.128  0.1830 -0.2851  0.0230
  155SAPE   O1217196   2.618   6.087   6.154 -0.2022  0.3503  0.5842
  155SAPE   O1117197   2.459   6.005   6.324  0.0477  0.0115  0.2986
  155SAPE    C117198   2.433   5.888   6.399  0.0287  0.4660  0.9601
  155SAPE    HA17199   2.362   5.816   6.353 -1.5708  0.6863  2.9550
  155SAPE    HB17200   2.526   5.826   6.394 -0.8477 -0.9430  1.4742
  155SAPE    C217201   2.400   5.922   6.551 -0.3651  0.6115  0.2383
  155SAPE    HS17202   2.323   6.002   6.557  0.8486  1.8767 -0.3377
  155SAPE   O2117203   2.529   5.968   6.614  0.0129 -0.2642  0.1761
  155SAPE   C2117204   2.511   6.049   6.725 -0.0398  0.3768  0.5898
  155SAPE   O2217205   2.403   6.088   6.764 -0.1763 -0.5725 -0.8778
  155SAPE   C2217206   2.644   6.078   6.796  0.3666  0.6445  0.0587
  155SAPE   H2R17207   2.722   6.091   6.718 -0.7516  2.4220 -0.8382
  155SAPE   H2S17208   2.639   6.170   6.857  1.2618 -1.0041  2.7989
  155SAPE    C317209   2.351   5.797   6.630  0.4962 -0.3223 -0.0406
  155SAPE    HX17210   2.252   5.768   6.587  0.0214  0.1014  0.7369
  155SAPE    HY17211   2.334   5.834   6.733  1.5542 -0.3076  0.1370
  155SAPE   O3117212   2.445   5.691   6.630 -0.2605  0.2959 -0.1064
  155SAPE   C3117213   2.409   5.581   6.705  0.1878  0.0369  0.4378
  155SAPE   O3217214   2.306   5.575   6.767  0.1391  0.2259  0.0233
  155SAPE   C3217215   2.506   5.465   6.686  0.3189 -0.1761  0.6566
  155SAPE   H2X17216   2.553   5.479   6.586 -1.0755 -0.8109 -0.1046
  155SAPE   H2Y17217   2.444   5.373   6.679 -0.3952  0.2809  0.8618
  155SAPE   C2317218   2.689   5.961   6.887  0.6523 -0.4780  0.3133
  155SAPE   H3R17219   2.798   5.976   6.902  0.6116  0.5959 -0.3545
  155SAPE   H3S17220   2.668   5.863   6.839  1.0443 -0.5423  0.2758
  155SAPE   C2417221   2.614   5.976   7.021 -0.9296  0.3162  0.9402
  155SAPE   H4R17222   2.505   5.986   7.005 -1.2369  0.8287  3.0350
  155SAPE   H4S17223   2.651   6.062   7.080 -0.4414  0.3058  0.6609
  155SAPE   C2517224   2.623   5.858   7.111 -0.9322 -0.1847 -0.0731
  155SAPE   H5R17225   2.718   5.859   7.168 -1.0238  2.3289  0.1511
  155SAPE   C2617226   2.547   5.748   7.108  0.2416  0.4763 -0.9926
  155SAPE   H6R17227   2.559   5.664   7.178 -0.9050 -0.1625 -1.5186
  155SAPE   C2717228   2.422   5.731   7.023 -0.2573 -1.1027  0.0879
  155SAPE   H7R17229   2.406   5.628   6.985  2.7882 -0.5571 -3.2495
  155SAPE   H7S17230   2.443   5.780   6.925 -0.3854  0.5791  0.8679
  155SAPE   C2817231   2.294   5.799   7.062  0.0144 -0.7176 -0.7470
  155SAPE   H8R17232   2.296   5.906   7.037 -3.8989 -0.3801 -0.2889
  155SAPE   C2917233   2.179   5.735   7.103 -0.4408  0.3169  0.6743
  155SAPE   H9R17234   2.095   5.798   7.134 -0.1762  0.4207  1.1983
  155SAPE  C21017235   2.168   5.582   7.128  0.5771 -0.5893 -0.6293
  155SAPE  H10R17236   2.270   5.539   7.117  0.5541 -0.2233 -2.7731
  155SAPE  H10S17237   2.107   5.523   7.056 -0.2816 -0.5454  0.0448
  155SAPE  C21117238   2.110   5.556   7.264 -0.6053  0.0910 -0.0619
  155SAPE  H11R17239   2.001   5.552   7.275 -0.4681  0.1142  1.6401
  155SAPE  C21217240   2.173   5.572   7.380  0.3283  0.4252 -0.4299
  155SAPE  H12R17241   2.131   5.532   7.473  1.4401 -0.1582 -0.1675
  155SAPE  C21317242   2.324   5.604   7.406 -0.3651  0.5398  0.0904
  155SAPE  H13R17243   2.387   5.593   7.315  1.4546  1.5159  1.1567
  155SAPE  H13S17244   2.364   5.521   7.468  0.6900  0.1947 -1.0130
  155SAPE  C21417245   2.364   5.741   7.467  0.4648  0.2175 -0.6894
  155SAPE  H14R17246   2.396   5.815   7.393  0.2184  0.4249 -0.5872
  155SAPE  C21517247   2.363   5.780   7.592  0.7303  0.5076 -0.4321
  155SAPE  H15R17248   2.377   5.888   7.608  0.2946  0.6321 -0.8427
  155SAPE  C21617249   2.319   5.688   7.705 -0.2040 -1.0648  0.1164
  155SAPE  H16R17250   2.415   5.665   7.757  0.3170 -3.5101 -1.7519
  155SAPE  H16S17251   2.286   5.588   7.670  1.5174 -0.8549 -2.3820
  155SAPE  C21717252   2.222   5.767   7.787 -0.4905 -0.4809 -0.1555
  155SAPE  H17R17253   2.124   5.784   7.737 -0.1240 -2.5326 -1.6651
  155SAPE  H17S17254   2.252   5.868   7.823  1.3689 -1.4580  1.1837
  155SAPE  C21817255   2.200   5.683   7.911  0.9397 -0.0881  0.4600
  155SAPE  H18R17256   2.297   5.654   7.956  1.0686 -1.9546 -0.8832
  155SAPE  H18S17257   2.145   5.589   7.893  0.7712  0.2386 -0.8371
  155SAPE  C21917258   2.117   5.768   8.006  0.1224  0.0858 -0.8189
  155SAPE  H19R17259   2.018   5.768   7.956  0.0004 -1.7070 -0.6421
  155SAPE  H19S17260   2.151   5.873   8.010  0.7897  0.0104 -3.2424
  155SAPE  C22017261   2.118   5.710   8.143 -0.5639 -0.7662  0.1190
  155SAPE  H20R17262   2.080   5.606   8.152  0.0629 -0.9759  0.4198
  155SAPE  H20S17263   2.054   5.777   8.203 -0.5140  0.0424 -0.7019
  155SAPE  H20T17264   2.224   5.721   8.176  0.1710 -0.4849 -2.1226
  155SAPE   C3317265   2.615   5.462   6.800  0.1436 -1.1215 -0.5775
  155SAPE   H3X17266   2.629   5.355   6.829 -0.9044 -1.0638  0.2214
  155SAPE   H3Y17267   2.580   5.522   6.887 -2.4418  0.8055 -2.7660
  155SAPE   C3417268   2.754   5.525   6.751  0.5616 -0.1351 -0.5255
  155SAPE   H4X17269   2.738   5.634   6.755 -0.9928 -0.3074 -1.3215
  155SAPE   H4Y17270   2.779   5.487   6.649  0.6127 -1.7882  0.0663
  155SAPE   C3517271   2.861   5.488   6.859  0.2177  0.5871 -0.0745
  155SAPE   H5X17272   2.961   5.507   6.814  0.0267 -1.6666 -1.6129
  155SAPE   H5Y17273   2.851   5.380   6.881 -1.7670  0.6433 -0.5442
  155SAPE   C3617274   2.846   5.570   6.991  0.3119  0.1357 -0.5847
  155SAPE   H6X17275   2.744   5.555   7.031  0.1116  2.1217 -0.2647
  155SAPE   H6Y17276   2.860   5.679   6.974  1.3471  0.2086  0.5803
  155SAPE   C3717277   2.938   5.525   7.109 -0.9754  1.1388  0.2634
  155SAPE   H7X17278   3.038   5.513   7.062 -1.2482  0.4341 -0.1509
  155SAPE   H7Y17279   2.894   5.426   7.133 -0.1646  0.9679  1.0918
  155SAPE   C3817280   2.929   5.606   7.244  1.0838 -1.0633  0.9294
  155SAPE   H8X17281   2.823   5.603   7.275  1.2029 -2.8678  1.2658
  155SAPE   H8Y17282   2.964   5.711   7.232 -1.9352 -0.1482 -0.6989
  155SAPE   C3917283   3.007   5.539   7.356 -0.2687  0.0505  0.1487
  155SAPE   H9X17284   3.111   5.552   7.317 -0.8700 -0.2624 -1.6439
  155SAPE   H9Y17285   2.993   5.430   7.366 -2.7935  0.3826  0.8623
  155SAPE  C31017286   2.981   5.591   7.501  0.8236 -0.1644  0.4370
  155SAPE  H10X17287   2.870   5.591   7.511  0.6607  1.0171 -0.9589
  155SAPE  H10Y17288   3.009   5.698   7.515  0.6411 -0.0219 -0.2665
  155SAPE  C31117289   3.052   5.506   7.607 -0.9634  0.4902  0.4688
  155SAPE  H11X17290   3.155   5.491   7.567 -1.5648 -1.2013 -0.5314
  155SAPE  H11Y17291   3.007   5.405   7.613 -1.3691  0.7399  2.5359
  155SAPE  C31217292   3.051   5.564   7.745 -0.4456  1.4966 -0.2462
  155SAPE  H12X17293   2.953   5.593   7.787 -0.1848  0.0564  1.5202
  155SAPE  H12Y17294   3.099   5.664   7.741 -2.3905  2.6260  2.0693
  155SAPE  C31317295   3.137   5.481   7.842  0.1055  0.3220 -0.0110
  155SAPE  H13X17296   3.236   5.466   7.793  0.4325  0.4186  0.5988
  155SAPE  H13Y17297   3.089   5.382   7.854  0.4738  0.3046  1.6998
  155SAPE  C31417298   3.147   5.557   7.976  0.1673  0.1297  0.4697
  155SAPE  H14X17299   3.042   5.585   8.001 -0.0939 -1.4261  1.2131
  155SAPE  H14Y17300   3.200   5.654   7.969 -2.0593  1.3077 -2.0474
  155SAPE  C31517301   3.189   5.469   8.092  0.5781  0.3828 -0.2340
  155SAPE  H15X17302   3.300   5.456   8.092  0.3042 -3.7320  2.3456
  155SAPE  H15Y17303   3.148   5.366   8.082  0.7580  0.1248  1.3728
  155SAPE  C31617304   3.143   5.529   8.227 -0.1219  0.2016  0.1780
  155SAPE  H16X17305   3.033   5.540   8.224 -0.1351  0.8941  2.1423
  155SAPE  H16Y17306   3.178   5.633   8.215 -1.0715  0.4567 -0.4599
  155SAPE  C31717307   3.191   5.465   8.358  0.4150 -0.4411 -0.2502
  155SAPE  H17X17308   3.297   5.435   8.345  0.0729 -1.5152 -0.6849
  155SAPE  H17Y17309   3.144   5.365   8.370  1.6810 -1.0836 -0.5261
  155SAPE  C31817310   3.163   5.557   8.480  0.1784  0.5242 -0.0818
  155SAPE  H18X17311   3.217   5.510   8.565 -2.5998 -2.0604  0.4510
  155SAPE  H18Y17312   3.060   5.525   8.506 -0.0181 -0.1884 -1.6023
  155SAPE  H18Z17313   3.168   5.666   8.462  0.2234  0.5871  0.3137
  156SAPE     N17314   2.261   3.144   6.045  0.1606  0.1172 -0.6724
  156SAPE   HN117315   2.299   3.212   5.976 -2.3133  1.0711 -1.2016
  156SAPE   HN217316   2.338   3.100   6.098 -1.5782 -0.9245  1.1366
  156SAPE   HN317317   2.227   3.066   5.985  2.8354 -2.0067  0.3549
  156SAPE   C1217318   2.161   3.192   6.135 -0.1834 -1.2496  0.0870
  156SAPE  H12A17319   2.080   3.117   6.148  0.1493 -1.4322  1.2003
  156SAPE  H12B17320   2.127   3.288   6.090  0.7932 -1.0423 -0.2205
  156SAPE   C1117321   2.222   3.222   6.274 -0.6252  0.3631  0.0913
  156SAPE  H11A17322   2.265   3.132   6.323 -1.9283 -0.8130 -0.8520
  156SAPE  H11B17323   2.141   3.248   6.345 -1.0950 -1.6631  0.3495
  156SAPE     P17324   2.302   3.475   6.273 -0.2170 -0.2580  0.1249
  156SAPE   O1317325   2.393   3.538   6.174 -0.1752  0.1928  0.4019
  156SAPE   O1417326   2.159   3.494   6.241 -0.0409  0.1463 -0.4598
  156SAPE   O1217327   2.326   3.319   6.266 -0.5040 -0.3236 -0.3285
  156SAPE   O1117328   2.342   3.503   6.425  1.0063 -0.4337  0.4065
  156SAPE    C117329   2.311   3.636   6.485 -0.2828 -0.0341 -0.1515
  156SAPE    HA17330   2.407   3.692   6.476 -0.2106 -0.4010 -2.0497
  156SAPE    HB17331   2.228   3.695   6.440 -0.6549  1.2064  2.0162
  156SAPE    C217332   2.286   3.622   6.640  0.0567  0.3434 -0.7040
  156SAPE    HS17333   2.265   3.724   6.681  0.1965 -0.0935  0.4908
  156SAPE   O2117334   2.401   3.560   6.702 -0.3397 -0.0814  0.0162
  156SAPE   C2117335   2.486   3.648   6.764 -0.6172  0.4130 -0.7443
  156SAPE   O2217336   2.481   3.765   6.747  0.3463 -0.0959  0.2980
  156SAPE   C2217337   2.577   3.575   6.862 -0.1625  1.0445 -0.2171
  156SAPE   H2R17338   2.651   3.521   6.800 -0.0117  1.4450 -0.3935
  156SAPE   H2S17339   2.626   3.660   6.915  0.0349  1.3599 -0.8939
  156SAPE    C317340   2.164   3.538   6.671  0.5805 -0.1832 -0.2845
  156SAPE    HX17341   2.187   3.436   6.631  1.6226  0.1543 -0.5801
  156SAPE    HY17342   2.083   3.583   6.611  1.1541 -0.9324 -1.6683
  156SAPE   O3117343   2.143   3.542   6.812 -0.1543 -0.0411  0.0183
  156SAPE   C3117344   2.052   3.461   6.856 -0.2025  0.2820  0.0226
  156SAPE   O3217345   1.973   3.398   6.781 -0.4588  0.2713 -0.2045
  156SAPE   C3217346   2.049   3.467   7.005 -0.0274  0.1873  0.0374
  156SAPE   H2X17347   2.153   3.481   7.042 -0.0697 -0.6544  0.5049
  156SAPE   H2Y17348   2.028   3.362   7.034  0.1240 -0.2109 -1.2660
  156SAPE   C2317349   2.501   3.493   6.969 -0.2265  0.0621 -0.5377
  156SAPE   H3R17350   2.559   3.399   6.973  1.4216  1.0238  2.7374
  156SAPE   H3S17351   2.398   3.475   6.934  0.0486 -2.7105 -0.0895
  156SAPE   C2417352   2.501   3.557   7.113 -0.3135  0.2396 -0.4456
  156SAPE   H4R17353   2.460   3.661   7.114 -0.1714  0.3028  1.3801
  156SAPE   H4S17354   2.596   3.559   7.169 -0.0407 -2.7853 -0.6397
  156SAPE   C2517355   2.403   3.467   7.180  0.1506  0.3242  0.6029
  156SAPE   H5R17356   2.372   3.371   7.134  0.9024 -0.2575  1.2851
  156SAPE   C2617357   2.349   3.487   7.301 -0.3149 -0.8794  0.9857
  156SAPE   H6R17358   2.277   3.424   7.355 -1.3983  0.6243  1.3651
  156SAPE   C2717359   2.388   3.608   7.392  0.1232  1.1218  0.8616
  156SAPE   H7R17360   2.296   3.664   7.421  1.5127  3.8026  0.3592
  156SAPE   H7S17361   2.452   3.678   7.335  0.9518 -2.0395 -2.5163
  156SAPE   C2817362   2.476   3.553   7.504  0.2096 -0.8758 -0.6271
  156SAPE   H8R17363   2.584   3.559   7.485  0.4078  0.7771  0.7136
  156SAPE   C2917364   2.443   3.510   7.626  0.1373  0.4247  0.9548
  156SAPE   H9R17365   2.530   3.489   7.690 -0.3980 -0.4645  1.4069
  156SAPE  C21017366   2.300   3.485   7.668 -0.0366 -0.2911 -0.4511
  156SAPE  H10R17367   2.265   3.391   7.620 -0.0035  0.6899 -2.4918
  156SAPE  H10S17368   2.240   3.576   7.644  0.1933 -0.2208 -0.7733
  156SAPE  C21117369   2.299   3.450   7.810  0.4428 -0.2932 -0.1920
  156SAPE  H11R17370   2.343   3.353   7.837  1.2563 -0.4281 -1.8963
  156SAPE  C21217371   2.225   3.513   7.912 -0.5122 -0.0334 -0.4300
  156SAPE  H12R17372   2.223   3.475   8.015 -2.2359  0.5974 -0.1985
  156SAPE  C21317373   2.150   3.640   7.895  0.3294  0.6552  0.1352
  156SAPE  H13R17374   2.072   3.624   7.818  0.5481  1.0540 -0.1696
  156SAPE  H13S17375   2.210   3.721   7.849 -1.6490  1.1092 -1.7754
  156SAPE  C21417376   2.089   3.698   8.021  0.0389  0.4291  0.4645
  156SAPE  H14R17377   1.979   3.701   8.032 -0.0488  2.0534 -0.5570
  156SAPE  C21517378   2.154   3.762   8.117 -0.7458  0.0827  0.7027
  156SAPE  H15R17379   2.097   3.819   8.192  0.6701  0.6949  1.3433
  156SAPE  C21617380   2.303   3.783   8.132 -0.5966 -0.8931 -0.0312
  156SAPE  H16R17381   2.317   3.866   8.204  0.4235 -1.9195  0.9783
  156SAPE  H16S17382   2.361   3.819   8.044  0.2335  2.2526  1.6550
  156SAPE  C21717383   2.376   3.656   8.187 -0.5425  0.1989 -0.1260
  156SAPE  H17R17384   2.391   3.586   8.102  1.1618 -0.8099  0.9449
  156SAPE  H17S17385   2.318   3.597   8.261 -0.8754 -0.4111 -0.8512
  156SAPE  C21817386   2.517   3.685   8.235 -0.6436  0.5136  0.7778
  156SAPE  H18R17387   2.505   3.739   8.331  0.0994 -1.0213  1.7822
  156SAPE  H18S17388   2.571   3.742   8.156 -0.2490 -1.3502 -0.3858
  156SAPE  C21917389   2.600   3.558   8.258 -0.0003 -0.2760 -0.3788
  156SAPE  H19R17390   2.702   3.582   8.295  1.5912 -3.5762 -2.2043
  156SAPE  H19S17391   2.598   3.523   8.153 -0.6019 -0.9405 -0.1480
  156SAPE  C22017392   2.547   3.446   8.347  0.5901 -0.4914  0.4115
  156SAPE  H20R17393   2.529   3.483   8.450 -1.5306  0.0340 -0.0956
  156SAPE  H20S17394   2.604   3.351   8.352 -0.8672 -1.3398  2.1955
  156SAPE  H20T17395   2.438   3.430   8.329  0.5740  0.9852 -1.0499
  156SAPE   C3317396   1.952   3.566   7.069 -0.3546  0.0204  0.3327
  156SAPE   H3X17397   1.849   3.543   7.035 -0.3183 -0.4832  0.5424
  156SAPE   H3Y17398   1.975   3.669   7.035 -0.5279 -0.1790 -0.4213
  156SAPE   C3417399   1.945   3.560   7.222  0.2625 -0.3450  0.3056
  156SAPE   H4X17400   1.882   3.645   7.255  1.3698  1.2963 -1.6454
  156SAPE   H4Y17401   2.047   3.573   7.264  1.4411 -1.3693 -2.0474
  156SAPE   C3517402   1.883   3.432   7.277 -1.0131  0.0382  0.6566
  156SAPE   H5X17403   1.963   3.358   7.258  1.0891  2.4683 -0.4977
  156SAPE   H5Y17404   1.803   3.409   7.204 -0.2349  0.1557 -0.2450
  156SAPE   C3617405   1.841   3.425   7.417  0.0764 -0.4176  0.0242
  156SAPE   H6X17406   1.788   3.330   7.442 -0.4405  0.2839  1.7245
  156SAPE   H6Y17407   1.759   3.498   7.435  1.2174  1.3111 -1.4699
  156SAPE   C3717408   1.963   3.449   7.504 -1.1492 -0.0414 -0.4478
  156SAPE   H7X17409   1.998   3.554   7.495 -3.2631  0.9068  1.4788
  156SAPE   H7Y17410   2.054   3.394   7.471  0.0156  1.0923  0.7132
  156SAPE   C3817411   1.947   3.420   7.655 -0.1868 -0.0011  0.0756
  156SAPE   H8X17412   2.030   3.467   7.712 -1.3299  2.8794 -0.4598
  156SAPE   H8Y17413   1.960   3.311   7.669  0.4229 -0.0061 -0.4739
  156SAPE   C3917414   1.811   3.487   7.715 -0.8271 -0.0760 -0.1565
  156SAPE   H9X17415   1.724   3.445   7.659 -0.8191 -1.1713  0.6220
  156SAPE   H9Y17416   1.826   3.596   7.698  1.4376  0.0075  1.8704
  156SAPE  C31017417   1.807   3.449   7.861 -0.0277 -0.9110 -0.4381
  156SAPE  H10X17418   1.905   3.483   7.899 -1.2138 -0.3614  2.3402
  156SAPE  H10Y17419   1.811   3.341   7.890  0.6604 -0.2304  2.1949
  156SAPE  C31117420   1.690   3.520   7.927 -0.7574  0.0466 -0.0403
  156SAPE  H11X17421   1.594   3.494   7.877 -1.5100  0.8858  0.9280
  156SAPE  H11Y17422   1.708   3.629   7.913 -1.1207  0.1456  0.2504
  156SAPE  C31217423   1.670   3.499   8.073 -0.3893 -0.4390  0.3541
  156SAPE  H12X17424   1.672   3.391   8.098  0.4967 -0.9675 -1.7892
  156SAPE  H12Y17425   1.575   3.546   8.105 -0.0204  0.7648 -0.2477
  156SAPE  C31317426   1.766   3.576   8.164  0.5442  0.0496  0.3311
  156SAPE  H13X17427   1.770   3.682   8.132 -1.3161 -0.6870 -2.7950
  156SAPE  H13Y17428   1.869   3.537   8.160  0.7175  0.2583  2.0011
  156SAPE  C31417429   1.720   3.590   8.311 -0.2045  0.4945 -0.2095
  156SAPE  H14X17430   1.725   3.497   8.373 -2.5208 -0.2287 -0.9904
  156SAPE  H14Y17431   1.616   3.627   8.323 -0.4857 -0.3950  0.2434
  156SAPE  C31517432   1.795   3.692   8.384  0.1096 -0.0029 -0.4256
  156SAPE  H15X17433   1.759   3.796   8.367  0.8687 -0.0142 -2.4180
  156SAPE  H15Y17434   1.901   3.702   8.350  0.2186  0.9286  0.1241
  156SAPE  C31617435   1.809   3.661   8.541  0.2802 -0.2318  0.6756
  156SAPE  H16X17436   1.879   3.575   8.545  1.5374  0.7125 -0.0246
  156SAPE  H16Y17437   1.710   3.629   8.578 -0.4102  0.9657 -0.0382
  156SAPE  C31717438   1.867   3.785   8.621 -0.3120  0.1764  0.4624
  156SAPE  H17X17439   1.799   3.872   8.620  0.1702  0.5804 -1.2141
  156SAPE  H17Y17440   1.963   3.813   8.573 -1.0731 -0.8013 -1.7886
  156SAPE  C31817441   1.888   3.751   8.772  0.4978 -0.3062  0.2658
  156SAPE  H18X17442   1.814   3.801   8.838 -2.0488 -2.3049 -0.8839
  156SAPE  H18Y17443   1.993   3.778   8.795  0.0914  1.4871  0.1799
  156SAPE  H18Z17444   1.876   3.643   8.795 -1.0967 -0.9160 -2.7333
  157SAPE     N17445   3.251   5.766   6.239 -0.2881 -0.3054 -0.0965
  157SAPE   HN117446   3.262   5.862   6.279 -2.8311 -0.7505  1.9713
  157SAPE   HN217447   3.152   5.750   6.212  0.2425 -1.0344 -1.7074
  157SAPE   HN317448   3.280   5.698   6.312  1.6301  0.8171  0.2554
  157SAPE   C1217449   3.336   5.754   6.113  0.5645 -0.2306 -0.2926
  157SAPE  H12A17450   3.284   5.811   6.033 -0.0441 -1.4933 -0.8230
  157SAPE  H12B17451   3.336   5.649   6.078 -1.7065 -0.8169  1.2503
  157SAPE   C1117452   3.481   5.798   6.136  0.9716  0.2798  0.8074
  157SAPE  H11A17453   3.474   5.909   6.147 -1.2066  0.5646 -2.1028
  157SAPE  H11B17454   3.540   5.775   6.044 -1.1388  0.9446 -0.8037
  157SAPE     P17455   3.686   5.797   6.289  0.3904 -0.1979 -0.2595
  157SAPE   O1317456   3.782   5.694   6.247  0.0037  0.1468 -0.4789
  157SAPE   O1417457   3.708   5.928   6.226 -0.3139 -0.4044  0.3516
  157SAPE   O1217458   3.541   5.745   6.248 -0.6286 -0.2554 -0.0631
  157SAPE   O1117459   3.670   5.800   6.446 -0.0645 -0.4968 -0.2225
  157SAPE    C117460   3.617   5.674   6.502  0.3265 -0.6106 -0.4060
  157SAPE    HA17461   3.511   5.686   6.535 -0.2646 -3.2946 -1.0678
  157SAPE    HB17462   3.623   5.589   6.431 -0.6463 -1.6658  0.7218
  157SAPE    C217463   3.692   5.630   6.637  0.3797 -0.1318  0.8886
  157SAPE    HS17464   3.609   5.586   6.697 -3.3086  0.8256 -3.0188
  157SAPE   O2117465   3.761   5.749   6.693  0.8972 -0.5315  0.3578
  157SAPE   C2117466   3.676   5.835   6.745  1.1063  0.0792 -0.1387
  157SAPE   O2217467   3.553   5.826   6.754 -0.1987  0.3065  0.3676
  157SAPE   C2217468   3.756   5.959   6.796  0.2336 -1.1451  0.4006
  157SAPE   H2R17469   3.769   6.021   6.705 -0.2627 -2.0231 -0.2790
  157SAPE   H2S17470   3.691   6.021   6.860  1.1646  0.6410 -0.3198
  157SAPE    C317471   3.802   5.522   6.625  0.7999  0.4085 -1.0398
  157SAPE    HX17472   3.875   5.553   6.547  2.6721  0.8667  0.8025
  157SAPE    HY17473   3.745   5.432   6.593  0.6641 -0.4467  1.4493
  157SAPE   O3117474   3.881   5.494   6.748  0.1300 -0.3689 -0.9729
  157SAPE   C3117475   3.805   5.425   6.833  0.0958 -0.3560  0.8732
  157SAPE   O3217476   3.694   5.374   6.824  0.7171 -0.3442  0.6663
  157SAPE   C3217477   3.873   5.428   6.970  0.5646 -0.2233  0.5352
  157SAPE   H2X17478   3.956   5.502   6.965  0.1259  0.1899 -2.1486
  157SAPE   H2Y17479   3.926   5.331   6.987 -2.2358 -1.9053  0.3862
  157SAPE   C2317480   3.895   5.931   6.863  0.4327 -0.1879 -0.3079
  157SAPE   H3R17481   3.961   6.017   6.884  0.6861 -0.3141 -0.5773
  157SAPE   H3S17482   3.944   5.862   6.791 -1.7937  1.4656 -3.6805
  157SAPE   C2417483   3.884   5.849   6.994  0.0300  0.1279  0.2713
  157SAPE   H4R17484   3.986   5.808   7.009  1.2816  1.9257 -2.4964
  157SAPE   H4S17485   3.823   5.757   6.980 -1.0213  0.9233 -0.4737
  157SAPE   C2517486   3.829   5.939   7.103  0.4252  0.1716  0.2893
  157SAPE   H5R17487   3.735   5.991   7.079 -0.8930 -1.7425  1.0518
  157SAPE   C2617488   3.877   5.942   7.226  0.1463 -0.1589 -0.4623
  157SAPE   H6R17489   3.819   6.001   7.298  1.9441  1.1426 -0.0253
  157SAPE   C2717490   3.996   5.869   7.277  0.0331  1.0394 -0.2251
  157SAPE   H7R17491   4.072   5.851   7.198  0.2085  0.6528  0.0295
  157SAPE   H7S17492   3.952   5.769   7.296  1.6263  0.2290 -0.6484
  157SAPE   C2817493   4.057   5.928   7.398  0.7916 -0.1050  0.0858
  157SAPE   H8R17494   4.104   6.023   7.370 -2.8810  1.7997 -0.3338
  157SAPE   C2917495   4.049   5.885   7.526 -1.0799 -0.4584 -0.1942
  157SAPE   H9R17496   4.105   5.936   7.606 -0.1184 -0.8414 -0.6018
  157SAPE  C21017497   3.977   5.756   7.563  0.2116  0.1187 -0.2094
  157SAPE  H10R17498   3.973   5.677   7.485 -0.3678  0.1329 -0.2000
  157SAPE  H10S17499   3.870   5.773   7.589  0.5234  2.7428 -0.3398
  157SAPE  C21117500   4.057   5.700   7.684 -0.3323 -0.1086 -0.2616
  157SAPE  H11R17501   4.136   5.630   7.654  1.4865  2.1992 -1.2210
  157SAPE  C21217502   4.045   5.741   7.809 -0.0851 -0.6435 -0.3848
  157SAPE  H12R17503   4.105   5.700   7.892 -0.2405  0.7356  0.4506
  157SAPE  C21317504   3.949   5.853   7.852  0.2048 -0.4317 -0.8341
  157SAPE  H13R17505   3.886   5.896   7.771 -0.8844  2.0794  1.2255
  157SAPE  H13S17506   4.004   5.941   7.891 -1.4851  0.0055  0.6863
  157SAPE  C21417507   3.843   5.807   7.954 -0.5502  0.3966  0.7741
  157SAPE  H14R17508   3.810   5.702   7.952 -0.3689  0.3511 -0.6326
  157SAPE  C21517509   3.815   5.874   8.064  0.1571 -0.4229 -0.1427
  157SAPE  H15R17510   3.751   5.826   8.139 -0.5371 -1.6288 -1.4579
  157SAPE  C21617511   3.870   6.013   8.097 -0.0848 -0.4130 -0.6988
  157SAPE  H16R17512   3.807   6.091   8.050 -0.2138  0.6761  1.1602
  157SAPE  H16S17513   3.973   6.043   8.066  0.1608  0.9689  1.2134
  157SAPE  C21717514   3.860   6.031   8.250  1.1294  0.4763  0.0052
  157SAPE  H17R17515   3.903   5.942   8.299 -0.2580 -0.9216 -1.1990
  157SAPE  H17S17516   3.758   6.021   8.291  1.0322  0.9344 -0.1209
  157SAPE  C21817517   3.936   6.165   8.296 -0.6240  0.7661  0.4163
  157SAPE  H18R17518   3.896   6.244   8.228  0.5322  0.0044 -1.2113
  157SAPE  H18S17519   4.043   6.155   8.270 -1.2705  0.4700 -2.5863
  157SAPE  C21917520   3.900   6.183   8.447 -0.1000 -0.3196  0.5912
  157SAPE  H19R17521   3.922   6.089   8.503 -0.5224  0.6573  2.4818
  157SAPE  H19S17522   3.790   6.189   8.457 -0.2883 -1.9352 -0.1404
  157SAPE  C22017523   3.966   6.303   8.520 -0.1006  0.0355  0.2830
  157SAPE  H20R17524   3.929   6.296   8.625 -2.4005  0.9970 -0.3873
  157SAPE  H20S17525   3.940   6.402   8.478 -1.1390 -1.0319 -1.7638
  157SAPE  H20T17526   4.074   6.281   8.516 -0.6179 -3.0023  0.4537
  157SAPE   C3317527   3.774   5.471   7.084  0.0729 -0.1276 -0.6316
  157SAPE   H3X17528   3.684   5.406   7.092 -0.0935  0.3178  1.7116
  157SAPE   H3Y17529   3.743   5.578   7.086  0.9695  0.1273  1.6977
  157SAPE   C3417530   3.849   5.458   7.219  0.3115 -0.2422 -0.1828
  157SAPE   H4X17531   3.937   5.526   7.221 -0.6324  1.0183 -0.3329
  157SAPE   H4Y17532   3.891   5.360   7.248  1.7672  1.1249  2.7318
  157SAPE   C3517533   3.748   5.484   7.335 -0.2409  0.4436  0.1767
  157SAPE   H5X17534   3.651   5.436   7.311 -0.9174  1.2673  1.2162
  157SAPE   H5Y17535   3.725   5.592   7.339 -0.5128  0.3499  1.3019
  157SAPE   C3617536   3.814   5.442   7.468  0.2855 -0.5465  0.2415
  157SAPE   H6X17537   3.910   5.496   7.484 -0.0346  0.4537 -1.0386
  157SAPE   H6Y17538   3.835   5.333   7.469 -0.9761 -0.8033  0.8525
  157SAPE   C3717539   3.728   5.472   7.603  1.0010  0.8307 -0.3986
  157SAPE   H7X17540   3.623   5.445   7.580  1.3486 -1.1403  0.1299
  157SAPE   H7Y17541   3.729   5.578   7.635 -1.3227  0.7739  0.0431
  157SAPE   C3817542   3.776   5.383   7.722 -0.3707 -0.5987  0.2910
  157SAPE   H8X17543   3.878   5.421   7.746 -1.8648  1.8411  3.4572
  157SAPE   H8Y17544   3.788   5.274   7.707  2.0405 -0.2876 -0.5815
  157SAPE   C3917545   3.684   5.405   7.843  0.0501  0.1524 -0.8636
  157SAPE   H9X17546   3.580   5.389   7.806 -0.1153  3.7686 -2.4160
  157SAPE   H9Y17547   3.696   5.509   7.881  0.8203 -0.9048  2.0068
  157SAPE  C31017548   3.713   5.308   7.956 -0.1404  0.5202  0.2774
  157SAPE  H10X17549   3.687   5.208   7.915  1.9763 -0.3571  0.8998
  157SAPE  H10Y17550   3.637   5.329   8.034 -2.0921 -0.2195 -1.3423
  157SAPE  C31117551   3.855   5.313   8.014  0.0626 -0.3623  0.1631
  157SAPE  H11X17552   3.926   5.295   7.930 -0.4571  0.9872 -0.5965
  157SAPE  H11Y17553   3.851   5.239   8.097 -3.1552  0.2917  0.7445
  157SAPE  C31217554   3.878   5.449   8.082  0.3698  0.0406  0.9521
  157SAPE  H12X17555   3.788   5.462   8.145 -2.6115 -0.4586 -2.8118
  157SAPE  H12Y17556   3.895   5.525   8.003  2.1493  0.1602  1.4059
  157SAPE  C31317557   4.005   5.440   8.179  0.4987 -0.3608 -0.6405
  157SAPE  H13X17558   4.095   5.399   8.128  1.1821 -0.8045  0.8404
  157SAPE  H13Y17559   3.980   5.375   8.266 -1.4114 -2.1330 -2.3739
  157SAPE  C31417560   4.026   5.578   8.247 -0.1300 -0.0081  0.5518
  157SAPE  H14X17561   3.924   5.613   8.276 -0.2297  1.0842 -1.0035
  157SAPE  H14Y17562   4.053   5.647   8.164 -1.1727 -1.6491 -1.2260
  157SAPE  C31517563   4.119   5.573   8.374 -0.1492  0.3017  0.6675
  157SAPE  H15X17564   4.096   5.486   8.440 -1.1079  0.4244  0.5152
  157SAPE  H15Y17565   4.097   5.667   8.428  0.4617  1.1521 -0.5253
  157SAPE  C31617566   4.270   5.556   8.342  0.5191 -0.0888  0.0148
  157SAPE  H16X17567   4.297   5.516   8.242  2.5928 -1.2836  0.9990
  157SAPE  H16Y17568   4.312   5.481   8.413  2.0785 -0.3195 -1.1045
  157SAPE  C31717569   4.360   5.679   8.384  0.2792  0.2204 -0.0855
  157SAPE  H17X17570   4.344   5.710   8.490 -1.7771 -0.4781 -0.1550
  157SAPE  H17Y17571   4.330   5.759   8.313  3.9344 -0.9650 -3.3386
  157SAPE  C31817572   4.509   5.652   8.360 -0.0014  0.7785  0.3385
  157SAPE  H18X17573   4.523   5.648   8.250 -0.0713 -2.8470  0.3299
  157SAPE  H18Y17574   4.528   5.546   8.389 -0.6242 -0.5236 -3.4057
  157SAPE  H18Z17575   4.570   5.735   8.402 -2.2948  1.0352  3.4618
  158SAPE     N17576   2.736   2.663   5.946 -0.3830 -0.0706  0.6767
  158SAPE   HN117577   2.698   2.601   6.020 -0.7407  0.2618  0.7746
  158SAPE   HN217578   2.789   2.733   6.001  1.1195 -0.2197 -0.5133
  158SAPE   HN317579   2.661   2.701   5.884  1.1946  0.0205 -1.2967
  158SAPE   C1217580   2.834   2.590   5.853 -0.0734  0.4509 -0.1391
  158SAPE  H12A17581   2.869   2.662   5.775 -0.5165  0.9139  0.0761
  158SAPE  H12B17582   2.786   2.499   5.811  0.6459 -1.4521  2.8691
  158SAPE   C1117583   2.948   2.558   5.941 -0.5515  0.2002 -0.8325
  158SAPE  H11A17584   3.017   2.516   5.865 -1.9825 -1.1116 -1.4617
  158SAPE  H11B17585   2.937   2.490   6.028  0.4564  2.2030  0.9671
  158SAPE     P17586   3.160   2.686   6.053 -0.0128 -0.1248 -0.1589
  158SAPE   O1317587   3.252   2.631   5.954  0.8385  0.3213  1.2301
  158SAPE   O1417588   3.192   2.824   6.107  0.2772  0.8488  0.4402
  158SAPE   O1217589   3.009   2.680   5.993 -0.3766  0.3864  0.2874
  158SAPE   O1117590   3.140   2.587   6.179  0.3714 -0.3919 -0.1081
  158SAPE    C117591   3.058   2.632   6.290  0.0488 -0.0771 -0.1682
  158SAPE    HA17592   3.109   2.703   6.358 -0.4832 -2.2523  2.7095
  158SAPE    HB17593   2.970   2.685   6.248  0.3561  1.7759  1.3997
  158SAPE    C217594   3.009   2.512   6.373 -0.1264 -0.0525  0.2963
  158SAPE    HS17595   2.959   2.448   6.298 -2.3317  0.2044  1.4718
  158SAPE   O2117596   2.925   2.563   6.475 -0.4738 -0.0856  0.6366
  158SAPE   C2117597   2.849   2.465   6.524  0.2132  0.2262  0.8437
  158SAPE   O2217598   2.848   2.346   6.483 -0.1826 -0.4201 -0.3734
  158SAPE   C2217599   2.747   2.516   6.614  0.0123 -0.1297 -0.3532
  158SAPE   H2R17600   2.674   2.583   6.564  0.2091  1.8416  1.8636
  158SAPE   H2S17601   2.689   2.426   6.644  0.1439 -0.6557 -1.5856
  158SAPE    C317602   3.130   2.435   6.433  0.3772 -0.2280 -0.7516
  158SAPE    HX17603   3.185   2.400   6.343 -0.4000 -0.0366 -1.3129
  158SAPE    HY17604   3.086   2.344   6.480  2.4736 -0.8398  0.1424
  158SAPE   O3117605   3.210   2.521   6.519 -0.1653  0.3435  0.3969
  158SAPE   C3117606   3.176   2.519   6.644 -0.2373 -1.2799  0.2552
  158SAPE   O3217607   3.112   2.430   6.701 -0.8251  0.1985  0.5908
  158SAPE   C3217608   3.237   2.643   6.708  0.8412 -0.4642 -0.4953
  158SAPE   H2X17609   3.196   2.738   6.668  0.2217 -0.1546  0.8207
  158SAPE   H2Y17610   3.348   2.642   6.698  0.9016 -0.0703  0.0934
  158SAPE   C2317611   2.799   2.610   6.727  0.1732 -0.1931 -0.3713
  158SAPE   H3R17612   2.805   2.713   6.684 -1.1104 -0.4438 -1.1873
  158SAPE   H3S17613   2.899   2.576   6.762 -0.0128 -2.1036 -1.5760
  158SAPE   C2417614   2.700   2.624   6.845 -0.6720  0.2880 -0.4475
  158SAPE   H4R17615   2.604   2.627   6.790 -1.8038 -1.1570  1.3292
  158SAPE   H4S17616   2.716   2.723   6.892 -2.4459 -0.0432  0.9591
  158SAPE   C2517617   2.694   2.511   6.938  0.4518 -0.0246 -0.5158
  158SAPE   H5R17618   2.681   2.418   6.881 -0.9582  1.6320 -3.1008
  158SAPE   C2617619   2.719   2.514   7.075  0.0826  0.0048  0.2662
  158SAPE   H6R17620   2.714   2.421   7.133 -0.3726  0.0288  0.2754
  158SAPE   C2717621   2.745   2.633   7.160  0.7247 -0.3830 -0.6002
  158SAPE   H7R17622   2.662   2.637   7.233  1.7149 -0.0075  0.5262
  158SAPE   H7S17623   2.718   2.728   7.108 -0.3752 -1.2299 -1.6533
  158SAPE   C2817624   2.874   2.646   7.227 -0.3385 -0.8586  0.8714
  158SAPE   H8R17625   2.960   2.638   7.159 -3.0177  1.1825 -3.1366
  158SAPE   C2917626   2.901   2.644   7.360 -0.2560  0.5884 -0.0098
  158SAPE   H9R17627   3.006   2.631   7.390 -0.3569  1.4169  0.7337
  158SAPE  C21017628   2.802   2.630   7.473 -0.4018 -0.1541 -0.1765
  158SAPE  H10R17629   2.698   2.604   7.445 -0.8124  1.2332 -0.0471
  158SAPE  H10S17630   2.786   2.736   7.504  0.3735 -0.6768  2.2592
  158SAPE  C21117631   2.839   2.547   7.595 -0.2261 -0.2259  0.2436
  158SAPE  H11R17632   2.800   2.444   7.591 -2.2547  0.5179 -1.4436
  158SAPE  C21217633   2.906   2.578   7.711 -0.8188  0.8285  0.1908
  158SAPE  H12R17634   2.899   2.506   7.793 -0.6051  3.5532  2.7863
  158SAPE  C21317635   2.963   2.713   7.742  0.2757 -0.6949 -1.0484
  158SAPE  H13R17636   2.871   2.776   7.751 -0.7172 -1.8092 -2.8565
  158SAPE  H13S17637   3.025   2.765   7.666 -1.7674  0.8327 -1.7545
  158SAPE  C21417638   3.052   2.706   7.867 -0.1026 -0.1699 -0.3591
  158SAPE  H14R17639   3.132   2.633   7.844 -0.4754 -0.5943 -0.3316
  158SAPE  C21517640   3.047   2.770   7.987 -0.2525  0.2143  1.1966
  158SAPE  H15R17641   3.126   2.746   8.060 -0.4936  0.4287  1.5294
  158SAPE  C21617642   2.942   2.868   8.032 -0.6789 -0.0192  0.5436
  158SAPE  H16R17643   2.861   2.867   7.955 -0.3906 -5.5914 -0.0998
  158SAPE  H16S17644   2.977   2.974   8.039 -1.5010  0.3127 -0.1664
  158SAPE  C21717645   2.873   2.826   8.161 -0.5515 -0.3729  0.0914
  158SAPE  H17R17646   2.802   2.743   8.144  0.3261 -0.9557 -0.8304
  158SAPE  H17S17647   2.812   2.912   8.198  0.3334  0.2801  0.0702
  158SAPE  C21817648   2.968   2.791   8.274 -0.6593 -0.2125 -0.1366
  158SAPE  H18R17649   3.072   2.819   8.247  0.2541 -2.0832  1.1810
  158SAPE  H18S17650   2.967   2.680   8.285  0.3519 -0.0480  2.5560
  158SAPE  C21917651   2.924   2.859   8.413  0.0398  0.9430  0.3111
  158SAPE  H19R17652   2.935   2.969   8.408  0.3938  0.8897 -0.1070
  158SAPE  H19S17653   2.986   2.815   8.494  1.3902 -2.8404 -2.4646
  158SAPE  C22017654   2.774   2.826   8.435  0.5136  0.0010 -0.7665
  158SAPE  H20R17655   2.736   2.878   8.526 -0.8474  0.3274 -1.4956
  158SAPE  H20S17656   2.780   2.719   8.463  5.1000  0.4947  0.9951
  158SAPE  H20T17657   2.706   2.846   8.349  1.7177  0.0230 -1.7456
  158SAPE   C3317658   3.204   2.640   6.860 -0.4700  0.9746 -0.0541
  158SAPE   H3X17659   3.243   2.542   6.893  0.2988  1.1981 -0.2713
  158SAPE   H3Y17660   3.098   2.648   6.894 -0.3903 -0.0075  0.4533
  158SAPE   C3417661   3.290   2.737   6.932  0.5866 -0.3859 -0.8548
  158SAPE   H4X17662   3.296   2.833   6.877  0.4745  0.1962  0.1367
  158SAPE   H4Y17663   3.390   2.690   6.940 -0.0720 -2.0372 -1.7471
  158SAPE   C3517664   3.230   2.765   7.066 -0.1652  0.5228 -0.4630
  158SAPE   H5X17665   3.192   2.670   7.111 -3.1454  2.4304  1.4045
  158SAPE   H5Y17666   3.138   2.826   7.056 -0.5505  0.2481  1.0917
  158SAPE   C3617667   3.331   2.827   7.161 -0.4838 -0.0088 -0.6726
  158SAPE   H6X17668   3.374   2.917   7.113 -0.3434  0.8494  0.9696
  158SAPE   H6Y17669   3.411   2.751   7.173 -1.7139 -1.3412 -0.6019
  158SAPE   C3717670   3.271   2.844   7.299  0.0225 -0.4795 -0.6527
  158SAPE   H7X17671   3.182   2.910   7.292 -0.5502 -1.3051 -1.2601
  158SAPE   H7Y17672   3.244   2.744   7.338  1.2351 -0.0882  1.3292
  158SAPE   C3817673   3.360   2.901   7.410  0.0833 -0.7015  0.5850
  158SAPE   H8X17674   3.352   3.010   7.389 -4.6731 -0.8365  0.6258
  158SAPE   H8Y17675   3.462   2.857   7.411 -0.2999 -1.6429 -0.3101
  158SAPE   C3917676   3.303   2.891   7.551 -0.5160  0.2356  0.1839
  158SAPE   H9X17677   3.280   2.784   7.571 -1.0259  0.1968 -0.5541
  158SAPE   H9Y17678   3.204   2.940   7.553 -0.3691  0.5353  0.2367
  158SAPE  C31017679   3.398   2.952   7.652  0.3768  0.6139 -0.4166
  158SAPE  H10X17680   3.416   3.056   7.616  4.2224  0.0039 -0.6902
  158SAPE  H10Y17681   3.499   2.906   7.658 -1.1202 -2.7961  1.1376
  158SAPE  C31117682   3.338   2.947   7.800  0.0747  0.1593 -0.0557
  158SAPE  H11X17683   3.329   2.837   7.808  1.5634  0.0245  0.1214
  158SAPE  H11Y17684   3.231   2.975   7.798 -0.0864 -0.4762 -0.8733
  158SAPE  C31217685   3.426   3.017   7.900  0.2198 -0.3845 -0.0611
  158SAPE  H12X17686   3.424   3.126   7.883 -0.3031 -0.5832 -1.4457
  158SAPE  H12Y17687   3.533   2.995   7.879  0.7330  2.0824 -0.3052
  158SAPE  C31317688   3.385   2.991   8.050  0.2711  0.6925  0.4234
  158SAPE  H13X17689   3.407   2.885   8.077 -3.8582 -0.1429  1.2121
  158SAPE  H13Y17690   3.276   2.994   8.070  0.4475 -1.0708  1.9511
  158SAPE  C31417691   3.448   3.080   8.157 -0.1905  0.1711  0.5512
  158SAPE  H14X17692   3.426   3.055   8.263 -0.2767  1.3325  0.8306
  158SAPE  H14Y17693   3.404   3.178   8.127 -1.0040 -0.3812 -0.1248
  158SAPE  C31517694   3.601   3.101   8.147 -0.0828 -0.1045  0.6778
  158SAPE  H15X17695   3.624   3.078   8.041 -1.5512 -0.3855  0.3963
  158SAPE  H15Y17696   3.650   3.026   8.212  0.5747 -0.1286  0.1664
  158SAPE  C31617697   3.650   3.242   8.185 -0.1322 -0.1761 -0.5467
  158SAPE  H16X17698   3.586   3.287   8.264  0.5644  1.1023 -0.6865
  158SAPE  H16Y17699   3.639   3.304   8.094 -4.1169 -0.4213 -0.4096
  158SAPE  C31717700   3.799   3.247   8.228 -0.0227  0.0040  0.4214
  158SAPE  H17X17701   3.858   3.161   8.188 -1.6759 -2.0808  2.1544
  158SAPE  H17Y17702   3.798   3.233   8.339  1.9099 -0.3602  0.4298
  158SAPE  C31817703   3.874   3.376   8.195  0.1216 -0.0468  0.0778
  158SAPE  H18X17704   3.824   3.465   8.239 -0.3723 -1.2970  2.2225
  158SAPE  H18Y17705   3.881   3.397   8.086  3.0617  0.6092  0.3044
  158SAPE  H18Z17706   3.975   3.376   8.242 -0.3445 -3.5917  1.3728
  159SAPE     N17707   6.440   4.648   6.215  0.3805 -0.1167 -0.4501
  159SAPE   HN117708   6.364   4.669   6.282 -0.0110 -1.5086 -0.4322
  159SAPE   HN217709   6.521   4.714   6.223 -0.5763  1.2207 -1.3625
  159SAPE   HN317710   6.407   4.656   6.117 -2.0409  2.6918  0.4468
  159SAPE   C1217711   6.501   4.511   6.247  0.0765 -0.1609 -0.4812
  159SAPE  H12A17712   6.544   4.528   6.348  1.7272 -0.0897 -1.1485
  159SAPE  H12B17713   6.587   4.490   6.179  0.5089 -0.6012  0.1842
  159SAPE   C1117714   6.407   4.385   6.237 -0.0835  0.2579  0.6176
  159SAPE  H11A17715   6.355   4.394   6.335  0.3333  0.9449  0.7830
  159SAPE  H11B17716   6.474   4.297   6.229 -0.9223 -0.2099 -3.6591
  159SAPE     P17717   6.174   4.417   6.121  0.4310  0.3039 -0.1808
  159SAPE   O1317718   6.140   4.541   6.191 -0.0032 -0.4724  0.1084
  159SAPE   O1417719   6.111   4.384   5.987 -0.2735 -0.4229  0.5657
  159SAPE   O1217720   6.330   4.396   6.122  0.4308 -0.0558  0.5067
  159SAPE   O1117721   6.118   4.299   6.213 -0.3007  0.7653  0.0993
  159SAPE    C117722   6.160   4.162   6.181 -0.2478 -0.8699  0.0694
  159SAPE    HA17723   6.099   4.134   6.092 -2.4333  1.7931  0.5940
  159SAPE    HB17724   6.267   4.162   6.152  0.5944  0.6238  2.8467
  159SAPE    C217725   6.148   4.058   6.295  0.1320 -0.9646  0.5506
  159SAPE    HS17726   6.165   3.957   6.253  0.4371 -0.8431  0.3778
  159SAPE   O2117727   6.020   4.063   6.363  0.2706 -0.0607 -0.1204
  159SAPE   C2117728   5.924   3.989   6.304 -0.1202 -0.7839  0.3014
  159SAPE   O2217729   5.940   3.924   6.200 -0.3714 -0.1842  0.6905
  159SAPE   C2217730   5.786   4.018   6.370  0.1532  0.2679 -0.6177
  159SAPE   H2R17731   5.724   4.087   6.308 -0.5088  0.7571  0.5691
  159SAPE   H2S17732   5.735   3.919   6.375 -1.1261  0.9637  0.6773
  159SAPE    C317733   6.263   4.086   6.409  0.4330  0.8042 -0.1272
  159SAPE    HX17734   6.360   4.082   6.354 -1.3223 -0.3829 -3.3779
  159SAPE    HY17735   6.250   3.998   6.476  2.3366  1.9422  1.9097
  159SAPE   O3117736   6.245   4.223   6.468  0.5340  0.2838 -0.3141
  159SAPE   C3117737   6.176   4.217   6.581 -0.1101  0.0815  0.5297
  159SAPE   O3217738   6.141   4.115   6.634 -0.2690  0.4154 -0.7743
  159SAPE   C3217739   6.152   4.359   6.638  0.2798  0.0428 -0.2702
  159SAPE   H2X17740   6.123   4.429   6.556  1.9302  0.8464 -0.2150
  159SAPE   H2Y17741   6.241   4.406   6.685 -2.4564  2.7428  2.6610
  159SAPE   C2317742   5.786   4.061   6.519 -0.3393  0.5923  0.2324
  159SAPE   H3R17743   5.831   4.162   6.506  0.0222  0.6568  1.8116
  159SAPE   H3S17744   5.865   3.997   6.564 -0.4124 -0.5389 -1.1657
  159SAPE   C2417745   5.654   4.064   6.588  0.3568 -0.9419 -0.7194
  159SAPE   H4R17746   5.624   3.958   6.606 -0.3139 -0.3430  2.1865
  159SAPE   H4S17747   5.582   4.105   6.514  1.8755 -1.7305 -2.7306
  159SAPE   C2517748   5.655   4.154   6.714 -0.0658  0.1722 -0.3283
  159SAPE   H5R17749   5.711   4.249   6.713 -0.7475  0.5791 -0.4688
  159SAPE   C2617750   5.583   4.124   6.826 -0.1304 -0.2108 -0.0807
  159SAPE   H6R17751   5.586   4.193   6.912  1.8086  0.1501 -0.3888
  159SAPE   C2717752   5.494   4.000   6.844 -0.3687  0.0166  0.2117
  159SAPE   H7R17753   5.558   3.926   6.896  1.3246 -0.3369 -2.1858
  159SAPE   H7S17754   5.461   3.956   6.748 -2.2691 -1.7673  1.5947
  159SAPE   C2817755   5.373   4.039   6.924  0.4016  0.0662 -0.0036
  159SAPE   H8R17756   5.311   4.119   6.881  1.9436  1.1459 -0.3000
  159SAPE   C2917757   5.342   4.007   7.048  0.2507  0.7871  0.7656
  159SAPE   H9R17758   5.251   4.046   7.096 -1.5051 -1.3753 -0.5860
  159SAPE  C21017759   5.413   3.915   7.138  0.5034  0.6989 -0.0869
  159SAPE  H10R17760   5.508   3.877   7.094  0.9383  0.1064  1.3161
  159SAPE  H10S17761   5.336   3.838   7.160 -0.1957  1.7888  1.4561
  159SAPE  C21117762   5.461   3.998   7.252 -0.5335  0.3331 -0.0709
  159SAPE  H11R17763   5.558   4.049   7.238  1.0218 -2.3560  0.2680
  159SAPE  C21217764   5.407   4.006   7.375  0.3557  0.5298  0.4693
  159SAPE  H12R17765   5.471   4.047   7.454  2.2359 -2.5184  0.6885
  159SAPE  C21317766   5.281   3.934   7.428 -0.0297 -0.0332  0.4845
  159SAPE  H13R17767   5.221   3.887   7.347  0.2523 -3.2225  1.9691
  159SAPE  H13S17768   5.231   4.016   7.482 -2.4300  0.9582 -2.8942
  159SAPE  C21417769   5.316   3.821   7.518  0.2022  0.0567 -0.0723
  159SAPE  H14R17770   5.312   3.721   7.473 -2.5163  0.1961 -0.2902
  159SAPE  C21517771   5.359   3.829   7.640 -0.2442  0.3007 -0.1049
  159SAPE  H15R17772   5.384   3.742   7.703 -0.2250  1.0846  1.0131
  159SAPE  C21617773   5.390   3.947   7.730  0.3261 -0.3155  0.4097
  159SAPE  H16R17774   5.408   4.044   7.679  0.0626 -1.1127 -1.2516
  159SAPE  H16S17775   5.482   3.923   7.788  1.1338  0.3218 -0.5833
  159SAPE  C21717776   5.270   3.970   7.826 -0.1269 -0.3472  0.4520
  159SAPE  H17R17777   5.252   3.874   7.878 -0.2585 -0.0263  1.0175
  159SAPE  H17S17778   5.177   3.993   7.770 -0.4889 -2.4708  0.1256
  159SAPE  C21817779   5.307   4.074   7.930  0.2037  0.3896 -0.2893
  159SAPE  H18R17780   5.301   4.175   7.884  2.8123  1.6230  1.7996
  159SAPE  H18S17781   5.413   4.059   7.958 -0.0397 -1.6761 -0.3154
  159SAPE  C21917782   5.210   4.073   8.050 -0.1686  0.1393 -0.3048
  159SAPE  H19R17783   5.216   3.981   8.113 -1.6189  1.4521  1.8802
  159SAPE  H19S17784   5.109   4.062   8.004 -0.6529 -3.5684  1.2467
  159SAPE  C22017785   5.216   4.190   8.147 -0.6976  0.3067  0.1481
  159SAPE  H20R17786   5.233   4.276   8.078  1.6014 -0.2283 -0.0525
  159SAPE  H20S17787   5.309   4.182   8.207 -0.3977 -0.1328 -0.3641
  159SAPE  H20T17788   5.125   4.198   8.209 -0.8034 -1.9649  0.3406
  159SAPE   C3317789   6.040   4.352   6.751 -1.0383 -0.0671  0.0690
  159SAPE   H3X17790   6.074   4.278   6.827 -2.6733 -0.9689 -0.0364
  159SAPE   H3Y17791   5.951   4.305   6.706 -0.1824 -1.5092 -0.1627
  159SAPE   C3417792   6.023   4.490   6.812  0.1513 -0.8398  0.4484
  159SAPE   H4X17793   6.009   4.568   6.734  1.8887 -0.2894  0.6347
  159SAPE   H4Y17794   6.115   4.508   6.872  0.5924 -0.5175 -0.3105
  159SAPE   C3517795   5.896   4.486   6.888  0.3776 -0.2145 -0.0015
  159SAPE   H5X17796   5.806   4.480   6.822 -1.0346  0.5816  1.7638
  159SAPE   H5Y17797   5.883   4.588   6.930 -2.3385 -1.4490  2.5437
  159SAPE   C3617798   5.888   4.379   6.998  0.1456  0.7141  0.6091
  159SAPE   H6X17799   5.993   4.365   7.031  1.1107  0.4727 -2.3237
  159SAPE   H6Y17800   5.846   4.284   6.958  0.0674  0.3685  1.4841
  159SAPE   C3717801   5.812   4.424   7.119  0.7879 -0.1734 -0.2617
  159SAPE   H7X17802   5.704   4.433   7.093  0.0618 -0.5036  2.3565
  159SAPE   H7Y17803   5.840   4.527   7.151  3.1409 -0.9988  0.5525
  159SAPE   C3817804   5.811   4.327   7.238 -0.9152 -0.3822  1.4403
  159SAPE   H8X17805   5.910   4.345   7.285  0.0136 -0.1223 -0.5598
  159SAPE   H8Y17806   5.807   4.224   7.197 -1.1849 -0.0206  0.5533
  159SAPE   C3917807   5.708   4.352   7.348  0.1452  0.0232  0.1880
  159SAPE   H9X17808   5.611   4.307   7.320  0.6116 -1.2536  0.5611
  159SAPE   H9Y17809   5.708   4.461   7.367  0.1210  0.2863 -1.1796
  159SAPE  C31017810   5.757   4.304   7.482 -0.1294  0.1867 -0.2068
  159SAPE  H10X17811   5.846   4.360   7.517  0.3032 -0.1286 -0.7799
  159SAPE  H10Y17812   5.776   4.195   7.485  1.2231  0.4329  1.4853
  159SAPE  C31117813   5.653   4.319   7.589  0.1473  0.1355  0.4535
  159SAPE  H11X17814   5.555   4.277   7.557  0.2942  0.0769  0.0712
  159SAPE  H11Y17815   5.639   4.428   7.606  0.4374  0.0113  1.6086
  159SAPE  C31217816   5.705   4.251   7.725  0.2370 -0.8469 -0.3846
  159SAPE  H12X17817   5.808   4.294   7.731  0.2190 -0.5784 -1.6463
  159SAPE  H12Y17818   5.724   4.144   7.701  4.2991 -0.6842  1.2871
  159SAPE  C31317819   5.635   4.291   7.853 -0.0249 -0.0945 -0.0886
  159SAPE  H13X17820   5.530   4.274   7.821  0.1514  1.1971 -1.4700
  159SAPE  H13Y17821   5.644   4.401   7.867 -0.1263 -0.2363  1.2135
  159SAPE  C31417822   5.693   4.216   7.976 -0.3122 -0.0245 -0.1789
  159SAPE  H14X17823   5.800   4.241   7.963 -0.7592  2.3192  0.0613
  159SAPE  H14Y17824   5.686   4.106   7.966  0.0667  0.0648 -1.6729
  159SAPE  C31517825   5.629   4.244   8.108  0.0457  0.0382 -0.0149
  159SAPE  H15X17826   5.644   4.163   8.182 -0.3407  1.0646  1.2324
  159SAPE  H15Y17827   5.521   4.266   8.097  0.5239  2.0875 -1.1537
  159SAPE  C31617828   5.697   4.361   8.185 -0.3661  0.3497  0.0081
  159SAPE  H16X17829   5.689   4.448   8.116  1.8933 -0.4482 -1.3888
  159SAPE  H16Y17830   5.801   4.323   8.198 -1.1757 -1.5513  1.3819
  159SAPE  C31717831   5.645   4.402   8.323 -0.2541  0.1061  0.1807
  159SAPE  H17X17832   5.659   4.317   8.393 -3.7390  2.0531  3.6375
  159SAPE  H17Y17833   5.538   4.429   8.316  0.1749  2.5800  2.1317
  159SAPE  C31817834   5.719   4.522   8.388  0.0847 -0.1239  0.4414
  159SAPE  H18X17835   5.727   4.602   8.312 -0.5161 -1.5229 -1.1730
  159SAPE  H18Y17836   5.824   4.494   8.413  0.0980 -1.5984 -1.0614
  159SAPE  H18Z17837   5.671   4.563   8.479 -1.8006 -0.7313 -0.2244
  160SAPE     N17838   0.884   3.078   6.377  0.2997 -0.1546  0.8270
  160SAPE   HN117839   0.796   3.042   6.421 -1.0141  0.9597 -0.7601
  160SAPE   HN217840   0.971   3.041   6.421  1.6087  0.5987 -1.0013
  160SAPE   HN317841   0.885   3.181   6.391  1.1583 -0.4474  3.4166
  160SAPE   C1217842   0.870   3.054   6.231  0.7737 -0.6153  0.6026
  160SAPE  H12A17843   0.897   3.149   6.180 -2.0285  0.9578  1.8230
  160SAPE  H12B17844   0.763   3.028   6.218  0.6569  0.3163 -0.4454
  160SAPE   C1117845   0.953   2.929   6.202  0.3769 -0.1293 -0.2731
  160SAPE  H11A17846   1.053   2.938   6.249 -0.1906  1.9565  0.6706
  160SAPE  H11B17847   0.960   2.916   6.092  0.3387 -1.1831 -0.1596
  160SAPE     P17848   0.958   2.675   6.237 -0.0058  0.2786 -0.0970
  160SAPE   O1317849   0.926   2.610   6.108  0.3985 -0.9578  0.5072
  160SAPE   O1417850   1.103   2.690   6.253 -0.4152  0.1503  0.1049
  160SAPE   O1217851   0.889   2.814   6.259  0.1328 -0.1484  0.2691
  160SAPE   O1117852   0.913   2.579   6.355 -0.0477 -0.1273 -0.0514
  160SAPE    C117853   0.790   2.586   6.430 -0.8689  0.5073 -0.1155
  160SAPE    HA17854   0.722   2.662   6.386 -1.3516 -0.1788 -0.5845
  160SAPE    HB17855   0.744   2.485   6.438  0.5616 -0.0998  0.9218
  160SAPE    C217856   0.820   2.637   6.573 -0.1412  0.3359  0.3287
  160SAPE    HS17857   0.870   2.735   6.556 -0.8112  0.3845 -1.5413
  160SAPE   O2117858   0.897   2.539   6.646 -0.5440 -0.4379  0.0016
  160SAPE   C2117859   0.974   2.588   6.734  0.3220 -0.2940  0.0129
  160SAPE   O2217860   0.972   2.700   6.786  0.2894  0.5116 -0.0948
  160SAPE   C2217861   1.070   2.472   6.773 -0.0682 -0.1743  0.0014
  160SAPE   H2R17862   1.021   2.373   6.761  1.2563 -0.8156 -0.3794
  160SAPE   H2S17863   1.142   2.453   6.691  0.2305 -3.8885  0.9514
  160SAPE    C317864   0.682   2.663   6.640 -0.1296 -0.1196 -0.4050
  160SAPE    HX17865   0.623   2.574   6.611 -0.0215  0.1735 -1.5782
  160SAPE    HY17866   0.635   2.752   6.592  2.0495  0.5850 -1.3370
  160SAPE   O3117867   0.678   2.677   6.789  0.0175  0.0599  0.2536
  160SAPE   C3117868   0.658   2.796   6.840 -0.3500  0.0646  0.2247
  160SAPE   O3217869   0.618   2.890   6.777  0.4027 -0.2622  0.4329
  160SAPE   C3217870   0.687   2.796   6.986 -0.4015  0.4149  0.5856
  160SAPE   H2X17871   0.797   2.781   6.992 -0.3571  0.6219  0.3203
  160SAPE   H2Y17872   0.637   2.706   7.028  0.6128 -0.7157 -0.5407
  160SAPE   C2317873   1.144   2.505   6.903 -0.2146  0.2429 -0.7282
  160SAPE   H3R17874   1.191   2.605   6.916 -1.8897  0.9315  0.3087
  160SAPE   H3S17875   1.232   2.439   6.885 -0.1899  0.3569 -1.0181
  160SAPE   C2417876   1.080   2.460   7.040 -0.4237  0.3741 -0.2904
  160SAPE   H4R17877   1.157   2.483   7.117  1.0866  0.3875 -1.7646
  160SAPE   H4S17878   1.076   2.350   7.029  0.6379  0.4822 -2.1539
  160SAPE   C2517879   0.949   2.518   7.083 -0.0346  0.0118  0.9991
  160SAPE   H5R17880   0.874   2.544   7.008  1.3892  0.8806 -0.1717
  160SAPE   C2617881   0.904   2.507   7.208 -0.1260 -0.3446  0.1891
  160SAPE   H6R17882   0.803   2.550   7.214 -0.6017 -0.7745 -3.0986
  160SAPE   C2717883   0.978   2.452   7.327  0.7184  0.6178 -0.9285
  160SAPE   H7R17884   1.087   2.441   7.308  0.9385  2.3887 -0.8445
  160SAPE   H7S17885   0.940   2.353   7.360 -0.1403  0.7183 -1.5672
  160SAPE   C2817886   0.983   2.548   7.440  0.3653 -0.7247 -0.1774
  160SAPE   H8R17887   1.016   2.648   7.409  1.1214 -0.6987  0.6678
  160SAPE   C2917888   0.957   2.535   7.573 -0.2334 -0.4642 -0.1745
  160SAPE   H9R17889   0.973   2.620   7.641  0.6077 -0.8646  0.1401
  160SAPE  C21017890   0.927   2.405   7.640 -0.4289 -0.0934  0.0332
  160SAPE  H10R17891   1.024   2.376   7.686  0.1532  2.2354  0.3755
  160SAPE  H10S17892   0.897   2.326   7.567 -2.1050 -0.0640  0.6382
  160SAPE  C21117893   0.810   2.432   7.733 -0.4819  0.5230  0.3403
  160SAPE  H11R17894   0.732   2.502   7.700 -0.5807  0.2194 -0.0843
  160SAPE  C21217895   0.784   2.370   7.852 -0.5101  0.0685  0.0413
  160SAPE  H12R17896   0.688   2.393   7.902 -0.7713 -2.6060  0.9416
  160SAPE  C21317897   0.867   2.263   7.919 -0.1719 -0.3458  0.0602
  160SAPE  H13R17898   0.975   2.270   7.891  1.2271 -1.5445  4.3744
  160SAPE  H13S17899   0.834   2.172   7.865 -0.8060  1.0257 -1.9987
  160SAPE  C21417900   0.869   2.260   8.065  0.8923 -0.4381 -0.1213
  160SAPE  H14R17901   0.894   2.356   8.113  0.0100  0.1904 -0.8919
  160SAPE  C21517902   0.809   2.165   8.142  0.6266  0.0627 -0.7592
  160SAPE  H15R17903   0.814   2.168   8.252 -1.1459 -0.2775 -0.6399
  160SAPE  C21617904   0.730   2.043   8.107 -0.1466  0.3921  0.4729
  160SAPE  H16R17905   0.789   1.958   8.147  2.0905  2.0807  0.9591
  160SAPE  H16S17906   0.729   2.036   7.996  1.0201  2.7725  0.2544
  160SAPE  C21717907   0.583   2.039   8.157 -0.6108  0.1200  0.0163
  160SAPE  H17R17908   0.523   1.956   8.115 -0.3405 -0.9217  1.5920
  160SAPE  H17S17909   0.538   2.139   8.134 -0.0344  0.3835  0.0092
  160SAPE  C21817910   0.573   2.012   8.309  0.1034 -0.3691  0.0083
  160SAPE  H18R17911   0.627   2.095   8.359  0.3846 -1.0062  0.7809
  160SAPE  H18S17912   0.627   1.918   8.335  0.1211 -0.5019 -0.4992
  160SAPE  C21917913   0.426   2.019   8.359 -0.7805 -0.3538 -0.6945
  160SAPE  H19R17914   0.362   2.084   8.296 -1.0119  0.1847  0.0811
  160SAPE  H19S17915   0.428   2.061   8.461 -0.0721 -2.4926  0.2285
  160SAPE  C22017916   0.365   1.888   8.378  0.3272  0.4054 -0.1167
  160SAPE  H20R17917   0.257   1.882   8.352 -0.0965 -1.1352  1.7668
  160SAPE  H20S17918   0.385   1.849   8.480 -2.7524  0.7541  0.7409
  160SAPE  H20T17919   0.398   1.806   8.310 -1.1477 -2.6836  2.5882
  160SAPE   C3317920   0.661   2.933   7.054 -0.5994 -0.0914  1.0531
  160SAPE   H3X17921   0.555   2.960   7.035 -0.3274 -0.9853 -2.3886
  160SAPE   H3Y17922   0.728   3.006   7.003  1.6348 -1.5954  1.7135
  160SAPE   C3417923   0.692   2.940   7.208 -0.4275 -0.2385  0.3174
  160SAPE   H4X17924   0.787   2.887   7.234 -0.0309  0.6800  0.8085
  160SAPE   H4Y17925   0.597   2.913   7.259 -0.4465  0.1819  0.5122
  160SAPE   C3517926   0.719   3.086   7.252 -0.0327 -0.2035  0.6858
  160SAPE   H5X17927   0.650   3.151   7.194  0.9533  1.8696  1.7220
  160SAPE   H5Y17928   0.821   3.114   7.216 -0.4907  0.7295  0.0819
  160SAPE   C3617929   0.695   3.103   7.409  0.2632  0.6733 -0.5108
  160SAPE   H6X17930   0.743   3.014   7.455 -1.5986 -1.0055 -1.6501
  160SAPE   H6Y17931   0.589   3.108   7.442  0.5731  2.0542  0.3608
  160SAPE   C3717932   0.768   3.231   7.447  0.6928 -0.0848 -0.1466
  160SAPE   H7X17933   0.716   3.308   7.386 -2.7550 -0.0697  2.4520
  160SAPE   H7Y17934   0.877   3.218   7.433  0.8924  1.7291 -0.5197
  160SAPE   C3817935   0.741   3.276   7.595  0.5004  0.2237 -0.3248
  160SAPE   H8X17936   0.802   3.209   7.660  2.1667  2.4342  0.5161
  160SAPE   H8Y17937   0.634   3.265   7.623  0.5419  0.0256 -0.2398
  160SAPE   C3917938   0.785   3.419   7.629 -0.3901 -0.6841  0.0515
  160SAPE   H9X17939   0.698   3.487   7.622  0.5423  0.5182 -0.2037
  160SAPE   H9Y17940   0.857   3.445   7.548 -1.2162  2.5092  0.2093
  160SAPE  C31017941   0.848   3.433   7.769  0.7168  0.6173 -0.2235
  160SAPE  H10X17942   0.904   3.529   7.767  0.7101  0.6729  1.0626
  160SAPE  H10Y17943   0.916   3.346   7.788 -2.7989 -2.8166 -1.9779
  160SAPE  C31117944   0.746   3.442   7.885 -0.3222 -0.5921 -0.3083
  160SAPE  H11X17945   0.646   3.426   7.838 -0.6013  0.7300 -0.2193
  160SAPE  H11Y17946   0.741   3.550   7.908  1.9105 -0.2671 -1.1113
  160SAPE  C31217947   0.768   3.342   7.999  0.8660 -0.2440 -0.1806
  160SAPE  H12X17948   0.869   3.353   8.044 -0.1979 -1.6713  2.8344
  160SAPE  H12Y17949   0.744   3.241   7.958 -2.3367  0.4889 -0.3510
  160SAPE  C31317950   0.674   3.384   8.118  0.1985  0.9251 -0.4015
  160SAPE  H13X17951   0.572   3.396   8.076 -0.2390  2.0085  0.9120
  160SAPE  H13Y17952   0.709   3.476   8.169  0.5956 -0.5076  2.0604
  160SAPE  C31417953   0.667   3.265   8.220  0.0862 -0.6813 -0.0076
  160SAPE  H14X17954   0.639   3.173   8.164  0.5050 -0.3012 -0.8525
  160SAPE  H14Y17955   0.599   3.304   8.299  0.8441  0.7202 -0.0236
  160SAPE  C31517956   0.800   3.247   8.303  0.4023 -0.2576 -0.1779
  160SAPE  H15X17957   0.823   3.339   8.362  0.7507 -0.4972  0.0635
  160SAPE  H15Y17958   0.884   3.227   8.234  1.9057  0.0352  1.4831
  160SAPE  C31617959   0.796   3.125   8.397  1.0044 -0.5807 -0.2834
  160SAPE  H16X17960   0.894   3.113   8.449  0.1843  2.0750  2.2010
  160SAPE  H16Y17961   0.772   3.039   8.332 -1.3915  1.3495 -2.1298
  160SAPE  C31717962   0.689   3.138   8.506 -0.6479  0.5092  0.2176
  160SAPE  H17X17963   0.592   3.130   8.452  0.1869 -1.4217 -1.0818
  160SAPE  H17Y17964   0.695   3.245   8.536 -0.0295  0.4951  0.1547
  160SAPE  C31817965   0.704   3.045   8.625  0.7852  0.5862  0.2882
  160SAPE  H18X17966   0.805   3.015   8.660  1.3157  0.5285 -1.2326
  160SAPE  H18Y17967   0.647   2.957   8.589  0.6514  0.0137  1.8186
  160SAPE  H18Z17968   0.645   3.075   8.713 -0.8858 -1.5485 -0.0116
  161SOPE     N17969   6.416   0.542  10.556 -0.4079  0.0627 -0.0502
  161SOPE   HN117970   6.516   0.572  10.559 -0.2020 -0.5230 -0.8075
  161SOPE   HN217971   6.350   0.621  10.570 -0.7054 -0.0023 -1.0649
  161SOPE   HN317972   6.404   0.484  10.642  0.4267  1.8699  1.3613
  161SOPE   C1217973   6.389   0.458  10.438  0.4372 -0.8056 -0.1374
  161SOPE  H12A17974   6.396   0.521  10.346  0.7842 -2.8414 -1.5898
  161SOPE  H12B17975   6.290   0.409  10.452 -0.3288  1.0639  1.4603
  161SOPE   C1117976   6.495   0.348  10.430  0.6489 -0.1416 -0.0668
  161SOPE  H11A17977   6.594   0.392  10.406 -0.6397  1.8112 -2.1595
  161SOPE  H11B17978   6.476   0.282  10.343  1.8818 -0.3720 -0.1760
  161SOPE     P17979   6.432   0.141  10.572 -0.1448  0.3197  0.1438
  161SOPE   O1317980   6.286   0.155  10.562 -0.0773 -0.3569 -0.3046
  161SOPE   O1417981   6.476   0.086  10.705  0.3040  0.1434 -0.3965
  161SOPE   O1217982   6.494   0.279  10.557 -0.9712  0.2107  0.2518
  161SOPE   O1117983   6.493   0.055  10.451 -0.1323  0.0859  0.1709
  161SOPE    C117984   6.415  -0.038  10.378 -0.2053 -0.6563 -0.2237
  161SOPE    HA17985   6.406  -0.014  10.270 -1.1720  0.9819  0.1671
  161SOPE    HB17986   6.310  -0.045  10.416  0.1747  0.7251  1.1847
  161SOPE    C217987   6.469  -0.181  10.386 -0.5627 -0.0339  0.2015
  161SOPE    HS17988   6.577  -0.179  10.361 -0.5457 -2.1485 -0.0474
  161SOPE   O2117989   6.400  -0.276  10.298 -0.1982 -0.3489 -0.4207
  161SOPE   C2117990   6.453  -0.284  10.174 -0.6818 -0.5392  0.6758
  161SOPE   O2217991   6.554  -0.225  10.137  0.2879 -0.6137 -0.1001
  161SOPE   C2217992   6.385  -0.391  10.090  0.1351  0.4276  0.1491
  161SOPE   H2R17993   6.278  -0.399  10.119  0.1382  0.4512  0.1684
  161SOPE   H2S17994   6.434  -0.485  10.124 -1.8252 -1.7701 -2.6734
  161SOPE    C317995   6.469  -0.244  10.526  0.6844 -0.0501  0.6054
  161SOPE    HX17996   6.364  -0.240  10.562 -0.2284  1.2271 -1.9073
  161SOPE    HY17997   6.514  -0.179  10.604 -1.4107  1.1584  0.8943
  161SOPE   O3117998   6.513  -0.384  10.531 -0.2606  0.1810 -0.3007
  161SOPE   C3117999   6.644  -0.399  10.563  0.2752 -0.4302 -0.6855
  161SOPE   O3218000   6.718  -0.306  10.593 -0.8861 -0.5880 -0.5122
  161SOPE   C3218001   6.689  -0.546  10.548 -0.1273 -0.3133  0.7309
  161SOPE   H2X18002   6.603  -0.616  10.549 -0.2658 -0.1739  2.7545
  161SOPE   H2Y18003   6.753  -0.580  10.633  1.3688  1.0800  0.2212
  161SOPE   C2318004   6.396  -0.368   9.938 -0.7169  0.4191 -0.6046
  161SOPE   H3R18005   6.497  -0.392   9.901 -0.2140  2.0127 -0.3375
  161SOPE   H3S18006   6.373  -0.261   9.915  1.3643  0.8583 -0.7938
  161SOPE   C2418007   6.292  -0.443   9.857 -0.0946  0.1006 -0.1955
  161SOPE   H4R18008   6.287  -0.543   9.904  3.7151  0.4097  1.1785
  161SOPE   H4S18009   6.191  -0.397   9.855 -0.9325 -1.6831 -0.6660
  161SOPE   C2518010   6.344  -0.485   9.717 -0.0507  0.3346  0.0790
  161SOPE   H5R18011   6.454  -0.495   9.716 -0.1701 -1.2240 -0.6277
  161SOPE   H5S18012   6.294  -0.581   9.690  0.9359  0.3285 -1.9288
  161SOPE   C2618013   6.301  -0.377   9.611  0.1594 -0.4159  0.1842
  161SOPE   H6R18014   6.194  -0.385   9.586 -0.0618  0.0288  0.9450
  161SOPE   H6S18015   6.323  -0.283   9.667 -0.9052 -0.2667  0.3699
  161SOPE   C2718016   6.387  -0.398   9.485 -0.1182 -0.0244 -1.1774
  161SOPE   H7R18017   6.371  -0.307   9.423  2.4454  1.4252  0.1181
  161SOPE   H7S18018   6.492  -0.382   9.517 -1.1841  0.6924  2.4467
  161SOPE   C2818019   6.369  -0.532   9.417 -0.4437  0.0919 -0.6244
  161SOPE   H8R18020   6.432  -0.531   9.326  2.8782  0.1865  1.5073
  161SOPE   H8S18021   6.407  -0.606   9.492  0.8166  1.1385 -0.2037
  161SOPE   C2918022   6.230  -0.571   9.384  0.0623 -0.0707  0.0808
  161SOPE   H9118023   6.168  -0.602   9.469 -2.7873  2.4377 -0.8954
  161SOPE  C21018024   6.170  -0.564   9.262 -0.5810 -0.8868 -0.1962
  161SOPE  H10118025   6.070  -0.610   9.255 -0.0722 -1.8886 -1.3420
  161SOPE  C21118026   6.234  -0.524   9.129 -0.0439  0.3918 -0.3012
  161SOPE  H11R18027   6.318  -0.455   9.149 -0.3464  0.6327  0.1567
  161SOPE  H11S18028   6.153  -0.479   9.067 -1.1825 -2.1194 -0.7941
  161SOPE  C21218029   6.275  -0.647   9.039  0.2253 -0.2684 -0.1961
  161SOPE  H12R18030   6.195  -0.725   9.035 -0.0532  0.0058 -0.0525
  161SOPE  H12S18031   6.366  -0.685   9.090  1.5187  4.3722  1.4151
  161SOPE  C21318032   6.314  -0.596   8.900 -0.5408  0.9026  1.1660
  161SOPE  H13R18033   6.397  -0.522   8.903 -1.3726  2.0004 -0.7544
  161SOPE  H13S18034   6.229  -0.534   8.863 -0.8221  1.3151  2.4727
  161SOPE  C21418035   6.362  -0.712   8.803 -0.0337 -0.3852 -1.1181
  161SOPE  H14R18036   6.282  -0.787   8.823 -1.7905  1.3837 -1.1834
  161SOPE  H14S18037   6.465  -0.740   8.833 -1.0783 -1.9816  1.2701
  161SOPE  C21518038   6.369  -0.678   8.651  0.1201  0.6256  0.0685
  161SOPE  H15R18039   6.430  -0.585   8.644 -1.4078  1.5597 -1.8965
  161SOPE  H15S18040   6.271  -0.653   8.604 -0.2384  1.2389  1.1191
  161SOPE  C21618041   6.433  -0.795   8.576 -0.2883 -0.2849  0.4103
  161SOPE  H16R18042   6.374  -0.888   8.594 -0.9116  0.0365  0.0356
  161SOPE  H16S18043   6.537  -0.816   8.611 -0.7444 -0.4660  1.7019
  161SOPE  C21718044   6.449  -0.767   8.423 -0.0909  0.4573  0.1355
  161SOPE  H17R18045   6.346  -0.753   8.385  0.3510  4.0277 -0.1010
  161SOPE  H17S18046   6.491  -0.858   8.375 -1.8140  1.0934 -2.8039
  161SOPE  C21818047   6.534  -0.648   8.401  0.5211  0.7905  0.1993
  161SOPE  H18R18048   6.555  -0.640   8.292  2.4146  0.0900  0.4657
  161SOPE  H18S18049   6.631  -0.654   8.455 -0.9903  1.1044  3.0857
  161SOPE  H18T18050   6.487  -0.550   8.425  0.2893  0.0651  3.0360
  161SOPE   C3318051   6.782  -0.551  10.427  0.0837 -0.3276 -0.2423
  161SOPE   H3X18052   6.838  -0.647  10.431  0.9134  0.1620  0.3473
  161SOPE   H3Y18053   6.857  -0.468  10.422  0.4289 -0.6952 -1.6091
  161SOPE   C3418054   6.704  -0.546  10.292  0.1513  0.8402  0.1257
  161SOPE   H4X18055   6.683  -0.442  10.262 -0.1499  0.5691 -0.6323
  161SOPE   H4Y18056   6.610  -0.603  10.310  2.4448 -3.8808 -1.1575
  161SOPE   C3518057   6.781  -0.628  10.183  0.4976 -0.2238 -0.1254
  161SOPE   H5X18058   6.765  -0.737  10.197  0.6228 -0.2190  0.0490
  161SOPE   H5Y18059   6.890  -0.611  10.197  0.7845 -1.9126 -0.1597
  161SOPE   C3618060   6.722  -0.592  10.048  0.2202 -0.3005  0.5337
  161SOPE   H6X18061   6.705  -0.483  10.035 -3.2693 -0.6506  1.3476
  161SOPE   H6Y18062   6.623  -0.642  10.041  0.4687 -0.6749 -0.6136
  161SOPE   C3718063   6.812  -0.626   9.924 -0.2810  0.2155  0.2268
  161SOPE   H7X18064   6.848  -0.730   9.937  1.1750  0.9309  2.7084
  161SOPE   H7Y18065   6.901  -0.559   9.926  0.0130 -0.1553 -0.1853
  161SOPE   C3818066   6.741  -0.601   9.797 -0.1424  0.5575 -0.2562
  161SOPE   H8X18067   6.722  -0.491   9.792 -1.9336  0.3401  1.0849
  161SOPE   H8Y18068   6.643  -0.652   9.802  0.1157  0.0327 -0.4941
  161SOPE   C3918069   6.822  -0.625   9.670  0.5269 -0.0093 -0.5900
  161SOPE   H9X18070   6.858  -0.729   9.656  0.5938  0.0273 -0.7035
  161SOPE   H9Y18071   6.903  -0.549   9.678  0.0768  0.4890 -0.6909
  161SOPE  C31018072   6.732  -0.588   9.545 -0.5148  0.3874  0.1729
  161SOPE  H10X18073   6.696  -0.486   9.570  0.7737  0.7035  0.8024
  161SOPE  H10Y18074   6.647  -0.657   9.529  0.0487 -0.2572 -0.0850
  161SOPE  C31118075   6.817  -0.596   9.418 -0.1067 -0.3458  0.0951
  161SOPE  H11X18076   6.810  -0.698   9.374 -1.9552 -0.2544  0.1074
  161SOPE  H11Y18077   6.918  -0.565   9.452  0.4664 -0.9334 -1.0059
  161SOPE  C31218078   6.765  -0.514   9.301  0.2263  0.2270  0.4214
  161SOPE  H12X18079   6.761  -0.404   9.317 -0.8771  0.0520  1.4835
  161SOPE  H12Y18080   6.664  -0.547   9.270  0.6068 -0.5843  0.0142
  161SOPE  C31318081   6.841  -0.543   9.166 -0.3686  0.2906 -0.6406
  161SOPE  H13X18082   6.870  -0.650   9.172 -1.1308  0.0982 -0.3209
  161SOPE  H13Y18083   6.929  -0.477   9.154  0.0785  0.3144  2.0869
  161SOPE  C31418084   6.750  -0.528   9.048  0.4556  0.0266  0.2557
  161SOPE  H14X18085   6.713  -0.423   9.035  0.1693  0.2479  2.5763
  161SOPE  H14Y18086   6.656  -0.585   9.064  1.1226 -0.3017  3.5492
  161SOPE  C31518087   6.814  -0.580   8.915  0.2506 -0.2372 -0.1761
  161SOPE  H15X18088   6.854  -0.684   8.919 -0.0492 -0.3299  0.6305
  161SOPE  H15Y18089   6.899  -0.510   8.903  1.1710 -1.2193  0.4571
  161SOPE  C31618090   6.727  -0.568   8.782 -0.2397 -1.3637  0.0287
  161SOPE  H16X18091   6.661  -0.481   8.798  0.3935 -1.0913  1.2934
  161SOPE  H16Y18092   6.667  -0.662   8.784  0.9472 -2.1473  0.8676
  161SOPE  C31718093   6.817  -0.566   8.657  0.3500 -0.3724  0.9539
  161SOPE  H17X18094   6.900  -0.494   8.669 -1.1671  1.8908 -1.1130
  161SOPE  H17Y18095   6.757  -0.534   8.569 -0.1338 -0.3139  1.3000
  161SOPE  C31818096   6.871  -0.710   8.631 -0.0584  0.2293  0.3657
  161SOPE  H18X18097   6.789  -0.784   8.634  0.7246 -0.6595  0.7157
  161SOPE  H18Y18098   6.942  -0.737   8.713 -0.4324 -0.1243  0.5734
  161SOPE  H18Z18099   6.926  -0.711   8.535  1.4298 -2.4391  1.1470
  162SOPE     N18100   3.542   6.310  10.659 -0.1750  0.4895  0.3427
  162SOPE   HN118101   3.613   6.236  10.678  0.0030  0.0534 -1.8029
  162SOPE   HN218102   3.540   6.363  10.749 -1.6120 -1.5973  1.6189
  162SOPE   HN318103   3.445   6.283  10.634 -0.5807  1.6235  0.6153
  162SOPE   C1218104   3.611   6.401  10.562 -0.3818  0.5076 -0.1882
  162SOPE  H12A18105   3.521   6.444  10.513 -0.9208  0.6768  0.9389
  162SOPE  H12B18106   3.666   6.345  10.483 -0.3239  0.3795 -0.0569
  162SOPE   C1118107   3.689   6.516  10.634 -0.1515  0.3756  0.3370
  162SOPE  H11A18108   3.729   6.590  10.561  1.5999 -0.8972 -0.0340
  162SOPE  H11B18109   3.781   6.476  10.680  0.3022  0.1916 -0.7044
  162SOPE     P18110   3.492   6.677  10.689  0.1017 -0.3492  0.1193
  162SOPE   O1318111   3.480   6.776  10.798 -0.2024 -0.1301  0.1446
  162SOPE   O1418112   3.376   6.595  10.640  0.4954 -0.6174 -0.0900
  162SOPE   O1218113   3.613   6.577  10.737  0.1389 -0.9756  0.1948
  162SOPE   O1118114   3.556   6.751  10.565  0.2268 -1.3906 -0.3615
  162SOPE    C118115   3.662   6.848  10.600 -0.3262 -0.0908 -0.1755
  162SOPE    HA18116   3.747   6.815  10.665  0.5254  1.5025 -0.4095
  162SOPE    HB18117   3.619   6.939  10.647  1.5437  0.5271  0.4682
  162SOPE    C218118   3.734   6.900  10.470  0.4708 -0.1237  0.2212
  162SOPE    HS18119   3.649   6.914  10.400 -0.4683  0.1629  1.3814
  162SOPE   O2118120   3.829   6.806  10.420 -0.2017 -0.3737 -0.3683
  162SOPE   C2118121   3.862   6.820  10.296 -0.5278  0.1184 -0.3934
  162SOPE   O2218122   3.822   6.910  10.224 -0.3551 -0.7562  0.8373
  162SOPE   C2218123   3.969   6.714  10.266  0.0123 -0.3058 -0.2139
  162SOPE   H2R18124   3.958   6.638  10.345  0.2454  0.4853  0.5978
  162SOPE   H2S18125   4.068   6.764  10.259  0.2623 -0.7645  0.0787
  162SOPE    C318126   3.799   7.036  10.521  0.1140 -0.1514 -0.3505
  162SOPE    HX18127   3.868   7.004  10.601 -0.7036  3.3848  2.0234
  162SOPE    HY18128   3.724   7.103  10.567  1.3219 -0.1311  1.7261
  162SOPE   O3118129   3.884   7.098  10.424  0.0133  0.3577 -0.3711
  162SOPE   C3118130   3.828   7.175  10.329 -0.0964  0.4520  0.2107
  162SOPE   O3218131   3.707   7.196  10.325 -0.0417 -0.2956  0.5379
  162SOPE   C3218132   3.940   7.219  10.228 -0.3367  0.2362  0.0989
  162SOPE   H2X18133   4.018   7.142  10.212  0.9608  1.2710  1.2037
  162SOPE   H2Y18134   3.996   7.301  10.279  1.4523  1.4454 -3.4989
  162SOPE   C2318135   3.937   6.653  10.127  0.1081  1.4260  0.3460
  162SOPE   H3R18136   3.974   6.727  10.052 -1.9762  0.1812 -2.0531
  162SOPE   H3S18137   3.834   6.623  10.098  1.7573 -3.6590 -1.3974
  162SOPE   C2418138   4.007   6.512  10.110  0.1982 -0.2390 -0.1130
  162SOPE   H4R18139   4.116   6.526  10.124 -0.2185  3.3875  0.2998
  162SOPE   H4S18140   3.965   6.463  10.201 -0.6766  1.5111  0.4677
  162SOPE   C2518141   3.987   6.438   9.983 -0.1533  0.2763  0.0784
  162SOPE   H5R18142   4.010   6.330   9.995  0.8079  0.4555 -0.0425
  162SOPE   H5S18143   3.879   6.442   9.959 -0.0809  1.1953 -0.1586
  162SOPE   C2618144   4.065   6.487   9.862 -0.3550 -0.5334 -0.3587
  162SOPE   H6R18145   4.044   6.594   9.841 -0.2526  0.0214  2.0662
  162SOPE   H6S18146   4.173   6.483   9.888 -0.3552  1.9974  0.2768
  162SOPE   C2718147   4.034   6.404   9.733 -0.1548 -0.0972  0.0870
  162SOPE   H7R18148   4.089   6.458   9.652  1.0244 -1.1238  0.1625
  162SOPE   H7S18149   4.082   6.304   9.739  0.6362  0.3644  2.3772
  162SOPE   C2818150   3.892   6.377   9.689  0.3945  0.0157 -0.3592
  162SOPE   H8R18151   3.833   6.468   9.714  0.4973  0.5850 -2.0558
  162SOPE   H8S18152   3.888   6.374   9.578 -1.2147  0.8813 -0.3522
  162SOPE   C2918153   3.825   6.252   9.750  0.1994 -0.7952  0.2427
  162SOPE   H9118154   3.786   6.274   9.850  1.1418  1.1473  0.2341
  162SOPE  C21018155   3.809   6.136   9.688  0.1840  0.2166 -0.0218
  162SOPE  H10118156   3.794   6.060   9.766 -1.4839  1.2339  0.7116
  162SOPE  C21118157   3.847   6.094   9.544 -0.5900  0.6648  0.1534
  162SOPE  H11R18158   3.820   6.171   9.470  1.2072  1.7530  0.5682
  162SOPE  H11S18159   3.785   6.006   9.517  0.1629  1.2108 -3.9583
  162SOPE  C21218160   3.997   6.064   9.516  0.4516 -0.1020 -0.2368
  162SOPE  H12R18161   4.066   6.146   9.544 -0.3336 -0.2335  2.3072
  162SOPE  H12S18162   4.002   6.045   9.407  2.1982 -3.3662  0.2960
  162SOPE  C21318163   4.055   5.937   9.592 -0.1018  0.9244  0.3093
  162SOPE  H13R18164   4.043   5.957   9.700 -0.2129 -1.2917  0.7518
  162SOPE  H13S18165   4.161   5.918   9.565 -0.6123  0.2563 -1.3308
  162SOPE  C21418166   3.979   5.806   9.567 -0.3942  0.1050 -0.3014
  162SOPE  H14R18167   4.002   5.776   9.463 -0.9276  0.6309 -0.5758
  162SOPE  H14S18168   3.869   5.818   9.557 -0.0818  0.7623 -4.7295
  162SOPE  C21518169   4.014   5.684   9.653 -0.0510 -0.3131 -0.7941
  162SOPE  H15R18170   4.117   5.655   9.625 -0.0381  0.6059 -1.7801
  162SOPE  H15S18171   3.949   5.596   9.635  1.5408 -2.7128  3.6379
  162SOPE  C21618172   4.017   5.705   9.801 -0.2500 -0.4067 -0.6954
  162SOPE  H16R18173   4.108   5.757   9.838 -0.2298 -1.4919  0.8894
  162SOPE  H16S18174   4.019   5.604   9.847 -1.9436  0.3171  1.0868
  162SOPE  C21718175   3.892   5.759   9.872 -0.5836 -0.3971 -0.1825
  162SOPE  H17R18176   3.856   5.838   9.803  1.2600  0.1941 -0.5278
  162SOPE  H17S18177   3.919   5.812   9.966  1.3204 -0.1264 -0.8300
  162SOPE  C21818178   3.791   5.655   9.884 -0.2888  1.1217  0.0087
  162SOPE  H18R18179   3.828   5.572   9.948 -1.5745  0.4963 -0.0223
  162SOPE  H18S18180   3.783   5.613   9.781  0.7327 -1.0844  0.7708
  162SOPE  H18T18181   3.696   5.697   9.925  1.2474  2.9603  1.9063
  162SOPE   C3318182   3.877   7.260  10.093 -0.3459  0.1356 -0.8041
  162SOPE   H3X18183   3.794   7.334  10.103 -1.1809 -0.7786 -0.8246
  162SOPE   H3Y18184   3.835   7.169  10.046 -1.4375 -1.7959  3.4105
  162SOPE   C3418185   3.984   7.304   9.988  0.9482 -0.6273 -0.8388
  162SOPE   H4X18186   4.060   7.224   9.980  1.4479 -0.0690 -2.0757
  162SOPE   H4Y18187   4.033   7.393  10.033 -0.8836 -0.8970  1.9181
  162SOPE   C3518188   3.919   7.343   9.856  0.7385 -0.0138 -0.6877
  162SOPE   H5X18189   3.814   7.374   9.875  0.9348 -0.7120  2.0010
  162SOPE   H5Y18190   3.923   7.264   9.778  1.1341  0.9678 -1.6850
  162SOPE   C3618191   3.991   7.453   9.778  0.2342  0.4291 -0.4722
  162SOPE   H6X18192   4.097   7.456   9.813 -0.3600 -0.2451  1.5025
  162SOPE   H6Y18193   3.941   7.544   9.818  0.5223 -0.0065  0.9363
  162SOPE   C3718194   3.980   7.435   9.624  0.2819  0.5475  0.3323
  162SOPE   H7X18195   4.008   7.531   9.576  1.8664 -0.9859 -2.0545
  162SOPE   H7Y18196   3.873   7.415   9.601 -0.1688  0.5646  2.2505
  162SOPE   C3818197   4.061   7.325   9.556 -0.4332 -0.1511 -0.5358
  162SOPE   H8X18198   4.025   7.225   9.588  2.8703 -1.1319  0.6083
  162SOPE   H8Y18199   4.165   7.344   9.592 -0.2017 -1.3190 -0.5309
  162SOPE   C3918200   4.061   7.321   9.407  0.4881 -0.4468 -0.1859
  162SOPE   H9X18201   3.964   7.291   9.362  0.2768 -1.1116  0.6830
  162SOPE   H9Y18202   4.127   7.240   9.369  0.9653 -0.3422  0.3939
  162SOPE  C31018203   4.087   7.456   9.330 -0.1778  0.1754 -0.4976
  162SOPE  H10X18204   4.190   7.487   9.358  0.4756 -2.0429 -0.2308
  162SOPE  H10Y18205   4.015   7.533   9.364  0.6705  0.1613  1.5155
  162SOPE  C31118206   4.082   7.459   9.179  0.5458 -0.3492  0.0234
  162SOPE  H11X18207   4.081   7.563   9.140 -0.4332 -1.1249 -2.1944
  162SOPE  H11Y18208   3.979   7.423   9.156  0.6245  0.3088 -1.4672
  162SOPE  C31218209   4.177   7.367   9.094  0.1707 -0.5209 -0.2851
  162SOPE  H12X18210   4.184   7.260   9.123  1.7899 -1.5649 -3.9354
  162SOPE  H12Y18211   4.282   7.403   9.104  0.3605 -1.0542 -0.3236
  162SOPE  C31318212   4.137   7.385   8.944  0.2867 -0.5670  0.1948
  162SOPE  H13X18213   4.214   7.349   8.872 -0.2031 -0.7379 -0.2479
  162SOPE  H13Y18214   4.118   7.495   8.943  0.3417 -0.5562 -0.4567
  162SOPE  C31418215   4.014   7.302   8.902 -0.7403 -0.7030  0.2937
  162SOPE  H14X18216   3.917   7.346   8.931 -0.5768  0.4144 -0.7921
  162SOPE  H14Y18217   4.031   7.203   8.949 -2.0075  0.0892  2.5500
  162SOPE  C31518218   4.007   7.279   8.752 -0.4119  0.0033 -0.0048
  162SOPE  H15X18219   4.092   7.214   8.722  0.8595  2.2533 -1.6404
  162SOPE  H15Y18220   4.034   7.375   8.702 -0.2007  0.8133  1.6100
  162SOPE  C31618221   3.868   7.234   8.693 -0.2434  0.2901 -0.5805
  162SOPE  H16X18222   3.877   7.225   8.583  1.0748 -0.4161 -0.4347
  162SOPE  H16Y18223   3.793   7.316   8.703 -2.8846 -1.2820 -4.9157
  162SOPE  C31718224   3.828   7.099   8.753 -0.3956 -0.8942 -0.4164
  162SOPE  H17X18225   3.767   7.113   8.844  0.5772 -0.9349  0.2588
  162SOPE  H17Y18226   3.917   7.044   8.790  1.3712  0.6722 -2.0998
  162SOPE  C31818227   3.740   7.003   8.676 -0.4449  0.5793  0.0903
  162SOPE  H18X18228   3.795   6.971   8.586  0.8637  1.5397  0.5206
  162SOPE  H18Y18229   3.646   7.051   8.641 -1.2210 -0.5739  0.5095
  162SOPE  H18Z18230   3.711   6.915   8.739  2.8510 -0.2268  0.6721
  163SOPE     N18231   5.355   2.351  10.822 -0.5584  0.5551  0.1012
  163SOPE   HN118232   5.417   2.268  10.815  0.3570  1.3260 -1.7827
  163SOPE   HN218233   5.300   2.356  10.910  0.2783  0.3123  0.6408
  163SOPE   HN318234   5.280   2.333  10.752 -2.4562  1.2291  1.8562
  163SOPE   C1218235   5.421   2.473  10.795 -0.2593 -0.3594 -0.4200
  163SOPE  H12A18236   5.491   2.449  10.712  3.6901 -1.8022  2.9719
  163SOPE  H12B18237   5.478   2.509  10.884  0.9450  0.2357 -1.3994
  163SOPE   C1118238   5.330   2.585  10.750  0.3315  0.7551 -0.6378
  163SOPE  H11A18239   5.250   2.612  10.822  1.3600 -3.0668  2.2359
  163SOPE  H11B18240   5.288   2.542  10.657 -0.8948 -0.9819  0.6710
  163SOPE     P18241   5.395   2.833  10.792 -0.4675  0.2869  0.2753
  163SOPE   O1318242   5.497   2.933  10.755  0.1421 -0.0956 -0.4761
  163SOPE   O1418243   5.370   2.805  10.935 -0.1675  0.0779 -0.0988
  163SOPE   O1218244   5.422   2.694  10.720  0.5708 -0.7099 -0.6183
  163SOPE   O1118245   5.253   2.876  10.732  0.0201 -0.1789  0.2157
  163SOPE    C118246   5.256   2.909  10.590  0.4803  0.0988  0.1698
  163SOPE    HA18247   5.265   2.812  10.535 -3.2757  0.3628 -1.1904
  163SOPE    HB18248   5.344   2.972  10.564 -0.4563  1.1141 -0.6191
  163SOPE    C218249   5.140   2.989  10.539 -0.5834  0.3709 -0.7288
  163SOPE    HS18250   5.047   2.968  10.595  0.4137 -0.4822  0.6594
  163SOPE   O2118251   5.112   2.968  10.405  0.1366 -0.2266  0.4538
  163SOPE   C2118252   5.065   2.849  10.375 -0.5488  0.2013  0.6064
  163SOPE   O2218253   5.030   2.771  10.461  0.1375  0.3716 -0.1901
  163SOPE   C2218254   5.066   2.826  10.223  0.1976 -0.3807  0.2957
  163SOPE   H2R18255   4.989   2.898  10.186  0.5199  0.5581  1.3838
  163SOPE   H2S18256   5.025   2.727  10.195  1.1218  0.0436 -3.0749
  163SOPE    C318257   5.172   3.138  10.557  0.1989  0.3774  0.7878
  163SOPE    HX18258   5.176   3.178  10.660  0.9989  1.5146  0.3406
  163SOPE    HY18259   5.080   3.179  10.509 -0.7635 -0.0934  2.1770
  163SOPE   O3118260   5.294   3.173  10.482 -0.2152 -0.0006  0.2075
  163SOPE   C3118261   5.298   3.293  10.428  0.0077 -0.9399  0.3897
  163SOPE   O3218262   5.214   3.381  10.443 -0.0669  0.1519  0.1746
  163SOPE   C3218263   5.415   3.296  10.327 -0.6417  0.8662 -0.1733
  163SOPE   H2X18264   5.503   3.247  10.373 -2.3969 -1.0620  1.3627
  163SOPE   H2Y18265   5.439   3.404  10.317  4.6286  0.0775  1.0291
  163SOPE   C2318266   5.200   2.839  10.142  0.3406 -0.0482  0.5334
  163SOPE   H3R18267   5.260   2.927  10.174 -1.1540  0.6639  1.5151
  163SOPE   H3S18268   5.176   2.853  10.035 -1.1017  1.0574  0.9687
  163SOPE   C2418269   5.287   2.714  10.164  0.5299  1.0613 -0.2437
  163SOPE   H4R18270   5.314   2.714  10.272  1.3022  0.8397 -0.4299
  163SOPE   H4S18271   5.216   2.634  10.136 -0.4099  2.1521 -1.0801
  163SOPE   C2518272   5.412   2.709  10.082 -0.4367 -0.7083 -0.3824
  163SOPE   H5R18273   5.475   2.792  10.122 -0.6262 -0.2535 -1.0110
  163SOPE   H5S18274   5.468   2.616  10.106 -0.4436 -0.3490  1.0995
  163SOPE   C2618275   5.388   2.736   9.933  0.1435  0.9502  0.1883
  163SOPE   H6R18276   5.291   2.688   9.910  0.4337 -0.0072  0.8939
  163SOPE   H6S18277   5.384   2.847   9.922 -0.3204  0.9091 -0.0765
  163SOPE   C2718278   5.486   2.683   9.833  0.3436  0.4070  0.4760
  163SOPE   H7R18279   5.587   2.729   9.839  0.9138 -0.6072 -0.7419
  163SOPE   H7S18280   5.507   2.576   9.854  1.2293  1.0054  2.9530
  163SOPE   C2818281   5.432   2.679   9.689  0.6345  0.1964 -0.0895
  163SOPE   H8R18282   5.500   2.628   9.618  1.2590  0.0566  0.6010
  163SOPE   H8S18283   5.331   2.633   9.683 -0.0816  1.4864  1.4539
  163SOPE   C2918284   5.421   2.824   9.651 -0.1419  0.9076 -0.2041
  163SOPE   H9118285   5.361   2.883   9.721 -1.8025 -0.5009 -0.3858
  163SOPE  C21018286   5.470   2.882   9.542  0.1163  0.0911  0.0772
  163SOPE  H10118287   5.429   2.981   9.517 -1.2681 -0.2492  0.8969
  163SOPE  C21118288   5.552   2.815   9.432 -0.3455  0.6534 -0.2651
  163SOPE  H11R18289   5.589   2.720   9.475 -0.0896  1.6003  1.7374
  163SOPE  H11S18290   5.651   2.861   9.411  1.4593 -2.0320  1.7276
  163SOPE  C21218291   5.467   2.798   9.302  0.0880 -0.1047  0.3598
  163SOPE  H12R18292   5.377   2.741   9.332 -0.3070 -0.3818 -1.2875
  163SOPE  H12S18293   5.525   2.728   9.237 -0.1496  0.8337 -0.8911
  163SOPE  C21318294   5.437   2.929   9.222  0.8287  0.2928 -0.5521
  163SOPE  H13R18295   5.393   3.001   9.293  0.5187 -1.4439  1.0947
  163SOPE  H13S18296   5.368   2.894   9.143  1.0934 -0.3916 -0.4844
  163SOPE  C21418297   5.561   2.991   9.148  0.6679 -0.1845  1.1013
  163SOPE  H14R18298   5.649   3.000   9.216  0.5542 -0.2101  1.2540
  163SOPE  H14S18299   5.528   3.095   9.124 -0.8984 -0.4302  2.0714
  163SOPE  C21518300   5.587   2.908   9.020 -0.6177  0.2663 -0.4169
  163SOPE  H15R18301   5.491   2.888   8.968 -1.6868  1.2293  1.1108
  163SOPE  H15S18302   5.626   2.810   9.056 -0.3792  0.2748 -0.6513
  163SOPE  C21618303   5.676   2.987   8.930  0.1568 -0.4901 -0.4073
  163SOPE  H16R18304   5.747   3.045   8.992  0.0225 -0.0996 -0.6136
  163SOPE  H16S18305   5.611   3.057   8.872  0.1266  1.6228  2.0004
  163SOPE  C21718306   5.749   2.893   8.832  0.0025 -0.6589 -0.4146
  163SOPE  H17R18307   5.674   2.834   8.774  0.2571  0.4363 -1.9231
  163SOPE  H17S18308   5.806   2.813   8.884  2.4903  1.7581  0.8168
  163SOPE  C21818309   5.863   2.949   8.750 -0.9951  0.3759  0.0583
  163SOPE  H18R18310   5.939   2.993   8.817 -0.3959  1.9579 -1.5783
  163SOPE  H18S18311   5.838   3.026   8.674 -0.9321  0.7749  0.4391
  163SOPE  H18T18312   5.910   2.865   8.694 -1.0344 -0.1202  0.7604
  163SOPE   C3318313   5.384   3.232  10.190 -0.6117  0.2643  0.2298
  163SOPE   H3X18314   5.313   3.303  10.143  1.7608  2.8510  0.3307
  163SOPE   H3Y18315   5.335   3.133  10.205 -1.4860  0.4523 -1.1411
  163SOPE   C3418316   5.508   3.214  10.103 -0.1874 -0.0315  0.2581
  163SOPE   H4X18317   5.556   3.123  10.145 -1.1684 -0.0608  1.3606
  163SOPE   H4Y18318   5.582   3.297  10.106  0.9641 -0.8220 -2.4547
  163SOPE   C3518319   5.472   3.192   9.953 -0.5507 -0.0292  0.8379
  163SOPE   H5X18320   5.392   3.117   9.937  0.9722 -1.8348  1.2813
  163SOPE   H5Y18321   5.560   3.156   9.895 -2.8729 -3.2346 -0.9985
  163SOPE   C3618322   5.421   3.315   9.872 -0.7099  1.1057 -0.5123
  163SOPE   H6X18323   5.460   3.409   9.915 -2.4521  1.2416  0.8759
  163SOPE   H6Y18324   5.311   3.317   9.888 -1.0712 -2.3714 -1.5684
  163SOPE   C3718325   5.458   3.291   9.721  0.3240 -0.2057  0.1036
  163SOPE   H7X18326   5.415   3.192   9.696  1.7122 -1.5825  2.7326
  163SOPE   H7Y18327   5.567   3.284   9.703  0.4318  0.9559  0.2052
  163SOPE   C3818328   5.412   3.407   9.630  0.0399  0.3019 -0.3610
  163SOPE   H8X18329   5.458   3.506   9.650  2.6866 -0.6124 -1.4760
  163SOPE   H8Y18330   5.306   3.423   9.660 -0.3337 -1.4545 -0.6186
  163SOPE   C3918331   5.426   3.365   9.482  0.3838  0.7580  0.0579
  163SOPE   H9X18332   5.373   3.269   9.462  2.2839 -1.0443  2.9107
  163SOPE   H9Y18333   5.534   3.338   9.476  0.1310 -1.4754  3.2680
  163SOPE  C31018334   5.377   3.463   9.378 -0.2662 -0.2216  0.6669
  163SOPE  H10X18335   5.400   3.568   9.407 -0.6331 -0.1221  0.6093
  163SOPE  H10Y18336   5.267   3.450   9.370 -0.2297 -0.2638  0.1428
  163SOPE  C31118337   5.439   3.424   9.241  0.0769 -0.8650  0.0703
  163SOPE  H11X18338   5.411   3.318   9.229 -1.5301 -0.6507  1.4704
  163SOPE  H11Y18339   5.548   3.445   9.245 -0.4573  2.3276  0.7810
  163SOPE  C31218340   5.376   3.490   9.120 -0.2831  0.8609 -0.2305
  163SOPE  H12X18341   5.383   3.601   9.127  0.0983  0.7508  1.4708
  163SOPE  H12Y18342   5.269   3.462   9.121  0.4544 -2.5643 -1.5471
  163SOPE  C31318343   5.427   3.444   8.983 -0.0162 -0.2163 -0.5449
  163SOPE  H13X18344   5.478   3.347   9.000  0.3972  0.3587  1.9169
  163SOPE  H13Y18345   5.518   3.500   8.954 -0.0890  0.2332  0.0693
  163SOPE  C31418346   5.330   3.450   8.872  0.6330  0.1943 -0.5528
  163SOPE  H14X18347   5.287   3.548   8.843 -1.1414 -0.9172 -1.8830
  163SOPE  H14Y18348   5.236   3.394   8.889  1.4380 -1.9613 -2.6476
  163SOPE  C31518349   5.390   3.391   8.737  0.3000 -0.0516  0.1213
  163SOPE  H15X18350   5.307   3.379   8.664 -0.9153 -0.3227  1.4878
  163SOPE  H15Y18351   5.414   3.284   8.755 -1.4583 -0.9270 -2.2070
  163SOPE  C31618352   5.516   3.471   8.682  1.3522 -0.1192 -0.2907
  163SOPE  H16X18353   5.536   3.409   8.592  0.9923 -0.9576  0.1869
  163SOPE  H16Y18354   5.608   3.467   8.743  0.5486  0.3047  0.9954
  163SOPE  C31718355   5.470   3.615   8.633  0.5572 -0.1809  0.0140
  163SOPE  H17X18356   5.551   3.654   8.567 -0.2159 -1.8268 -2.0108
  163SOPE  H17Y18357   5.474   3.684   8.720 -0.7397 -0.7935  0.5839
  163SOPE  C31818358   5.332   3.631   8.559 -0.8101  0.1556  0.1623
  163SOPE  H18X18359   5.253   3.599   8.629 -2.1809 -2.0070 -2.2287
  163SOPE  H18Y18360   5.329   3.568   8.468 -0.5687 -1.4690  1.2298
  163SOPE  H18Z18361   5.324   3.739   8.532  0.1295 -0.0673 -1.0983
  164SOPE     N18362   3.247   2.094  10.749 -0.3849 -0.5669  0.4795
  164SOPE   HN118363   3.285   2.179  10.796  0.5292  0.2222 -1.5795
  164SOPE   HN218364   3.213   2.135  10.660  0.9172 -0.4117  0.0323
  164SOPE   HN318365   3.160   2.066  10.800 -0.6100 -0.6701  0.0449
  164SOPE   C1218366   3.342   1.986  10.704  0.8998 -0.3739  0.2218
  164SOPE  H12A18367   3.289   1.924  10.629 -0.1493 -1.4841  1.8178
  164SOPE  H12B18368   3.361   1.918  10.790  1.5590 -0.4286  0.0414
  164SOPE   C1118369   3.470   2.047  10.637  0.2592  0.3518 -0.4597
  164SOPE  H11A18370   3.445   2.060  10.529 -0.8381  1.2326 -0.1223
  164SOPE  H11B18371   3.550   1.973  10.654 -0.3044 -0.4732 -1.3078
  164SOPE     P18372   3.584   2.284  10.633 -0.2499 -0.5516  0.1695
  164SOPE   O1318373   3.713   2.228  10.586 -0.3809 -0.5735  0.4874
  164SOPE   O1418374   3.594   2.399  10.720 -0.0307 -0.0835 -0.9533
  164SOPE   O1218375   3.500   2.176  10.699 -0.2237 -0.3891 -0.2859
  164SOPE   O1118376   3.495   2.332  10.509 -0.0816  0.2252  0.1877
  164SOPE    C118377   3.358   2.352  10.528  0.4398  0.6088 -0.3536
  164SOPE    HA18378   3.333   2.381  10.632  1.0618  0.3769 -0.1353
  164SOPE    HB18379   3.308   2.254  10.515 -0.3927  0.9023  0.5188
  164SOPE    C218380   3.300   2.461  10.431  0.3805 -0.4765 -1.2635
  164SOPE    HS18381   3.190   2.466  10.445  0.6092 -1.1605  1.3638
  164SOPE   O2118382   3.332   2.436  10.293  0.3592 -0.0322  0.1393
  164SOPE   C2118383   3.252   2.346  10.233 -0.4702  0.5297 -0.8077
  164SOPE   O2218384   3.171   2.276  10.290  0.7755  0.2416 -0.4737
  164SOPE   C2218385   3.277   2.352  10.082 -0.1925  0.2286  0.3406
  164SOPE   H2R18386   3.359   2.425  10.060 -2.4983  3.2421  1.1213
  164SOPE   H2S18387   3.187   2.387  10.029 -1.5746 -1.1698  1.6665
  164SOPE    C318388   3.356   2.594  10.473 -0.0454 -0.7372 -0.4469
  164SOPE    HX18389   3.464   2.585  10.446  0.2305 -1.6000  0.8621
  164SOPE    HY18390   3.349   2.616  10.582  1.9336  1.4903 -0.7038
  164SOPE   O3118391   3.287   2.697  10.403  0.3688 -0.7036  0.2433
  164SOPE   C3118392   3.338   2.820  10.432  0.3886 -0.5221 -0.0679
  164SOPE   O3218393   3.424   2.840  10.516 -0.1777 -0.6209 -0.0171
  164SOPE   C3218394   3.253   2.929  10.362  0.7893 -0.0157 -0.2976
  164SOPE   H2X18395   3.149   2.929  10.399 -0.4995  1.4674 -3.4856
  164SOPE   H2Y18396   3.242   2.902  10.254  2.3333  3.2116 -1.3929
  164SOPE   C2318397   3.320   2.207  10.026  0.6436  1.0223 -0.5600
  164SOPE   H3R18398   3.252   2.128  10.064  0.5242  1.1543 -0.4978
  164SOPE   H3S18399   3.419   2.182  10.070 -0.0392 -0.0493  0.4197
  164SOPE   C2418400   3.314   2.209   9.868 -0.3817 -0.3237  0.0915
  164SOPE   H4R18401   3.207   2.217   9.839 -0.4650 -0.2765  0.4071
  164SOPE   H4S18402   3.367   2.301   9.834 -0.0557 -0.5826 -0.1059
  164SOPE   C2518403   3.380   2.088   9.797  0.0256 -0.0489 -0.4503
  164SOPE   H5R18404   3.485   2.084   9.834  0.1834  1.5305 -0.6404
  164SOPE   H5S18405   3.327   1.994   9.825 -0.9549  1.0120  1.5239
  164SOPE   C2618406   3.371   2.107   9.641  0.5023 -0.4943 -0.5197
  164SOPE   H6R18407   3.260   2.106   9.638  0.4554  1.8604 -3.0812
  164SOPE   H6S18408   3.411   2.204   9.606 -3.4322  1.6671  0.3894
  164SOPE   C2718409   3.431   1.986   9.571 -0.4637 -0.7505 -0.2551
  164SOPE   H7R18410   3.539   1.989   9.597 -0.6501 -2.0011  0.7784
  164SOPE   H7S18411   3.389   1.894   9.617 -0.8407 -1.0388 -1.1513
  164SOPE   C2818412   3.403   1.990   9.417 -0.3453 -0.0069 -0.1751
  164SOPE   H8R18413   3.417   1.881   9.400 -2.8579 -0.8283  2.1296
  164SOPE   H8S18414   3.296   2.016   9.402 -0.7166 -0.2788  1.7082
  164SOPE   C2918415   3.493   2.077   9.330 -0.6151  0.8023 -0.1143
  164SOPE   H9118416   3.552   2.150   9.387  1.5712  0.6843 -2.0804
  164SOPE  C21018417   3.508   2.054   9.195 -0.0088  0.3721 -0.3903
  164SOPE  H10118418   3.581   2.111   9.135  0.0094  1.0067  0.2225
  164SOPE  C21118419   3.439   1.941   9.124  0.6055  0.0039 -0.0647
  164SOPE  H11R18420   3.447   1.967   9.017  0.5046 -0.4993 -0.1945
  164SOPE  H11S18421   3.332   1.949   9.153  0.7735  0.6280  0.4194
  164SOPE  C21218422   3.507   1.804   9.139 -0.0652  0.5245  0.0240
  164SOPE  H12R18423   3.520   1.774   9.245 -2.5693  0.7245  0.4331
  164SOPE  H12S18424   3.612   1.814   9.104 -0.2431  0.0693 -0.6514
  164SOPE  C21318425   3.440   1.682   9.072 -0.2006 -0.3020  0.0490
  164SOPE  H13R18426   3.334   1.666   9.103 -0.3794  1.3097  0.3299
  164SOPE  H13S18427   3.498   1.589   9.094 -2.7743 -2.2082 -0.7227
  164SOPE  C21418428   3.451   1.705   8.918  0.2410  0.0149 -0.2204
  164SOPE  H14R18429   3.547   1.753   8.890  0.1002  0.9241  0.7755
  164SOPE  H14S18430   3.373   1.779   8.888 -0.2115 -0.8256 -1.1730
  164SOPE  C21518431   3.425   1.588   8.820  0.7057  0.9142  0.0026
  164SOPE  H15R18432   3.405   1.623   8.717 -0.5895 -2.2697 -0.9525
  164SOPE  H15S18433   3.328   1.557   8.863 -0.8098  2.7935 -1.8653
  164SOPE  C21618434   3.527   1.480   8.809 -0.0614  0.2980  0.2834
  164SOPE  H16R18435   3.557   1.461   8.914  0.9280  2.0056  0.3498
  164SOPE  H16S18436   3.612   1.525   8.752 -1.1388  1.7470 -0.2330
  164SOPE  C21718437   3.476   1.363   8.724  0.2713 -0.1356 -0.5679
  164SOPE  H17R18438   3.482   1.393   8.617  0.4141  1.9299 -0.0308
  164SOPE  H17S18439   3.367   1.353   8.742  0.3494 -0.2074 -0.1190
  164SOPE  C21818440   3.562   1.233   8.757  0.2134 -0.1567  0.2718
  164SOPE  H18R18441   3.545   1.195   8.860 -0.6355 -2.0192 -0.5035
  164SOPE  H18S18442   3.670   1.251   8.741  0.4656 -0.6951  1.2949
  164SOPE  H18T18443   3.519   1.153   8.693 -1.9499  1.8038 -0.8699
  164SOPE   C3318444   3.314   3.072  10.376 -0.2129 -0.5469  0.4182
  164SOPE   H3X18445   3.393   3.084  10.299  0.0174 -1.6571  0.4601
  164SOPE   H3Y18446   3.372   3.088  10.469 -0.8212  0.4777  0.6388
  164SOPE   C3418447   3.221   3.194  10.367 -0.3423  0.4507 -0.2243
  164SOPE   H4X18448   3.290   3.281  10.367  1.7583 -1.1307 -1.3188
  164SOPE   H4Y18449   3.153   3.195  10.454  1.0510 -1.0162  0.9426
  164SOPE   C3518450   3.136   3.204  10.234 -0.2496  0.1584 -0.2181
  164SOPE   H5X18451   3.110   3.309  10.211 -1.1023 -0.0218 -0.1113
  164SOPE   H5Y18452   3.041   3.147  10.234 -1.1377  1.5970 -0.4490
  164SOPE   C3618453   3.214   3.148  10.116  0.7104  0.3308 -0.5757
  164SOPE   H6X18454   3.204   3.037  10.120 -1.4253  0.5050  0.2237
  164SOPE   H6Y18455   3.320   3.182  10.122  1.6212 -2.2451 -0.7016
  164SOPE   C3718456   3.153   3.199   9.981  0.0983 -0.2828  0.6103
  164SOPE   H7X18457   3.131   3.308   9.985 -0.2656 -0.2644 -1.2048
  164SOPE   H7Y18458   3.053   3.151   9.970 -0.0264  0.4019 -1.5077
  164SOPE   C3818459   3.241   3.157   9.859 -0.0477 -0.5369 -0.9169
  164SOPE   H8X18460   3.224   3.048   9.847 -3.1435 -0.2492  0.1611
  164SOPE   H8Y18461   3.348   3.168   9.887 -0.2049  0.7539 -0.7704
  164SOPE   C3918462   3.201   3.225   9.727 -0.0029  0.0192 -0.1793
  164SOPE   H9X18463   3.249   3.324   9.713 -1.6073  0.9303  0.4013
  164SOPE   H9Y18464   3.091   3.234   9.741  0.1314  0.3351  0.7106
  164SOPE  C31018465   3.221   3.124   9.612 -0.1125  0.0381  0.2243
  164SOPE  H10X18466   3.167   3.027   9.615 -1.8231  0.9279 -0.5751
  164SOPE  H10Y18467   3.328   3.093   9.615  0.5470  1.4950 -2.9721
  164SOPE  C31118468   3.178   3.181   9.480 -0.5367  0.0068  0.1904
  164SOPE  H11X18469   3.246   3.269   9.483  0.9693 -1.1283  0.2234
  164SOPE  H11Y18470   3.074   3.221   9.482 -1.5841 -2.5602  0.1530
  164SOPE  C31218471   3.203   3.102   9.351  0.0194  0.2505 -0.0537
  164SOPE  H12X18472   3.140   3.010   9.358  2.5999 -1.7163 -0.8984
  164SOPE  H12Y18473   3.307   3.063   9.346 -0.9604 -3.0365  1.7522
  164SOPE  C31318474   3.169   3.182   9.227 -0.4025 -0.2877  0.2623
  164SOPE  H13X18475   3.232   3.273   9.220  0.2020 -0.7031  0.2768
  164SOPE  H13Y18476   3.065   3.220   9.214  0.0412  1.1623  0.7404
  164SOPE  C31418477   3.201   3.102   9.101  0.6409 -0.0881  0.5211
  164SOPE  H14X18478   3.123   3.028   9.075 -1.2313  2.6619 -2.3612
  164SOPE  H14Y18479   3.302   3.056   9.107  0.8041  0.0889 -0.6690
  164SOPE  C31518480   3.195   3.192   8.976 -1.5777 -0.2712  0.3055
  164SOPE  H15X18481   3.265   3.278   8.987 -0.0542 -1.4666  0.3052
  164SOPE  H15Y18482   3.094   3.239   8.984 -0.8540  1.0134  3.0062
  164SOPE  C31618483   3.229   3.103   8.854 -0.0963 -0.6195  0.6841
  164SOPE  H16X18484   3.161   3.015   8.856 -0.7375 -0.1313  2.5649
  164SOPE  H16Y18485   3.328   3.054   8.866  0.0099 -0.8972 -1.0939
  164SOPE  C31718486   3.223   3.177   8.721 -0.4966 -0.0683 -0.5096
  164SOPE  H17X18487   3.310   3.246   8.728 -0.1073 -0.5972 -0.0556
  164SOPE  H17Y18488   3.133   3.240   8.702 -0.7151 -0.6061 -1.3187
  164SOPE  C31818489   3.235   3.088   8.596  0.4764  0.0233 -0.6047
  164SOPE  H18X18490   3.233   3.141   8.498  0.5088  0.5997 -0.2958
  164SOPE  H18Y18491   3.156   3.010   8.591 -0.4921  1.0560 -3.1103
  164SOPE  H18Z18492   3.335   3.041   8.610  0.8842  1.7160  3.7055
  165SOPE     N18493   1.808   1.481  10.880  0.2862 -0.2540  0.7750
  165SOPE   HN118494   1.772   1.390  10.913  0.2355 -1.1177 -1.5099
  165SOPE   HN218495   1.888   1.461  10.817 -0.2568 -1.7209  0.5303
  165SOPE   HN318496   1.849   1.529  10.963 -1.2905  0.9925  0.8668
  165SOPE   C1218497   1.689   1.556  10.820 -0.6842 -0.7780 -0.1249
  165SOPE  H12A18498   1.734   1.652  10.785  0.6031 -0.5670  1.9513
  165SOPE  H12B18499   1.616   1.572  10.902  1.9957 -1.3450  2.5162
  165SOPE   C1118500   1.618   1.477  10.710 -0.1589  0.3662 -0.1401
  165SOPE  H11A18501   1.522   1.523  10.679 -0.5258 -0.1308  0.2500
  165SOPE  H11B18502   1.591   1.374  10.742  1.0020  0.3376  0.8272
  165SOPE     P18503   1.670   1.351  10.479 -0.1679 -0.0711  0.1034
  165SOPE   O1318504   1.526   1.330  10.463  0.0184 -0.3166  0.4693
  165SOPE   O1418505   1.749   1.232  10.510  0.1628 -0.0161  0.0253
  165SOPE   O1218506   1.698   1.465  10.586  0.7301 -0.3920  0.3713
  165SOPE   O1118507   1.723   1.422  10.351 -0.2557  0.2943  0.0286
  165SOPE    C118508   1.843   1.507  10.353  0.3900 -0.3715 -0.8167
  165SOPE    HA18509   1.942   1.460  10.373  0.6382  0.5828  0.2827
  165SOPE    HB18510   1.826   1.593  10.421  2.4840 -0.4759 -0.0871
  165SOPE    C218511   1.874   1.556  10.213 -0.3456 -0.4806  0.6339
  165SOPE    HS18512   1.976   1.600  10.207 -0.6102  0.0372 -0.2037
  165SOPE   O2118513   1.777   1.656  10.170  0.8695  0.7085  0.3261
  165SOPE   C2118514   1.775   1.773  10.220  0.4360  0.0582  0.0822
  165SOPE   O2218515   1.850   1.820  10.303  0.1747 -0.0443 -0.0718
  165SOPE   C2218516   1.644   1.845  10.175 -0.0978 -0.2171  0.2322
  165SOPE   H2R18517   1.648   1.955  10.192  0.7317 -0.2098  0.0128
  165SOPE   H2S18518   1.577   1.817  10.260 -0.5438  1.3448  0.4371
  165SOPE    C318519   1.877   1.446  10.104 -0.3374 -0.1199 -0.0865
  165SOPE    HX18520   1.778   1.396  10.117 -0.5415  0.3555  0.1857
  165SOPE    HY18521   1.956   1.369  10.119 -0.1198  0.3952  1.4999
  165SOPE   O3118522   1.878   1.491   9.972 -0.4225  0.0119  0.0066
  165SOPE   C3118523   1.994   1.539   9.935 -0.2935  0.9312 -1.0709
  165SOPE   O3218524   2.096   1.537   9.998 -0.5287 -0.0405  0.8222
  165SOPE   C3218525   1.985   1.583   9.796  1.0855  0.1953 -0.1636
  165SOPE   H2X18526   2.091   1.591   9.764  0.4489  0.5437 -2.3995
  165SOPE   H2Y18527   1.933   1.681   9.799  0.1581 -0.1422 -2.5986
  165SOPE   C2318528   1.595   1.812  10.036 -0.1459  1.4122 -0.5075
  165SOPE   H3R18529   1.500   1.865  10.015 -0.3068  0.3287 -2.7372
  165SOPE   H3S18530   1.573   1.704  10.045 -0.4648  1.5616  0.7903
  165SOPE   C2418531   1.681   1.863   9.922 -0.1927  0.2074 -0.2054
  165SOPE   H4R18532   1.680   1.974   9.923 -0.8434  0.2667  2.9403
  165SOPE   H4S18533   1.786   1.830   9.934 -0.1718  0.0066 -0.8613
  165SOPE   C2518534   1.633   1.799   9.794  0.2071 -0.2183 -0.9543
  165SOPE   H5R18535   1.653   1.690   9.806  0.8485 -0.1056 -0.9599
  165SOPE   H5S18536   1.523   1.811   9.791  0.1735 -0.2498 -0.0836
  165SOPE   C2618537   1.693   1.862   9.671 -0.1830  0.0996  0.1620
  165SOPE   H6R18538   1.678   1.970   9.693  0.0195  0.0235  0.7092
  165SOPE   H6S18539   1.801   1.833   9.678 -0.5978 -1.5165  0.2172
  165SOPE   C2718540   1.633   1.807   9.538 -0.1289 -0.6066 -0.0709
  165SOPE   H7R18541   1.668   1.705   9.513  1.2565 -0.2392  0.2610
  165SOPE   H7S18542   1.525   1.795   9.561 -0.1579  0.9186  0.7710
  165SOPE   C2818543   1.650   1.904   9.420 -0.0099  0.4161 -0.5315
  165SOPE   H8R18544   1.590   1.997   9.435 -0.1802  0.1825  0.2606
  165SOPE   H8S18545   1.754   1.942   9.408  0.0427  0.9507  1.3014
  165SOPE   C2918546   1.592   1.856   9.289 -0.2557 -0.3537 -0.2868
  165SOPE   H9118547   1.484   1.869   9.273 -0.6676 -1.5525  1.2152
  165SOPE  C21018548   1.644   1.766   9.205  0.2191 -0.2462  0.0599
  165SOPE  H10118549   1.586   1.745   9.114 -0.9997  0.5381  0.6357
  165SOPE  C21118550   1.777   1.706   9.217  0.0521 -0.7532  0.5354
  165SOPE  H11R18551   1.762   1.596   9.208 -1.7825 -0.4875 -0.1611
  165SOPE  H11S18552   1.811   1.721   9.322  1.9407  0.7415 -0.2395
  165SOPE  C21218553   1.880   1.755   9.112 -1.0767 -0.0961 -0.1434
  165SOPE  H12R18554   1.981   1.720   9.141 -1.1711 -1.3314 -1.2020
  165SOPE  H12S18555   1.892   1.864   9.094  2.3916  0.1270  2.4667
  165SOPE  C21318556   1.850   1.692   8.974 -0.1472 -0.0919  0.5990
  165SOPE  H13R18557   1.755   1.731   8.932  0.0577 -0.5906 -0.3334
  165SOPE  H13S18558   1.832   1.589   9.012 -1.0585  0.4752  1.7633
  165SOPE  C21418559   1.969   1.698   8.886 -0.3887  0.0726  0.4613
  165SOPE  H14R18560   2.060   1.657   8.933 -0.0085  0.0834 -0.2604
  165SOPE  H14S18561   1.986   1.800   8.846  1.6629  0.0927  1.2739
  165SOPE  C21518562   1.946   1.618   8.755  0.5904 -0.2594 -0.1703
  165SOPE  H15R18563   1.843   1.642   8.720  0.1193 -2.3165 -0.2954
  165SOPE  H15S18564   1.942   1.511   8.785  1.7323 -0.4662 -0.7158
  165SOPE  C21618565   2.046   1.638   8.644 -0.0400 -0.3674  0.8651
  165SOPE  H16R18566   2.150   1.640   8.684  0.9204 -0.8095 -1.4834
  165SOPE  H16S18567   2.032   1.744   8.613  3.0312 -0.7699 -2.5918
  165SOPE  C21718568   2.028   1.560   8.518  0.2334  0.7859  0.4154
  165SOPE  H17R18569   2.106   1.603   8.451  0.6643  0.3960  0.6689
  165SOPE  H17S18570   1.932   1.583   8.466  0.8365 -1.0434 -1.6629
  165SOPE  C21818571   2.058   1.412   8.529  0.3992  0.2808  0.6359
  165SOPE  H18R18572   2.030   1.360   8.435  1.1199 -0.8945  1.0490
  165SOPE  H18S18573   1.996   1.358   8.604 -1.7843  0.7303 -0.7564
  165SOPE  H18T18574   2.167   1.391   8.532  0.3913 -0.0392 -0.7144
  165SOPE   C3318575   1.918   1.502   9.690  1.4301 -0.5687 -0.9490
  165SOPE   H3X18576   1.811   1.534   9.689  1.6306  0.2008  0.2385
  165SOPE   H3Y18577   1.907   1.400   9.734 -0.6521 -0.7119 -1.6903
  165SOPE   C3418578   1.991   1.505   9.559 -0.0217  0.0940 -0.2721
  165SOPE   H4X18579   2.086   1.449   9.572 -0.7781 -1.6432 -1.8873
  165SOPE   H4Y18580   2.008   1.614   9.545  0.6325  0.3232  1.8517
  165SOPE   C3518581   1.914   1.446   9.446  0.5416 -0.0264 -0.0704
  165SOPE   H5X18582   1.814   1.493   9.438 -0.2311 -1.0857  2.3609
  165SOPE   H5Y18583   1.884   1.342   9.472  1.9106 -0.4442 -0.0465
  165SOPE   C3618584   2.005   1.440   9.322  0.4662  0.5403  0.2367
  165SOPE   H6X18585   2.104   1.398   9.351 -0.0444 -1.3066 -0.5207
  165SOPE   H6Y18586   2.032   1.541   9.286 -0.1214  0.4583 -0.4505
  165SOPE   C3718587   1.946   1.365   9.198 -0.0695  0.2888 -0.4326
  165SOPE   H7X18588   1.854   1.418   9.167 -0.5397  0.5998  1.3463
  165SOPE   H7Y18589   1.923   1.267   9.245  1.1349  0.6504  1.0056
  165SOPE   C3818590   2.047   1.356   9.083 -0.0225  0.2889 -0.9955
  165SOPE   H8X18591   2.139   1.301   9.113 -1.6348 -0.8200  2.4227
  165SOPE   H8Y18592   2.070   1.460   9.051 -0.4798  0.3442 -1.1382
  165SOPE   C3918593   1.990   1.296   8.947 -0.8380  0.3761 -0.1649
  165SOPE   H9X18594   2.059   1.336   8.870 -0.5085  0.3019  0.0847
  165SOPE   H9Y18595   1.896   1.353   8.933 -1.0740 -0.0563 -0.3606
  165SOPE  C31018596   1.994   1.147   8.942  0.0798 -0.2604 -1.0430
  165SOPE  H10X18597   1.915   1.114   9.012  2.0664 -0.9714  0.9748
  165SOPE  H10Y18598   2.096   1.128   8.982 -0.0646  1.2251  0.1149
  165SOPE  C31118599   1.977   1.086   8.797  0.2829  1.0025  0.4249
  165SOPE  H11X18600   2.051   1.115   8.719 -1.9650  0.5029 -2.0488
  165SOPE  H11Y18601   1.885   1.122   8.748  0.6013  0.8535 -0.2942
  165SOPE  C31218602   1.984   0.930   8.799 -0.6072 -0.2160  0.3187
  165SOPE  H12X18603   1.879   0.896   8.815 -0.9750  0.1177 -1.2223
  165SOPE  H12Y18604   2.047   0.887   8.880  1.0639  1.1694 -0.1857
  165SOPE  C31318605   2.031   0.873   8.657 -0.0125 -0.1207  0.2780
  165SOPE  H13X18606   2.139   0.895   8.643 -0.6142  1.8270 -2.2912
  165SOPE  H13Y18607   1.974   0.919   8.572  1.6679  0.2012 -0.7117
  165SOPE  C31418608   2.010   0.723   8.655 -0.5998 -0.0927 -0.4316
  165SOPE  H14X18609   1.902   0.700   8.654 -0.9150  1.1366  1.0503
  165SOPE  H14Y18610   2.055   0.697   8.753 -0.1534  2.2369  0.0580
  165SOPE  C31518611   2.094   0.647   8.541  0.2455 -0.5559 -0.4468
  165SOPE  H15X18612   2.069   0.693   8.443  1.6466 -1.2504 -1.1613
  165SOPE  H15Y18613   2.063   0.540   8.535  0.7118 -0.7259  0.0907
  165SOPE  C31618614   2.245   0.641   8.576  0.2262  0.3287 -0.6805
  165SOPE  H16X18615   2.239   0.619   8.685 -1.7912 -0.3928 -0.8783
  165SOPE  H16Y18616   2.294   0.737   8.550  1.5560  0.0771  0.7349
  165SOPE  C31718617   2.329   0.531   8.520 -0.1045  0.1798 -0.2238
  165SOPE  H17X18618   2.301   0.529   8.412  1.3944  0.4493 -0.6423
  165SOPE  H17Y18619   2.314   0.432   8.568  0.1830 -0.5686 -1.6099
  165SOPE  C31818620   2.476   0.567   8.524  0.3000  0.3363 -0.5073
  165SOPE  H18X18621   2.502   0.640   8.444  3.0759  0.5151  0.4495
  165SOPE  H18Y18622   2.534   0.480   8.487 -1.4990 -1.1525  0.0106
  165SOPE  H18Z18623   2.519   0.611   8.617 -0.2156 -1.5117  0.6510
  166SOPE     N18624   2.244   4.407  10.876 -0.1532  0.5057 -0.2423
  166SOPE   HN118625   2.270   4.465  10.794 -0.6480 -1.5934 -1.9816
  166SOPE   HN218626   2.333   4.382  10.924 -0.3497  0.4781  0.1119
  166SOPE   HN318627   2.191   4.322  10.848 -0.4606  0.6628 -0.1446
  166SOPE   C1218628   2.155   4.496  10.966 -0.3127  0.1365 -0.5408
  166SOPE  H12A18629   2.214   4.585  10.995 -1.1961  0.1899  1.1965
  166SOPE  H12B18630   2.139   4.445  11.063 -3.7881 -1.3085 -1.6831
  166SOPE   C1118631   2.024   4.545  10.907  0.3511  0.1343 -0.3871
  166SOPE  H11A18632   1.999   4.635  10.968  2.1820  1.0846 -0.9618
  166SOPE  H11B18633   1.953   4.463  10.929  0.7526  0.3768  2.1365
  166SOPE     P18634   1.959   4.691  10.710  0.0944 -0.3047  0.1089
  166SOPE   O1318635   2.003   4.809  10.788  0.4550 -0.1118  0.2018
  166SOPE   O1418636   1.819   4.655  10.704 -0.1371 -0.4154 -0.3351
  166SOPE   O1218637   2.040   4.576  10.772  0.4336 -0.4450 -0.1308
  166SOPE   O1118638   2.000   4.717  10.560  0.2864  0.3475 -0.2277
  166SOPE    C118639   2.133   4.682  10.533  0.0617  1.1209 -0.2021
  166SOPE    HA18640   2.171   4.585  10.571 -1.5188  0.9879  1.1435
  166SOPE    HB18641   2.210   4.756  10.565 -0.3535  0.5588  2.2971
  166SOPE    C218642   2.168   4.681  10.376  0.3662  0.3102 -0.5645
  166SOPE    HS18643   2.279   4.685  10.369  0.4234  1.0741  0.5724
  166SOPE   O2118644   2.106   4.797  10.332 -0.4959  0.0917 -0.0518
  166SOPE   C2118645   2.175   4.908  10.326  0.0683  0.1184  0.5676
  166SOPE   O2218646   2.290   4.922  10.368 -0.3167 -0.3714  0.3113
  166SOPE   C2218647   2.092   5.021  10.260 -0.2486  0.2387 -0.0876
  166SOPE   H2R18648   2.045   5.080  10.342  0.6155 -1.3046  1.5887
  166SOPE   H2S18649   2.022   4.978  10.185  2.5758 -2.2451 -1.5093
  166SOPE    C318650   2.106   4.555  10.317  0.4693  0.1902 -0.7342
  166SOPE    HX18651   2.002   4.558  10.354  1.1355  3.7903  1.3999
  166SOPE    HY18652   2.158   4.469  10.363 -0.0334 -0.1827 -0.8671
  166SOPE   O3118653   2.113   4.552  10.177  0.1171  0.9219  0.1905
  166SOPE   C3118654   2.221   4.503  10.115  0.1219  0.3536  0.9806
  166SOPE   O3218655   2.332   4.474  10.163 -0.7558 -0.0388 -0.0637
  166SOPE   C3218656   2.185   4.489   9.965  0.2552  0.5780  0.3718
  166SOPE   H2X18657   2.253   4.563   9.918  0.4963  2.1819  2.9998
  166SOPE   H2Y18658   2.081   4.522   9.946 -0.2247 -1.6391 -1.2153
  166SOPE   C2318659   2.178   5.095  10.163 -0.7526 -0.3616  0.5227
  166SOPE   H3R18660   2.284   5.107  10.194 -0.6651 -0.6672  0.3473
  166SOPE   H3S18661   2.143   5.200  10.161  2.1019  0.7400  2.1255
  166SOPE   C2418662   2.168   5.052  10.017  0.5812  0.1355  0.2209
  166SOPE   H4R18663   2.210   4.950  10.029 -2.3950 -1.0570  1.3414
  166SOPE   H4S18664   2.061   5.034   9.994  0.1887  1.2274  1.1296
  166SOPE   C2518665   2.239   5.130   9.912 -1.2083 -0.4248 -0.3157
  166SOPE   H5R18666   2.183   5.226   9.919 -1.4305 -0.5314 -0.6517
  166SOPE   H5S18667   2.343   5.165   9.935 -1.3804  0.5842 -1.0295
  166SOPE   C2618668   2.223   5.072   9.774  0.1969  0.2781  0.4378
  166SOPE   H6R18669   2.120   5.089   9.735  0.0630  0.0317  0.6810
  166SOPE   H6S18670   2.300   5.128   9.717  0.1586  0.2145  0.3243
  166SOPE   C2718671   2.259   4.924   9.749 -0.0078  0.2444 -0.2096
  166SOPE   H7R18672   2.369   4.914   9.763 -0.2405  0.6679  2.3667
  166SOPE   H7S18673   2.199   4.864   9.819  0.7643  1.7694  1.8599
  166SOPE   C2818674   2.225   4.899   9.603 -0.0969  0.2618 -0.2152
  166SOPE   H8R18675   2.121   4.928   9.575  0.1237 -0.4230 -1.9176
  166SOPE   H8S18676   2.295   4.966   9.547  1.3614  1.0896  2.4408
  166SOPE   C2918677   2.250   4.750   9.582 -0.2432  0.2226  0.0155
  166SOPE   H9118678   2.218   4.694   9.671 -3.0923  1.6209 -0.0089
  166SOPE  C21018679   2.284   4.684   9.473 -0.0927  0.9468 -0.1288
  166SOPE  H10118680   2.304   4.576   9.480 -1.5402  0.7374  1.2427
  166SOPE  C21118681   2.324   4.749   9.346 -0.5421  0.8754 -0.6105
  166SOPE  H11R18682   2.291   4.854   9.337 -0.0204  1.0562 -0.4765
  166SOPE  H11S18683   2.285   4.691   9.260 -1.1228 -2.0710  1.4500
  166SOPE  C21218684   2.484   4.751   9.331  0.0921 -0.9486 -0.0850
  166SOPE  H12R18685   2.530   4.650   9.334 -0.0228 -0.9914  2.1594
  166SOPE  H12S18686   2.527   4.801   9.420 -0.0480 -2.3944  0.8336
  166SOPE  C21318687   2.515   4.826   9.204  0.5120  0.7908  0.6852
  166SOPE  H13R18688   2.474   4.928   9.218 -1.2177 -0.1746  3.2888
  166SOPE  H13S18689   2.457   4.777   9.122  0.8525 -0.4051  1.1395
  166SOPE  C21418690   2.662   4.819   9.173  0.5233  0.3418  1.2824
  166SOPE  H14R18691   2.706   4.718   9.187 -0.0930  0.1173  1.6251
  166SOPE  H14S18692   2.710   4.888   9.246  1.1279  2.2067 -0.7658
  166SOPE  C21518693   2.705   4.871   9.030  0.2014  0.7659  0.0543
  166SOPE  H15R18694   2.655   4.968   9.010  0.8467  1.3469  1.1674
  166SOPE  H15S18695   2.669   4.795   8.957  2.2165 -0.6074  0.4066
  166SOPE  C21618696   2.855   4.880   9.011  0.6070 -0.4187  0.6380
  166SOPE  H16R18697   2.903   4.780   9.013  1.3538 -0.0992 -0.2703
  166SOPE  H16S18698   2.889   4.925   9.106  0.1848 -2.1014  1.6327
  166SOPE  C21718699   2.891   4.957   8.888 -0.4879 -0.0133  0.5038
  166SOPE  H17R18700   2.840   5.055   8.889  1.3976  1.0098  1.5968
  166SOPE  H17S18701   2.838   4.900   8.808 -0.1291  0.9706 -0.4582
  166SOPE  C21818702   3.039   4.972   8.842 -0.7777 -0.1752  0.2020
  166SOPE  H18R18703   3.106   5.013   8.921  0.1708  0.4723 -0.9262
  166SOPE  H18S18704   3.042   5.048   8.762  2.0920  0.0747  0.4507
  166SOPE  H18T18705   3.082   4.887   8.786  3.8917  4.1928 -3.7857
  166SOPE   C3318706   2.198   4.345   9.915  0.1693  0.1344 -0.1945
  166SOPE   H3X18707   2.117   4.280   9.954 -1.5620  2.8770  1.1250
  166SOPE   H3Y18708   2.297   4.304   9.944 -0.2164 -0.7235 -0.0764
  166SOPE   C3418709   2.195   4.336   9.759  0.4918 -0.0175 -0.5457
  166SOPE   H4X18710   2.226   4.231   9.742 -1.1595 -0.6606  0.1873
  166SOPE   H4Y18711   2.261   4.417   9.720  0.1278  0.5128 -0.0812
  166SOPE   C3518712   2.055   4.338   9.702  0.3444  0.5653  0.5910
  166SOPE   H5X18713   2.005   4.436   9.714  0.3939  0.8016 -1.0100
  166SOPE   H5Y18714   2.000   4.272   9.774  1.3525 -0.3279  0.5809
  166SOPE   C3618715   2.064   4.267   9.563  0.7303 -0.0858  0.1421
  166SOPE   H6X18716   1.962   4.237   9.532  1.0571 -2.2241  0.9852
  166SOPE   H6Y18717   2.133   4.179   9.567  2.8294  1.2005 -3.0912
  166SOPE   C3718718   2.124   4.356   9.457 -0.5971 -0.0505 -0.2937
  166SOPE   H7X18719   2.234   4.352   9.470 -0.4403 -1.7167 -1.8228
  166SOPE   H7Y18720   2.090   4.459   9.482  0.4054 -0.0032  0.9983
  166SOPE   C3818721   2.073   4.331   9.314 -0.3197 -0.0174  0.4746
  166SOPE   H8X18722   1.966   4.356   9.306 -0.5042 -1.1192 -1.0524
  166SOPE   H8Y18723   2.083   4.220   9.303  1.2424  0.1347  0.1203
  166SOPE   C3918724   2.152   4.399   9.202  0.3621 -0.1987 -0.9967
  166SOPE   H9X18725   2.262   4.393   9.211  0.3179 -0.8681 -0.8405
  166SOPE   H9Y18726   2.120   4.506   9.203 -1.3362 -0.6256  1.8625
  166SOPE  C31018727   2.110   4.341   9.072  0.0538  0.3609  0.3866
  166SOPE  H10X18728   2.000   4.323   9.074  0.4018 -2.1550  0.3657
  166SOPE  H10Y18729   2.161   4.243   9.060 -0.3524  0.3362 -1.3021
  166SOPE  C31118730   2.146   4.430   8.953  0.8501  0.1832  0.0243
  166SOPE  H11X18731   2.256   4.418   8.953  0.7272 -1.1831 -0.8391
  166SOPE  H11Y18732   2.114   4.535   8.967  1.0187  0.0449  1.6470
  166SOPE  C31218733   2.074   4.370   8.825 -0.2200 -0.2086  0.0821
  166SOPE  H12X18734   1.964   4.357   8.830 -0.2096 -0.1942  0.3478
  166SOPE  H12Y18735   2.105   4.264   8.812  0.0673 -0.1731  0.4598
  166SOPE  C31318736   2.113   4.435   8.687  0.2100 -1.0125  0.2250
  166SOPE  H13X18737   2.110   4.367   8.600  0.6639 -0.9962  0.1936
  166SOPE  H13Y18738   2.219   4.469   8.695  0.2257 -1.1287  0.5569
  166SOPE  C31418739   2.047   4.567   8.655 -0.6529 -0.2872 -0.0444
  166SOPE  H14X18740   2.035   4.631   8.745 -0.0914  1.6887 -1.3231
  166SOPE  H14Y18741   1.943   4.534   8.634 -0.2646 -2.3196  0.8832
  166SOPE  C31518742   2.104   4.665   8.545 -0.1082  0.1340 -0.0351
  166SOPE  H15X18743   2.132   4.609   8.454  1.4954  1.5197 -0.4475
  166SOPE  H15Y18744   2.200   4.700   8.588 -0.6038  2.0866 -0.4242
  166SOPE  C31618745   2.014   4.781   8.510 -0.1096  0.2299  0.3048
  166SOPE  H16X18746   2.023   4.849   8.597 -0.3602 -0.9983  1.3137
  166SOPE  H16Y18747   1.909   4.746   8.513  0.3763 -1.4530 -0.7363
  166SOPE  C31718748   2.032   4.862   8.381 -0.3467  0.3381  0.0741
  166SOPE  H17X18749   2.032   4.793   8.294 -2.2626 -0.5938  0.7342
  166SOPE  H17Y18750   2.127   4.918   8.382  0.1577 -0.4721 -0.6904
  166SOPE  C31818751   1.921   4.970   8.372 -0.6774  0.4907 -0.2716
  166SOPE  H18X18752   1.943   5.024   8.277 -1.6717 -0.5638 -1.1400
  166SOPE  H18Y18753   1.920   5.034   8.463 -2.9096  0.2994 -0.0979
  166SOPE  H18Z18754   1.820   4.930   8.347 -0.2463 -0.0473 -1.2307
  167SOPE     N18755   4.235   1.737   6.032 -0.0470  0.0915 -0.3917
  167SOPE   HN118756   4.322   1.709   5.982 -0.1631  0.1286 -0.6157
  167SOPE   HN218757   4.156   1.689   5.986 -0.3916 -0.5782  0.8578
  167SOPE   HN318758   4.221   1.840   6.031  1.0142  0.2953  1.5838
  167SOPE   C1218759   4.241   1.685   6.174  0.5133  0.3171 -0.2861
  167SOPE  H12A18760   4.189   1.587   6.178 -0.4903  0.8622  1.0557
  167SOPE  H12B18761   4.190   1.762   6.237  0.9725 -0.4636  1.0737
  167SOPE   C1118762   4.386   1.682   6.237  1.5844  0.0223  0.5420
  167SOPE  H11A18763   4.368   1.670   6.346 -0.8094 -3.4204 -0.0702
  167SOPE  H11B18764   4.446   1.772   6.211  0.1875  0.6405 -0.7248
  167SOPE     P18765   4.547   1.559   6.063 -0.2571 -0.3179 -0.3719
  167SOPE   O1318766   4.471   1.608   5.947 -0.6031 -0.6443  0.1894
  167SOPE   O1418767   4.583   1.417   6.054 -0.0723  0.3388  0.0845
  167SOPE   O1218768   4.453   1.566   6.188 -0.9398  0.0112 -0.0838
  167SOPE   O1118769   4.677   1.644   6.090 -0.3241 -0.5898  0.1234
  167SOPE    C118770   4.764   1.616   6.195  0.2449  0.2931 -0.5229
  167SOPE    HA18771   4.865   1.651   6.165 -0.8482  3.4301 -0.9621
  167SOPE    HB18772   4.777   1.508   6.217 -0.5553  0.4084  0.6077
  167SOPE    C218773   4.716   1.673   6.336 -0.1573 -0.7010  0.4733
  167SOPE    HS18774   4.623   1.622   6.369  0.6212 -0.8843  2.5613
  167SOPE   O2118775   4.699   1.820   6.324 -0.8360  0.3169  0.2025
  167SOPE   C2118776   4.619   1.880   6.411  0.1290 -0.0203  0.2146
  167SOPE   O2218777   4.548   1.822   6.492 -0.1248  0.1922 -0.1684
  167SOPE   C2218778   4.654   2.031   6.415  0.8234  0.0663  0.4203
  167SOPE   H2R18779   4.652   2.076   6.313 -0.5949  1.2714  0.9534
  167SOPE   H2S18780   4.760   2.033   6.447  1.2436  1.1454 -0.9158
  167SOPE    C318781   4.813   1.632   6.451  0.0960  0.7107 -0.1885
  167SOPE    HX18782   4.914   1.659   6.414  1.2591 -0.8071  1.6960
  167SOPE    HY18783   4.806   1.521   6.463  0.5877  0.5290 -1.3928
  167SOPE   O3118784   4.792   1.711   6.572 -0.1013  0.5422 -0.0320
  167SOPE   C3118785   4.710   1.646   6.663 -1.2786 -1.0315 -0.0511
  167SOPE   O3218786   4.658   1.538   6.644 -0.2093  0.1689 -0.1247
  167SOPE   C3218787   4.690   1.719   6.790  0.8254 -0.4889  0.9132
  167SOPE   H2X18788   4.643   1.816   6.761 -1.5423 -1.5789  0.8439
  167SOPE   H2Y18789   4.782   1.743   6.846 -0.6036  2.4115  2.2702
  167SOPE   C2318790   4.553   2.109   6.504  0.1748 -0.1104 -0.2875
  167SOPE   H3R18791   4.456   2.053   6.504  0.9838 -1.5680  0.1254
  167SOPE   H3S18792   4.538   2.213   6.468 -0.8143 -0.3548 -0.6106
  167SOPE   C2418793   4.613   2.123   6.647  0.5994 -0.3609 -0.3608
  167SOPE   H4R18794   4.647   2.022   6.676  1.3434 -0.3146 -1.0382
  167SOPE   H4S18795   4.687   2.206   6.651 -0.5693  0.6698  1.2533
  167SOPE   C2518796   4.500   2.147   6.749  0.2029 -0.9825 -0.4308
  167SOPE   H5R18797   4.538   2.167   6.852 -0.2762  0.3198 -0.4829
  167SOPE   H5S18798   4.430   2.229   6.722 -0.3092  0.0577  3.4124
  167SOPE   C2618799   4.413   2.030   6.783  0.3173  0.1876 -0.2052
  167SOPE   H6R18800   4.377   1.983   6.689 -3.4467  1.2551  0.5381
  167SOPE   H6S18801   4.475   1.951   6.831  0.6967  0.3348 -0.4470
  167SOPE   C2718802   4.293   2.059   6.876  0.5238 -0.3054  0.0214
  167SOPE   H7R18803   4.330   2.110   6.967  1.8236 -1.6171  0.2695
  167SOPE   H7S18804   4.228   2.136   6.828  0.1700 -1.3004 -1.1393
  167SOPE   C2818805   4.225   1.932   6.915 -0.4816  0.2896  0.1825
  167SOPE   H8R18806   4.202   1.876   6.822  3.6680  1.1744 -1.6410
  167SOPE   H8S18807   4.298   1.861   6.960 -1.5218 -0.4303  0.7682
  167SOPE   C2918808   4.110   1.963   7.010 -0.2770 -0.2181 -0.3216
  167SOPE   H9118809   4.019   1.979   6.952  0.3777 -2.0864 -1.9655
  167SOPE  C21018810   4.121   1.973   7.144  0.1904  0.3881 -0.3085
  167SOPE  H10118811   4.025   1.987   7.196 -0.2206  1.6639 -1.3580
  167SOPE  C21118812   4.241   1.951   7.235 -1.0039 -0.0265 -0.1778
  167SOPE  H11R18813   4.272   2.051   7.275  1.7459 -0.9133  0.1586
  167SOPE  H11S18814   4.334   1.923   7.181  0.7718 -0.9854  3.1044
  167SOPE  C21218815   4.237   1.854   7.354  0.0149 -0.4929 -0.2415
  167SOPE  H12R18816   4.338   1.835   7.396 -0.2839  0.2123  0.8365
  167SOPE  H12S18817   4.188   1.763   7.313 -1.4789  0.7986 -1.4378
  167SOPE  C21318818   4.152   1.918   7.471 -0.2412 -0.0748 -0.3030
  167SOPE  H13R18819   4.054   1.947   7.429  0.1215  1.3655 -0.1970
  167SOPE  H13S18820   4.208   2.004   7.512 -0.7258  0.7526 -1.3462
  167SOPE  C21418821   4.125   1.818   7.577  0.6054 -0.2504 -0.1909
  167SOPE  H14R18822   4.223   1.791   7.622  0.4183 -1.0314 -0.2327
  167SOPE  H14S18823   4.077   1.725   7.538 -2.5314  0.1027  2.4128
  167SOPE  C21518824   4.033   1.868   7.687  0.2270 -0.6058  0.1022
  167SOPE  H15R18825   3.927   1.886   7.660 -0.4654  0.4150  3.1217
  167SOPE  H15S18826   4.067   1.963   7.733  0.1939 -1.4214  1.9083
  167SOPE  C21618827   4.031   1.765   7.802  0.5070  0.6635  0.6709
  167SOPE  H16R18828   4.131   1.725   7.829 -0.6256 -1.3143  2.1897
  167SOPE  H16S18829   3.970   1.682   7.762  0.0692  1.5299 -0.5368
  167SOPE  C21718830   3.955   1.808   7.926 -0.0665 -0.3051 -0.4174
  167SOPE  H17R18831   3.938   1.726   7.998 -2.1109  0.4560  0.0642
  167SOPE  H17S18832   3.857   1.861   7.918 -0.1552 -0.1400  1.2622
  167SOPE  C21818833   4.030   1.901   8.024 -0.1117 -0.5630  0.2437
  167SOPE  H18R18834   3.981   1.906   8.124 -1.6375 -0.3740 -0.4735
  167SOPE  H18S18835   4.036   2.002   7.978 -0.9391 -1.2275 -1.3693
  167SOPE  H18T18836   4.135   1.866   8.031  0.8175  2.0397  0.2784
  167SOPE   C3318837   4.585   1.654   6.885  0.3515  0.5043  0.2162
  167SOPE   H3X18838   4.500   1.624   6.819  1.2138 -1.4086 -0.0692
  167SOPE   H3Y18839   4.542   1.733   6.950 -1.3967  0.7184 -1.0992
  167SOPE   C3418840   4.637   1.535   6.959 -0.1493  0.4280 -0.4786
  167SOPE   H4X18841   4.748   1.540   6.965 -0.2159  2.0677  0.1344
  167SOPE   H4Y18842   4.603   1.448   6.901  0.6954 -0.5587  0.4529
  167SOPE   C3518843   4.592   1.518   7.108 -0.5838  0.0372  0.0896
  167SOPE   H5X18844   4.613   1.412   7.133  2.5821  0.9752  2.0595
  167SOPE   H5Y18845   4.481   1.527   7.109 -0.5579  0.2937  0.7408
  167SOPE   C3618846   4.658   1.611   7.206 -0.4080 -0.0451 -0.3326
  167SOPE   H6X18847   4.690   1.710   7.164 -0.0619 -0.5919 -1.4050
  167SOPE   H6Y18848   4.749   1.566   7.250 -1.2949 -2.0164 -0.4454
  167SOPE   C3718849   4.567   1.663   7.323  0.3035 -0.0180 -0.5172
  167SOPE   H7X18850   4.465   1.646   7.282  0.8969 -0.2394 -1.9575
  167SOPE   H7Y18851   4.586   1.772   7.329 -1.6360  0.4151 -1.2782
  167SOPE   C3818852   4.572   1.571   7.448  0.3343 -0.4695 -0.5631
  167SOPE   H8X18853   4.672   1.570   7.495  1.1310 -2.8430 -2.1602
  167SOPE   H8Y18854   4.556   1.468   7.411 -4.0191  0.4999 -1.9392
  167SOPE   C3918855   4.467   1.616   7.549 -0.0091  0.5498  0.2279
  167SOPE   H9X18856   4.368   1.597   7.503  0.1775  0.5216 -0.1749
  167SOPE   H9Y18857   4.475   1.725   7.568  0.7635  0.7092 -0.8855
  167SOPE  C31018858   4.478   1.535   7.682  0.1958  0.2889  0.1077
  167SOPE  H10X18859   4.582   1.546   7.719 -0.4826  0.5341  2.0459
  167SOPE  H10Y18860   4.458   1.426   7.666  1.3118  0.2072 -0.9323
  167SOPE  C31118861   4.387   1.596   7.785 -0.5333  0.2497 -0.3662
  167SOPE  H11X18862   4.285   1.553   7.770 -1.3258  1.4513  1.3164
  167SOPE  H11Y18863   4.379   1.706   7.773 -1.5573  0.1882 -0.4076
  167SOPE  C31218864   4.433   1.571   7.929  0.2579  0.7718  0.6911
  167SOPE  H12X18865   4.528   1.628   7.932  0.8224 -0.2086  1.4888
  167SOPE  H12Y18866   4.463   1.468   7.955  1.8709  0.9470 -0.3508
  167SOPE  C31318867   4.325   1.614   8.025  0.3031  0.4373 -0.1430
  167SOPE  H13X18868   4.225   1.575   7.995  0.0185  1.2917 -0.3405
  167SOPE  H13Y18869   4.315   1.724   8.025  2.4203  0.6691  0.5092
  167SOPE  C31418870   4.369   1.566   8.163 -0.2238 -0.0705  0.0983
  167SOPE  H14X18871   4.479   1.581   8.164 -0.4056  1.5674 -0.6763
  167SOPE  H14Y18872   4.355   1.456   8.170 -0.3461 -0.1118 -0.6708
  167SOPE  C31518873   4.296   1.613   8.285  0.4592 -0.0400  0.2966
  167SOPE  H15X18874   4.303   1.721   8.310  1.9302 -0.7797  3.7380
  167SOPE  H15Y18875   4.344   1.566   8.374  1.8667  1.0590  0.1335
  167SOPE  C31618876   4.145   1.583   8.277  1.1237  0.6034 -0.4971
  167SOPE  H16X18877   4.138   1.481   8.234 -0.8106  0.8652 -0.9225
  167SOPE  H16Y18878   4.090   1.634   8.194 -0.6183 -1.1344 -0.4755
  167SOPE  C31718879   4.051   1.580   8.411  0.6715 -0.3734 -0.1744
  167SOPE  H17X18880   4.071   1.665   8.479 -2.8593  1.4768 -1.1924
  167SOPE  H17Y18881   4.073   1.487   8.466 -0.1400 -0.9769 -0.8476
  167SOPE  C31818882   3.896   1.580   8.391  0.3514  0.4241  0.7125
  167SOPE  H18X18883   3.866   1.660   8.320 -3.9358 -1.5906 -0.0761
  167SOPE  H18Y18884   3.834   1.581   8.484  0.8452  0.3430  1.0435
  167SOPE  H18Z18885   3.870   1.487   8.336  0.9963 -0.0988  1.2763
  168SOPE     N18886   2.264   0.262   6.057  0.1927 -0.2956 -0.2009
  168SOPE   HN118887   2.366   0.243   6.067  0.2109 -1.1954 -1.8240
  168SOPE   HN218888   2.222   0.202   6.131  0.2243 -2.4818 -1.8530
  168SOPE   HN318889   2.242   0.232   5.960  0.5779 -1.2281 -0.0126
  168SOPE   C1218890   2.231   0.401   6.075  0.8835 -0.1681 -0.0282
  168SOPE  H12A18891   2.122   0.413   6.056  1.0149  1.2757 -0.0216
  168SOPE  H12B18892   2.275   0.453   5.987  0.3135  0.5514  0.1025
  168SOPE   C1118893   2.281   0.465   6.201 -0.3257  0.0874  0.3785
  168SOPE  H11A18894   2.213   0.439   6.285  0.5135 -2.0408  0.4581
  168SOPE  H11B18895   2.272   0.574   6.181  1.1785  0.0847 -0.4385
  168SOPE     P18896   2.518   0.508   6.308  0.0240 -0.1518 -0.0779
  168SOPE   O1318897   2.599   0.578   6.209  0.2471  0.1127  0.2669
  168SOPE   O1418898   2.589   0.413   6.392  0.4733  0.5297 -0.3282
  168SOPE   O1218899   2.413   0.419   6.237 -0.0202  0.0960 -0.1723
  168SOPE   O1118900   2.432   0.615   6.389  0.3668  0.1841 -0.7482
  168SOPE    C118901   2.507   0.719   6.449 -1.0828 -0.6452  0.3553
  168SOPE    HA18902   2.432   0.793   6.486 -1.2612 -1.4028  1.5848
  168SOPE    HB18903   2.571   0.771   6.375 -0.9729 -1.0214  0.1819
  168SOPE    C218904   2.602   0.674   6.567 -0.3221  0.2226 -0.3222
  168SOPE    HS18905   2.693   0.625   6.528  0.7657  1.6039  0.3876
  168SOPE   O2118906   2.525   0.597   6.664 -0.1256 -0.2128 -0.1929
  168SOPE   C2118907   2.589   0.506   6.723  0.0640  0.0251 -0.4192
  168SOPE   O2218908   2.711   0.492   6.717 -0.0284 -0.6650 -0.0238
  168SOPE   C2218909   2.500   0.411   6.793 -0.1414  0.2107  0.0970
  168SOPE   H2R18910   2.481   0.322   6.730  1.0886 -2.2832  2.9548
  168SOPE   H2S18911   2.407   0.459   6.830 -0.7454 -1.5352  0.9601
  168SOPE    C318912   2.647   0.807   6.632  0.1013  0.4293  0.9037
  168SOPE    HX18913   2.561   0.869   6.665  0.3753 -0.2891  3.1863
  168SOPE    HY18914   2.691   0.882   6.563  0.8556  2.1038  3.0557
  168SOPE   O3118915   2.734   0.792   6.751  0.9134  0.0625 -0.3153
  168SOPE   C3118916   2.858   0.767   6.717 -0.2081  0.2930 -0.3740
  168SOPE   O3218917   2.902   0.776   6.605 -0.1599 -0.3596 -0.0161
  168SOPE   C3218918   2.934   0.723   6.840 -0.3352  0.0357 -0.0738
  168SOPE   H2X18919   2.885   0.624   6.856  0.5430 -0.7248 -1.8041
  168SOPE   H2Y18920   2.914   0.788   6.927 -3.1592 -1.4575  0.5332
  168SOPE   C2318921   2.563   0.342   6.913 -0.8749  0.2059 -0.3388
  168SOPE   H3R18922   2.592   0.418   6.989 -1.0149 -0.5408  0.4774
  168SOPE   H3S18923   2.654   0.284   6.888  0.3873  2.8162 -2.1700
  168SOPE   C2418924   2.465   0.234   6.969 -0.1216 -0.0561 -0.2927
  168SOPE   H4R18925   2.387   0.275   7.036 -0.7833  0.5705 -1.4318
  168SOPE   H4S18926   2.413   0.182   6.886 -0.0275 -2.9310  1.3128
  168SOPE   C2518927   2.534   0.113   7.036  0.2542 -0.3721  0.2413
  168SOPE   H5R18928   2.458   0.055   7.094 -1.2938  1.6013  0.2740
  168SOPE   H5S18929   2.574   0.042   6.961 -0.8732 -1.0135  0.2332
  168SOPE   C2618930   2.635   0.153   7.147  0.1227 -0.0533  0.3763
  168SOPE   H6R18931   2.719   0.200   7.091  1.3594 -0.8924  1.4542
  168SOPE   H6S18932   2.583   0.234   7.202 -0.7764  0.5827 -1.3269
  168SOPE   C2718933   2.668   0.027   7.228 -0.4248  0.3467 -0.2437
  168SOPE   H7R18934   2.581  -0.039   7.246 -0.1624  0.2364  0.6363
  168SOPE   H7S18935   2.733  -0.027   7.155  0.2590  0.4823  0.2479
  168SOPE   C2818936   2.727   0.054   7.364  0.4173 -0.8765  0.1455
  168SOPE   H8R18937   2.786   0.148   7.358  0.5343 -0.9925 -0.7366
  168SOPE   H8S18938   2.651   0.079   7.441  1.7696  2.2060  0.6192
  168SOPE   C2918939   2.823  -0.051   7.418  0.7580 -0.0343 -0.2260
  168SOPE   H9118940   2.891  -0.081   7.337  0.7216 -1.0724  0.1056
  168SOPE  C21018941   2.822  -0.109   7.542 -0.3424 -0.7711  0.2326
  168SOPE  H10118942   2.912  -0.169   7.563  1.0225  0.2180 -2.3644
  168SOPE  C21118943   2.729  -0.081   7.652  0.1633  0.1733 -0.7944
  168SOPE  H11R18944   2.644  -0.148   7.626 -1.5189  1.7549  0.3171
  168SOPE  H11S18945   2.689   0.023   7.651  0.1874  0.2353  1.0853
  168SOPE  C21218946   2.782  -0.101   7.798 -0.1834  0.4417  0.2150
  168SOPE  H12R18947   2.866  -0.031   7.818 -0.9848  1.8176 -1.0682
  168SOPE  H12S18948   2.825  -0.203   7.810  1.3087  0.8588 -1.3259
  168SOPE  C21318949   2.673  -0.083   7.905 -0.1199  0.0655  0.2561
  168SOPE  H13R18950   2.603  -0.163   7.874  3.0802 -3.1706  0.7206
  168SOPE  H13S18951   2.626   0.017   7.886  0.5016  0.2620 -0.3160
  168SOPE  C21418952   2.733  -0.093   8.048  0.3115 -0.2731 -0.0841
  168SOPE  H14R18953   2.772  -0.194   8.073  0.8415 -0.2248 -0.6869
  168SOPE  H14S18954   2.645  -0.066   8.111  1.2980  3.0186  0.1033
  168SOPE  C21518955   2.840   0.014   8.089 -0.6850 -0.1272 -0.2600
  168SOPE  H15R18956   2.784   0.108   8.073 -1.3860 -0.8054 -1.9637
  168SOPE  H15S18957   2.922   0.010   8.014 -2.5634 -0.8488 -2.3877
  168SOPE  C21618958   2.893  -0.007   8.231  0.2066 -0.2114 -0.1369
  168SOPE  H16R18959   2.961  -0.095   8.235  0.9786  0.3901  0.1420
  168SOPE  H16S18960   2.810  -0.017   8.305  0.0212 -0.5515 -0.3848
  168SOPE  C21718961   2.971   0.121   8.268  0.4229  1.0676  0.0524
  168SOPE  H17R18962   2.937   0.197   8.194  0.2183  0.1505 -0.8173
  168SOPE  H17S18963   3.077   0.108   8.236  0.2184  1.5426 -0.8513
  168SOPE  C21818964   2.945   0.163   8.412 -0.9210  0.2274  0.1943
  168SOPE  H18R18965   2.996   0.090   8.479 -0.6619  0.0516 -0.1895
  168SOPE  H18S18966   2.841   0.190   8.438 -0.4667  2.3789 -0.0708
  168SOPE  H18T18967   3.007   0.254   8.428  0.9918 -0.4044 -2.8480
  168SOPE   C3318968   3.083   0.704   6.814 -0.1709  0.2754  0.2897
  168SOPE   H3X18969   3.133   0.796   6.776  1.8919 -0.8069  0.2423
  168SOPE   H3Y18970   3.096   0.636   6.728 -0.8378  2.7797 -1.9440
  168SOPE   C3418971   3.174   0.661   6.931  0.3170 -0.5264 -0.2221
  168SOPE   H4X18972   3.134   0.565   6.970 -1.4991  1.1132  2.2848
  168SOPE   H4Y18973   3.165   0.738   7.010  4.4333 -1.2332  1.2107
  168SOPE   C3518974   3.328   0.651   6.893  0.5172  0.3507 -0.1456
  168SOPE   H5X18975   3.350   0.744   6.837  1.9839  0.5832  0.7848
  168SOPE   H5Y18976   3.336   0.557   6.834  0.3782 -0.2667  0.7993
  168SOPE   C3618977   3.421   0.655   7.013  0.9242  0.0437  0.3935
  168SOPE   H6X18978   3.404   0.750   7.069 -0.4155 -0.5599  1.0667
  168SOPE   H6Y18979   3.522   0.653   6.969 -0.1995 -2.0052 -2.3550
  168SOPE   C3718980   3.398   0.532   7.097  0.8921 -0.0913 -0.5613
  168SOPE   H7X18981   3.435   0.443   7.041  4.1827  0.9434 -0.2128
  168SOPE   H7Y18982   3.291   0.509   7.115  1.5294 -2.1467  0.9969
  168SOPE   C3818983   3.466   0.549   7.229 -0.0208 -0.1965 -0.2011
  168SOPE   H8X18984   3.437   0.649   7.268  1.5328  0.6651 -1.1660
  168SOPE   H8Y18985   3.575   0.532   7.217 -0.3588 -1.6011 -1.4526
  168SOPE   C3918986   3.411   0.458   7.334 -0.3858  0.9451 -0.4207
  168SOPE   H9X18987   3.424   0.358   7.289 -0.8859  1.8816 -2.7544
  168SOPE   H9Y18988   3.303   0.479   7.347 -0.4091  0.3840  0.3732
  168SOPE  C31018989   3.483   0.473   7.463  0.2309 -0.3396  0.2081
  168SOPE  H10X18990   3.450   0.568   7.510  2.3840  0.2960  0.5417
  168SOPE  H10Y18991   3.592   0.476   7.445  0.2066  2.4660  0.2125
  168SOPE  C31118992   3.456   0.359   7.564  0.3391  0.3539  0.1330
  168SOPE  H11X18993   3.483   0.268   7.506 -0.2416 -0.2016  0.7253
  168SOPE  H11Y18994   3.346   0.351   7.578  0.1989  0.3469 -0.8618
  168SOPE  C31218995   3.534   0.371   7.695 -0.0532 -0.4699  0.5202
  168SOPE  H12X18996   3.637   0.393   7.660 -0.7816  0.7253 -0.9768
  168SOPE  H12Y18997   3.535   0.284   7.764  0.9545 -0.9473 -0.0608
  168SOPE  C31318998   3.492   0.490   7.789 -0.2132  0.0517  0.2025
  168SOPE  H13X18999   3.393   0.464   7.832 -1.1394  1.1106 -1.1769
  168SOPE  H13Y19000   3.470   0.573   7.718 -2.8719 -2.3396 -2.0062
  168SOPE  C31419001   3.584   0.532   7.906  0.0982  0.1501 -0.1478
  168SOPE  H14X19002   3.684   0.566   7.872  0.1824 -0.3241 -0.3681
  168SOPE  H14Y19003   3.610   0.441   7.962 -0.0570  0.6835  0.8048
  168SOPE  C31519004   3.508   0.635   8.000 -0.1791 -0.3583  0.8251
  168SOPE  H15X19005   3.411   0.595   8.035 -1.4869  0.2635 -1.8356
  168SOPE  H15Y19006   3.469   0.722   7.944 -3.3533 -1.3606  1.3074
  168SOPE  C31619007   3.593   0.676   8.128  0.2416 -0.3886 -0.1271
  168SOPE  H16X19008   3.683   0.732   8.095  0.3821 -0.6033 -0.1072
  168SOPE  H16Y19009   3.634   0.586   8.177 -0.2409  0.3535  1.7207
  168SOPE  C31719010   3.522   0.759   8.236  0.2636 -0.1577 -0.3838
  168SOPE  H17X19011   3.587   0.794   8.318  0.1290 -0.6935 -0.0393
  168SOPE  H17Y19012   3.457   0.681   8.282  0.5187 -0.7997 -1.0838
  168SOPE  C31819013   3.434   0.874   8.188 -0.1677 -0.0886  0.5200
  168SOPE  H18X19014   3.428   0.930   8.284  0.4003 -0.3362  0.7057
  168SOPE  H18Y19015   3.335   0.838   8.153  0.4158 -0.1375 -1.1391
  168SOPE  H18Z19016   3.492   0.938   8.119  1.1432 -1.9470 -0.2056
  169SOPE     N19017   4.088   6.823   6.192  0.3981  0.1242  0.4161
  169SOPE   HN119018   4.029   6.872   6.262 -0.0090 -0.8797  0.7972
  169SOPE   HN219019   4.179   6.790   6.233 -0.0243 -1.4327  0.1744
  169SOPE   HN319020   4.104   6.883   6.109  0.9821  0.3939  0.7089
  169SOPE   C1219021   4.030   6.685   6.167 -0.2455 -0.7906  0.8118
  169SOPE  H12A19022   4.065   6.650   6.067 -1.9272 -0.7533  0.1667
  169SOPE  H12B19023   3.920   6.693   6.151  0.0470 -1.8578 -2.7245
  169SOPE   C1119024   4.057   6.586   6.279 -0.3769  0.1838  0.8150
  169SOPE  H11A19025   4.067   6.643   6.374 -1.2856  0.3710  0.8022
  169SOPE  H11B19026   4.157   6.537   6.269 -0.2378  0.7452 -0.9724
  169SOPE     P19027   3.857   6.460   6.395 -0.1389  0.2348  0.1993
  169SOPE   O1319028   3.785   6.329   6.385 -0.5913 -0.1052  0.0510
  169SOPE   O1419029   3.773   6.580   6.401 -0.3405 -0.1133  0.2420
  169SOPE   O1219030   3.965   6.473   6.279  0.5828 -0.1487 -0.4076
  169SOPE   O1119031   3.940   6.469   6.521 -0.5117  0.1878 -0.0294
  169SOPE    C119032   4.051   6.383   6.551 -0.1047  0.2530  0.6659
  169SOPE    HA19033   4.136   6.450   6.577 -0.6653  1.5418 -0.6610
  169SOPE    HB19034   4.084   6.323   6.464 -0.1993 -1.6083  1.8707
  169SOPE    C219035   4.023   6.284   6.674  0.0445 -0.0800 -0.3783
  169SOPE    HS19036   3.937   6.214   6.663 -0.6866  0.6144  0.7179
  169SOPE   O2119037   4.009   6.370   6.790  0.4211  0.4011  0.5798
  169SOPE   C2119038   3.884   6.364   6.849 -0.3513 -0.4027 -0.1724
  169SOPE   O2219039   3.787   6.305   6.806 -0.1694  0.1740 -0.4037
  169SOPE   C2219040   3.901   6.423   6.990 -0.0754  0.0575  0.7820
  169SOPE   H2R19041   3.813   6.488   7.009  0.2548  0.2505  1.6921
  169SOPE   H2S19042   3.990   6.488   6.993 -0.3795  0.8742 -2.9936
  169SOPE    C319043   4.158   6.216   6.695  0.3077  0.5064 -0.3678
  169SOPE    HX19044   4.235   6.289   6.727  0.7967 -0.1997  0.1179
  169SOPE    HY19045   4.189   6.176   6.596  0.5734  0.5989 -0.3226
  169SOPE   O3119046   4.150   6.121   6.801 -0.1956  0.0922  0.3984
  169SOPE   C3119047   4.250   6.032   6.808  0.1541 -0.0882 -0.0291
  169SOPE   O3219048   4.346   6.033   6.731 -0.1767 -0.0378 -0.0895
  169SOPE   C3219049   4.249   5.946   6.931  0.1142 -0.1029  0.8024
  169SOPE   H2X19050   4.141   5.929   6.951  0.0168  1.5899  1.9134
  169SOPE   H2Y19051   4.295   6.009   7.011 -1.7707  2.1902  0.1921
  169SOPE   C2319052   3.913   6.314   7.107 -0.4483  0.0960  0.5465
  169SOPE   H3R19053   4.007   6.255   7.097 -0.2898  0.6010 -1.1145
  169SOPE   H3S19054   3.830   6.240   7.107  0.5816 -1.0921  0.5426
  169SOPE   C2419055   3.928   6.384   7.244  0.6868  0.6087 -1.0812
  169SOPE   H4R19056   3.985   6.478   7.232  1.1267  0.2073 -2.3361
  169SOPE   H4S19057   3.826   6.409   7.279  1.1860  2.0184 -0.5889
  169SOPE   C2519058   3.983   6.291   7.353 -0.4989 -0.3885  0.2861
  169SOPE   H5R19059   3.912   6.207   7.368  0.0923 -0.4423  3.4006
  169SOPE   H5S19060   4.078   6.246   7.318  0.6152 -0.2222  2.9189
  169SOPE   C2619061   4.003   6.358   7.488  0.2490  0.4862 -0.2488
  169SOPE   H6R19062   4.093   6.422   7.488 -0.0067  0.8679  0.9690
  169SOPE   H6S19063   3.917   6.426   7.508 -2.1698 -2.0065 -1.4345
  169SOPE   C2719064   4.015   6.257   7.601  0.1708 -0.2110  0.3979
  169SOPE   H7R19065   3.909   6.231   7.618 -0.2600  0.8898 -0.4776
  169SOPE   H7S19066   4.066   6.163   7.570 -0.5488 -0.9281  1.3349
  169SOPE   C2819067   4.073   6.318   7.728 -0.1929  0.0811  0.4127
  169SOPE   H8R19068   4.081   6.230   7.796 -0.5857 -0.6347 -0.4435
  169SOPE   H8S19069   4.174   6.343   7.690 -1.4818  2.0780 -1.9793
  169SOPE   C2919070   4.020   6.447   7.785 -0.0121 -0.0130 -0.5371
  169SOPE   H9119071   3.980   6.517   7.710 -2.6067 -2.0203 -1.2039
  169SOPE  C21019072   4.033   6.481   7.914 -0.4201 -0.1505 -0.3181
  169SOPE  H10119073   3.972   6.566   7.948  1.2712  1.5730 -1.3870
  169SOPE  C21119074   4.097   6.394   8.013 -0.3440  0.1476  0.0140
  169SOPE  H11R19075   4.173   6.329   7.963  1.1453  1.3057  0.6972
  169SOPE  H11S19076   4.023   6.328   8.063  0.9100 -0.8249  0.6441
  169SOPE  C21219077   4.183   6.464   8.124  0.1989  0.4047  0.1094
  169SOPE  H12R19078   4.266   6.524   8.081  1.9306 -1.7981  0.1603
  169SOPE  H12S19079   4.231   6.380   8.180 -1.1169 -1.7887 -1.8442
  169SOPE  C21319080   4.094   6.541   8.224  0.4096 -0.4238 -0.2004
  169SOPE  H13R19081   4.007   6.475   8.247 -0.3357  0.7359  0.3815
  169SOPE  H13S19082   4.058   6.634   8.175  2.1249  1.4946  1.9583
  169SOPE  C21419083   4.153   6.574   8.359 -0.8381 -0.0620 -0.4329
  169SOPE  H14R19084   4.250   6.618   8.325 -0.3602 -1.7087 -1.3405
  169SOPE  H14S19085   4.162   6.481   8.419  1.5852  0.7093  0.5321
  169SOPE  C21519086   4.063   6.673   8.438  0.4560  0.0728  0.1178
  169SOPE  H15R19087   3.959   6.634   8.452  0.1396  0.8173 -0.1189
  169SOPE  H15S19088   4.050   6.769   8.384  2.5204  0.7746  0.7925
  169SOPE  C21619089   4.134   6.698   8.569  0.7238  0.7802  0.5693
  169SOPE  H16R19090   4.234   6.746   8.561  1.6774 -0.7630  2.4464
  169SOPE  H16S19091   4.138   6.597   8.615 -1.5355 -0.1142 -0.9945
  169SOPE  C21719092   4.064   6.790   8.664  0.1648 -0.0050  0.1248
  169SOPE  H17R19093   3.987   6.717   8.697 -0.5095  0.0068 -1.3287
  169SOPE  H17S19094   4.017   6.882   8.623  0.9597  0.2898 -0.1396
  169SOPE  C21819095   4.148   6.845   8.786 -0.2139  0.2909 -0.2504
  169SOPE  H18R19096   4.220   6.924   8.756 -0.5770  0.0452 -1.8211
  169SOPE  H18S19097   4.202   6.755   8.821 -0.9690 -1.1990 -2.6711
  169SOPE  H18T19098   4.093   6.879   8.877 -1.1652 -0.0821 -0.6717
  169SOPE   C3319099   4.292   5.801   6.915 -0.0638 -0.3482  0.0957
  169SOPE   H3X19100   4.294   5.777   6.806 -2.7493  1.5242 -0.4718
  169SOPE   H3Y19101   4.228   5.730   6.971  0.1007 -1.5011 -1.1224
  169SOPE   C3419102   4.437   5.771   6.987 -0.5662  0.5915  0.1994
  169SOPE   H4X19103   4.502   5.855   6.954 -0.9990  0.4096 -1.1893
  169SOPE   H4Y19104   4.477   5.675   6.946 -1.4895  0.3314 -0.1103
  169SOPE   C3519105   4.435   5.763   7.142 -0.2551 -0.4988 -0.2909
  169SOPE   H5X19106   4.336   5.725   7.174  0.5268 -0.6623  2.1581
  169SOPE   H5Y19107   4.450   5.865   7.184  0.7058  0.2535 -2.3313
  169SOPE   C3619108   4.531   5.659   7.188  0.7226  0.1507 -0.1963
  169SOPE   H6X19109   4.636   5.694   7.189  0.9084 -0.3475 -1.0020
  169SOPE   H6Y19110   4.523   5.559   7.138  1.5510  0.4096 -0.8752
  169SOPE   C3719111   4.510   5.623   7.334 -0.4298  0.0961 -0.5116
  169SOPE   H7X19112   4.407   5.581   7.343 -0.0236 -1.0231 -1.0203
  169SOPE   H7Y19113   4.517   5.718   7.393  0.9739 -0.0713 -0.3803
  169SOPE   C3819114   4.613   5.517   7.388 -0.0623 -0.0866  0.0249
  169SOPE   H8X19115   4.633   5.443   7.308  3.0806 -0.2764  0.8330
  169SOPE   H8Y19116   4.709   5.575   7.385 -0.0591 -0.0492 -3.2791
  169SOPE   C3919117   4.567   5.459   7.520 -0.2238 -0.1005 -0.5513
  169SOPE   H9X19118   4.467   5.413   7.509 -0.8093  1.1686 -0.6935
  169SOPE   H9Y19119   4.551   5.544   7.589 -0.6278 -0.2274 -0.4854
  169SOPE  C31019120   4.660   5.356   7.592 -0.4187  0.4821 -0.8464
  169SOPE  H10X19121   4.761   5.400   7.606  1.2235 -2.7594 -1.4865
  169SOPE  H10Y19122   4.674   5.264   7.530 -1.2501 -0.8304  0.8307
  169SOPE  C31119123   4.600   5.313   7.721  0.2933  0.5627 -0.2419
  169SOPE  H11X19124   4.527   5.232   7.699 -0.1097  1.0813 -0.8524
  169SOPE  H11Y19125   4.548   5.389   7.783 -1.6450 -1.4160  0.7002
  169SOPE  C31219126   4.693   5.244   7.821 -0.5298 -0.6789  0.7951
  169SOPE  H12X19127   4.759   5.174   7.766 -0.8603 -2.3944  2.4704
  169SOPE  H12Y19128   4.640   5.181   7.896  1.1324 -1.1058  1.6758
  169SOPE  C31319129   4.779   5.337   7.915  0.1572  0.3070 -0.1489
  169SOPE  H13X19130   4.818   5.419   7.851 -2.3593  2.4412  0.8056
  169SOPE  H13Y19131   4.869   5.284   7.951 -0.0252 -0.4661 -0.7981
  169SOPE  C31419132   4.696   5.395   8.027  0.2950  0.6935 -0.0825
  169SOPE  H14X19133   4.642   5.315   8.083  1.9344 -2.3756 -2.5775
  169SOPE  H14Y19134   4.616   5.452   7.973  0.8655  1.6417  0.0523
  169SOPE  C31519135   4.774   5.484   8.121  0.2389 -0.2835  0.1118
  169SOPE  H15X19136   4.711   5.536   8.196  1.2149  0.8829  0.1491
  169SOPE  H15Y19137   4.810   5.562   8.051 -2.5626 -0.7299 -1.9845
  169SOPE  C31619138   4.890   5.415   8.192 -0.7576 -0.6307 -0.6521
  169SOPE  H16X19139   4.984   5.427   8.134 -0.6689  0.8421 -0.2581
  169SOPE  H16Y19140   4.857   5.309   8.199 -1.0264 -0.5235 -0.2668
  169SOPE  C31719141   4.915   5.477   8.325  0.6073 -0.1940  0.1372
  169SOPE  H17X19142   4.831   5.459   8.395  1.8077  0.0894  1.6903
  169SOPE  H17Y19143   4.916   5.588   8.321  0.0832 -0.2194 -1.2685
  169SOPE  C31819144   5.042   5.424   8.390  0.1798  0.1312 -0.2381
  169SOPE  H18X19145   5.076   5.469   8.485 -1.6311  1.4807 -0.1735
  169SOPE  H18Y19146   5.126   5.420   8.317 -0.8434 -0.4871 -1.4263
  169SOPE  H18Z19147   5.014   5.318   8.405 -0.1443  0.3355  0.5975
  170SOPE     N19148   0.422   3.952   6.141  0.5162 -0.2013  0.3697
  170SOPE   HN119149   0.374   3.881   6.083  0.3168  0.4986 -0.3397
  170SOPE   HN219150   0.446   3.894   6.224 -3.6933 -1.9131  0.6167
  170SOPE   HN319151   0.347   4.021   6.163  1.1340  0.5969  0.0018
  170SOPE   C1219152   0.543   4.022   6.074  0.0524  0.0831  0.3223
  170SOPE  H12A19153   0.508   4.099   6.002  2.7606  1.0219 -0.0903
  170SOPE  H12B19154   0.583   3.939   6.011 -0.6166 -0.9923  1.2656
  170SOPE   C1119155   0.631   4.094   6.169 -0.0627 -0.4761 -0.3187
  170SOPE  H11A19156   0.590   4.193   6.197  0.5766 -0.6805  1.5057
  170SOPE  H11B19157   0.723   4.113   6.110  0.8900 -0.1949  1.2009
  170SOPE     P19158   0.794   3.992   6.347  0.1410 -0.0093  0.4673
  170SOPE   O1319159   0.862   4.123   6.373  0.1613 -0.4808  0.5173
  170SOPE   O1419160   0.861   3.902   6.252  0.3649 -0.0377  0.7830
  170SOPE   O1219161   0.651   4.022   6.292 -0.0046  0.1015 -0.0554
  170SOPE   O1119162   0.762   3.915   6.476 -0.0275 -0.5836 -0.2770
  170SOPE    C119163   0.658   3.972   6.555 -0.7212  0.5994  0.2881
  170SOPE    HA19164   0.555   3.967   6.514 -1.7326 -1.3966  2.7498
  170SOPE    HB19165   0.684   4.073   6.594 -0.2149  0.0325  1.4992
  170SOPE    C219166   0.626   3.882   6.683 -0.4834 -0.2540  0.9257
  170SOPE    HS19167   0.563   3.948   6.746 -1.2951  1.3977 -1.4723
  170SOPE   O2119168   0.750   3.851   6.756 -0.6345  0.2965 -0.3876
  170SOPE   C2119169   0.791   3.951   6.832 -0.1368  0.2058 -0.0895
  170SOPE   O2219170   0.732   4.057   6.852  0.3786  0.2277  0.5308
  170SOPE   C2219171   0.909   3.905   6.914 -0.1787 -0.2256  0.2939
  170SOPE   H2R19172   0.985   3.856   6.851 -0.6312  1.3459 -1.5588
  170SOPE   H2S19173   0.872   3.826   6.984 -1.0775  1.3205  1.6454
  170SOPE    C319174   0.547   3.755   6.641 -0.7054 -0.7208 -0.1166
  170SOPE    HX19175   0.608   3.699   6.567 -0.0969  1.1507 -1.0955
  170SOPE    HY19176   0.457   3.798   6.592  0.8612  1.8483 -0.9179
  170SOPE   O3119177   0.522   3.670   6.752  0.4213 -0.3251  0.6748
  170SOPE   C3119178   0.415   3.700   6.823 -0.0300 -0.0713  0.1454
  170SOPE   O3219179   0.327   3.770   6.777  0.3415  0.0647 -0.3466
  170SOPE   C3219180   0.414   3.631   6.954 -0.4597 -0.3809  0.6992
  170SOPE   H2X19181   0.459   3.532   6.932  0.5420  0.3320 -0.6230
  170SOPE   H2Y19182   0.311   3.632   6.996 -0.5293 -1.4895  0.5838
  170SOPE   C2319183   0.969   4.022   7.000  0.3174 -0.0627  0.1251
  170SOPE   H3R19184   0.881   4.064   7.054 -0.1226  0.6149 -1.0912
  170SOPE   H3S19185   1.007   4.101   6.932  2.1010  0.7186  1.9111
  170SOPE   C2419186   1.087   3.967   7.081 -0.2150 -0.1053  0.2106
  170SOPE   H4R19187   1.131   3.882   7.026 -4.2313 -2.7561  0.6394
  170SOPE   H4S19188   1.164   4.045   7.101  0.6789 -0.6213 -1.1275
  170SOPE   C2519189   1.037   3.919   7.219 -0.5626  0.6003  0.0746
  170SOPE   H5R19190   1.011   4.013   7.274  2.2837  2.2287 -1.1633
  170SOPE   H5S19191   0.953   3.847   7.206  0.3646 -0.5818  0.4570
  170SOPE   C2619192   1.152   3.843   7.293 -0.1989 -0.2662 -0.0658
  170SOPE   H6R19193   1.202   3.774   7.221  1.2696 -0.1318  0.7883
  170SOPE   H6S19194   1.240   3.904   7.322  0.9560 -3.0259  2.7825
  170SOPE   C2719195   1.107   3.772   7.423  0.0809  0.1064 -0.1567
  170SOPE   H7R19196   1.021   3.703   7.406 -0.3552  1.0928 -2.3718
  170SOPE   H7S19197   1.197   3.711   7.445  0.7724  0.3407 -2.1015
  170SOPE   C2819198   1.076   3.868   7.532  0.7485  0.1025  0.0394
  170SOPE   H8R19199   1.163   3.931   7.563 -0.3866  2.2291 -0.8811
  170SOPE   H8S19200   0.991   3.936   7.511 -0.0888 -1.1493 -0.7655
  170SOPE   C2919201   1.045   3.786   7.654  0.2579 -0.1823 -0.0635
  170SOPE   H9119202   1.062   3.679   7.632  0.4903 -0.2558  0.4681
  170SOPE  C21019203   0.996   3.834   7.768 -0.1974  0.1476  0.2885
  170SOPE  H10119204   0.967   3.759   7.842  0.3063  0.6928  1.0614
  170SOPE  C21119205   0.965   3.986   7.789 -0.3255 -0.2183 -0.0177
  170SOPE  H11R19206   0.859   3.984   7.825 -0.3515 -2.9711 -0.1023
  170SOPE  H11S19207   0.966   4.049   7.697  0.4745 -1.1083 -0.6335
  170SOPE  C21219208   1.063   4.051   7.894  0.1032  0.3168  1.0963
  170SOPE  H12R19209   1.165   4.036   7.852  1.0478 -2.5087  3.9514
  170SOPE  H12S19210   1.056   4.011   7.997  1.3134 -0.2361  0.9817
  170SOPE  C21319211   1.037   4.193   7.908 -0.2820 -0.2021 -0.0747
  170SOPE  H13R19212   0.932   4.205   7.943 -0.1696 -0.0069  0.1893
  170SOPE  H13S19213   1.054   4.244   7.810  1.3257 -0.6262 -0.0472
  170SOPE  C21419214   1.149   4.245   8.009  0.1731  0.3728 -0.5286
  170SOPE  H14R19215   1.187   4.339   7.963 -1.9625  1.3446 -0.4279
  170SOPE  H14S19216   1.236   4.176   8.014 -0.8320 -0.9753 -1.3012
  170SOPE  C21519217   1.101   4.281   8.152  0.8337  0.1385  0.0574
  170SOPE  H15R19218   1.040   4.371   8.130  0.8793 -0.2576 -1.8994
  170SOPE  H15S19219   1.182   4.323   8.216  0.8669  1.6549 -0.9250
  170SOPE  C21619220   1.019   4.176   8.214  0.7456 -0.4819 -0.4393
  170SOPE  H16R19221   1.086   4.089   8.232 -0.5013 -0.8951  3.2048
  170SOPE  H16S19222   0.946   4.136   8.141 -0.9929  1.4318  0.1535
  170SOPE  C21719223   0.949   4.207   8.344  0.0797  0.4266  0.5518
  170SOPE  H17R19224   0.877   4.291   8.331 -0.5375  0.0161  1.1953
  170SOPE  H17S19225   1.022   4.262   8.407 -0.3091  2.4083 -0.6443
  170SOPE  C21819226   0.882   4.087   8.412 -0.3366  0.3532 -0.4665
  170SOPE  H18R19227   0.960   4.012   8.437  1.9313  2.3083 -1.3519
  170SOPE  H18S19228   0.809   4.039   8.343 -0.1153  1.5290 -1.5618
  170SOPE  H18T19229   0.817   4.120   8.496 -0.2563  2.0002 -1.0233
  170SOPE   C3319230   0.515   3.704   7.044  0.4537  0.2869 -1.0853
  170SOPE   H3X19231   0.494   3.812   7.054  2.0098  0.7326 -2.3030
  170SOPE   H3Y19232   0.619   3.688   7.008  0.8902 -1.7484  0.8043
  170SOPE   C3419233   0.510   3.637   7.186 -0.4996 -0.5596 -0.0337
  170SOPE   H4X19234   0.540   3.531   7.173  4.7447  0.6337 -0.1628
  170SOPE   H4Y19235   0.406   3.635   7.225  0.4763  0.6026  2.9203
  170SOPE   C3519236   0.593   3.696   7.292  0.2735  0.1803  0.0720
  170SOPE   H5X19237   0.692   3.713   7.245 -0.9341 -0.8966 -3.1453
  170SOPE   H5Y19238   0.605   3.617   7.369 -1.4908 -0.5075 -0.3092
  170SOPE   C3619239   0.531   3.823   7.345 -1.0381 -0.3490  0.0142
  170SOPE   H6X19240   0.430   3.792   7.379 -1.0499 -0.7767 -0.4119
  170SOPE   H6Y19241   0.533   3.909   7.275  0.9522 -1.6660 -1.6298
  170SOPE   C3719242   0.611   3.871   7.470 -0.2127 -0.1122 -0.9076
  170SOPE   H7X19243   0.713   3.902   7.439  0.2883  0.5948  1.3134
  170SOPE   H7Y19244   0.641   3.788   7.538 -1.9275  0.0383  0.0932
  170SOPE   C3819245   0.546   3.988   7.549  0.3744 -0.0165  0.1822
  170SOPE   H8X19246   0.462   3.946   7.609  1.8610 -1.6724  1.2077
  170SOPE   H8Y19247   0.515   4.077   7.491  0.8839  0.4678  0.6395
  170SOPE   C3919248   0.631   4.040   7.663 -0.3135  0.7431 -0.1025
  170SOPE   H9X19249   0.732   4.068   7.625 -0.0163 -0.0148  0.1012
  170SOPE   H9Y19250   0.650   3.957   7.735 -0.3281  0.2989 -0.6019
  170SOPE  C31019251   0.573   4.150   7.751  0.0276  1.0848 -0.2247
  170SOPE  H10X19252   0.479   4.126   7.804  0.1056  2.4216  0.5759
  170SOPE  H10Y19253   0.539   4.230   7.681 -0.9827  2.5529  1.8539
  170SOPE  C31119254   0.679   4.211   7.841  0.8395 -0.0423 -0.4427
  170SOPE  H11X19255   0.782   4.210   7.799  0.7335 -0.5980 -0.6948
  170SOPE  H11Y19256   0.687   4.147   7.932  0.1923  0.2527 -0.1793
  170SOPE  C31219257   0.644   4.353   7.882  0.6321  0.2009  0.0970
  170SOPE  H12X19258   0.541   4.370   7.919  1.0429  0.9156  0.9288
  170SOPE  H12Y19259   0.646   4.412   7.788  0.1872 -2.3157 -1.5912
  170SOPE  C31319260   0.742   4.414   7.982  0.0052  0.2666  0.0136
  170SOPE  H13X19261   0.816   4.476   7.926 -0.4362  0.3980 -0.4366
  170SOPE  H13Y19262   0.791   4.324   8.024 -0.6903  0.2779  0.8764
  170SOPE  C31419263   0.682   4.501   8.096  0.2475  0.1930  0.0220
  170SOPE  H14X19264   0.605   4.561   8.044 -0.0070  2.2927  2.5858
  170SOPE  H14Y19265   0.764   4.556   8.147  0.3064 -1.3233  1.6501
  170SOPE  C31519266   0.610   4.416   8.206 -0.3748  0.2138  0.1540
  170SOPE  H15X19267   0.675   4.341   8.257 -2.4653 -1.3047  0.7723
  170SOPE  H15Y19268   0.525   4.364   8.157  0.5678  0.3757 -1.7472
  170SOPE  C31619269   0.558   4.510   8.321 -0.1416 -0.4153 -0.0195
  170SOPE  H16X19270   0.489   4.589   8.286 -1.6378 -1.7203 -0.1085
  170SOPE  H16Y19271   0.646   4.557   8.371 -1.1226  0.8645  0.5591
  170SOPE  C31719272   0.492   4.432   8.438  0.0003  0.2950 -0.0648
  170SOPE  H17X19273   0.447   4.336   8.403 -1.0982  0.4456  0.8584
  170SOPE  H17Y19274   0.404   4.494   8.469 -1.7075 -1.2628 -1.5507
  170SOPE  C31819275   0.585   4.405   8.553  0.6284 -0.2009 -0.2069
  170SOPE  H18X19276   0.674   4.344   8.527  0.0846 -1.5794  1.0091
  170SOPE  H18Y19277   0.535   4.352   8.637  0.7301 -2.3524 -1.4178
  170SOPE  H18Z19278   0.607   4.507   8.590 -1.7958  0.2265  0.2508
  171SOPE     N19279   4.447   6.647   5.783 -0.5586  0.4173 -0.0285
  171SOPE   HN119280   4.372   6.590   5.826 -1.7783  2.1339  0.2561
  171SOPE   HN219281   4.406   6.676   5.692 -3.1095  1.7912  1.4414
  171SOPE   HN319282   4.533   6.591   5.768  0.0151  1.0103  0.9146
  171SOPE   C1219283   4.461   6.773   5.857  0.5667 -0.3555 -0.3918
  171SOPE  H12A19284   4.360   6.816   5.870 -0.2859 -1.8589 -1.7216
  171SOPE  H12B19285   4.525   6.847   5.803 -0.2084  0.9213  0.3738
  171SOPE   C1119286   4.532   6.747   5.995 -0.6028 -0.2557 -0.0668
  171SOPE  H11A19287   4.561   6.847   6.034  1.8900 -0.2592 -1.6612
  171SOPE  H11B19288   4.622   6.689   5.963  1.5367  3.0773 -0.5615
  171SOPE     P19289   4.445   6.666   6.233 -0.1061  0.3127 -0.0316
  171SOPE   O1319290   4.462   6.527   6.279 -0.2331 -0.2394  0.2763
  171SOPE   O1419291   4.321   6.735   6.276 -0.0251  0.0812  0.1865
  171SOPE   O1219292   4.453   6.667   6.066  0.2369 -0.2529 -0.8458
  171SOPE   O1119293   4.563   6.757   6.266  0.0451  0.0104 -0.4275
  171SOPE    C119294   4.634   6.753   6.393  0.3756  0.1685  0.4430
  171SOPE    HA19295   4.744   6.766   6.391  0.6217 -0.5599  3.6445
  171SOPE    HB19296   4.623   6.652   6.438 -0.3052 -1.5674 -3.2667
  171SOPE    C219297   4.593   6.861   6.497 -0.3242  0.4643  0.4300
  171SOPE    HS19298   4.653   6.850   6.590  1.5927 -0.1672 -0.8229
  171SOPE   O2119299   4.450   6.844   6.515  0.1741  0.1544 -0.5971
  171SOPE   C2119300   4.412   6.741   6.586  0.2329  0.0434 -0.1883
  171SOPE   O2219301   4.472   6.644   6.620 -1.0874 -0.3211  0.5735
  171SOPE   C2219302   4.266   6.762   6.601  0.2520  0.0722  0.0820
  171SOPE   H2R19303   4.214   6.702   6.524  0.1189  3.4999 -2.7316
  171SOPE   H2S19304   4.236   6.869   6.595  0.3429  0.4042  3.3417
  171SOPE    C319305   4.619   7.005   6.442  0.8731  0.2605 -0.0563
  171SOPE    HX19306   4.543   7.029   6.363  1.1300  0.4389 -0.2528
  171SOPE    HY19307   4.723   7.011   6.403  1.1359 -1.3155  0.3409
  171SOPE   O3119308   4.589   7.112   6.541  0.0711  0.1620 -0.6246
  171SOPE   C3119309   4.687   7.135   6.629  0.7045 -0.0342  0.3181
  171SOPE   O3219310   4.794   7.082   6.628  0.6392  0.0098 -0.0053
  171SOPE   C3219311   4.629   7.228   6.734 -0.1901 -0.4206 -0.0020
  171SOPE   H2X19312   4.520   7.213   6.748 -0.0962  0.2660  1.6971
  171SOPE   H2Y19313   4.653   7.332   6.704 -2.0331  0.4100  1.2421
  171SOPE   C2319314   4.206   6.724   6.742  0.1664 -0.6296  0.1817
  171SOPE   H3R19315   4.231   6.617   6.761  1.7993 -0.3936 -0.4781
  171SOPE   H3S19316   4.099   6.753   6.740  0.4078  0.3131  0.8275
  171SOPE   C2419317   4.262   6.800   6.864 -0.0570  0.5341  0.1986
  171SOPE   H4R19318   4.373   6.800   6.870  0.0630 -1.0774 -1.2322
  171SOPE   H4S19319   4.239   6.908   6.846 -0.4066  0.0475 -2.8303
  171SOPE   C2519320   4.223   6.736   6.997  0.0207 -0.4033 -0.6290
  171SOPE   H5R19321   4.112   6.735   6.997  0.0196 -0.8411  0.0272
  171SOPE   H5S19322   4.239   6.627   7.008 -1.0612 -0.4579  0.6262
  171SOPE   C2619323   4.276   6.794   7.125  0.4964  0.1667  0.0995
  171SOPE   H6R19324   4.385   6.788   7.147  0.4353 -2.0970  0.0112
  171SOPE   H6S19325   4.251   6.902   7.125 -0.4781 -0.0364 -1.1012
  171SOPE   C2719326   4.219   6.715   7.247 -0.5792 -0.4052  0.4423
  171SOPE   H7R19327   4.181   6.615   7.218 -0.1157 -0.4614  0.0266
  171SOPE   H7S19328   4.296   6.696   7.324 -2.2611  1.9789  2.9419
  171SOPE   C2819329   4.120   6.797   7.322 -0.0655  0.0367 -0.3854
  171SOPE   H8R19330   4.153   6.901   7.340  0.8463 -0.7915  3.6334
  171SOPE   H8S19331   4.023   6.813   7.270  0.0590  2.4494  0.0150
  171SOPE   C2919332   4.089   6.735   7.453 -0.3700  0.2583  0.2363
  171SOPE   H9119333   4.067   6.628   7.446 -0.6186  0.3619 -0.6338
  171SOPE  C21019334   4.088   6.792   7.577  0.3958  0.5878  0.0583
  171SOPE  H10119335   4.057   6.724   7.659 -0.4234 -0.5716 -1.1715
  171SOPE  C21119336   4.114   6.934   7.612  0.4053  0.4085  0.2764
  171SOPE  H11R19337   4.031   6.988   7.663 -0.6655 -0.4320 -0.5141
  171SOPE  H11S19338   4.130   7.001   7.525  0.1070  1.2062  0.8159
  171SOPE  C21219339   4.246   6.956   7.693 -0.3896  0.0347 -0.6220
  171SOPE  H12R19340   4.267   7.064   7.708  1.5939 -0.5292  1.3054
  171SOPE  H12S19341   4.332   6.906   7.644 -0.0467 -1.4448  1.3384
  171SOPE  C21319342   4.248   6.902   7.838  0.5323 -0.1228 -0.5068
  171SOPE  H13R19343   4.216   6.796   7.827 -2.3773  0.6923 -0.8255
  171SOPE  H13S19344   4.179   6.962   7.900  0.7134 -1.0118  0.5878
  171SOPE  C21419345   4.381   6.903   7.915  0.0041  0.0101 -0.4980
  171SOPE  H14R19346   4.413   7.010   7.921  1.7031 -0.4712 -0.2808
  171SOPE  H14S19347   4.469   6.853   7.868  0.7191 -0.2300  1.0459
  171SOPE  C21519348   4.347   6.847   8.056 -0.3879 -0.0143 -0.3920
  171SOPE  H15R19349   4.315   6.741   8.048 -0.0321 -0.1974  0.5338
  171SOPE  H15S19350   4.260   6.904   8.094 -0.6710 -0.1353 -0.8459
  171SOPE  C21619351   4.462   6.855   8.150 -0.2291  0.1192  1.1731
  171SOPE  H16R19352   4.495   6.958   8.173  0.1483 -0.2543  2.4406
  171SOPE  H16S19353   4.552   6.801   8.115 -0.6141  0.3598 -0.2203
  171SOPE  C21719354   4.430   6.790   8.289  0.1638 -0.2424  0.1759
  171SOPE  H17R19355   4.417   6.681   8.275  0.0431 -0.4878  2.0572
  171SOPE  H17S19356   4.331   6.833   8.315  0.7942  0.9070  0.7781
  171SOPE  C21819357   4.536   6.817   8.396  0.1952  0.2231  0.7211
  171SOPE  H18R19358   4.523   6.755   8.487  3.9239 -1.1559  0.4907
  171SOPE  H18S19359   4.521   6.916   8.444 -0.1942  0.4678  0.1184
  171SOPE  H18T19360   4.640   6.799   8.361 -0.4987  0.4337 -1.6547
  171SOPE   C3319361   4.708   7.199   6.864 -0.0783 -0.1111 -0.4540
  171SOPE   H3X19362   4.681   7.276   6.940  0.2162 -0.4306 -0.0261
  171SOPE   H3Y19363   4.818   7.212   6.849  0.3279 -0.0922  2.0650
  171SOPE   C3419364   4.666   7.061   6.927  0.4096  1.1307  0.0753
  171SOPE   H4X19365   4.705   6.977   6.866 -1.4106 -0.3432  0.8566
  171SOPE   H4Y19366   4.556   7.059   6.915  0.3571  2.6160  0.0466
  171SOPE   C3519367   4.712   7.056   7.072  0.1004  0.1785 -0.6231
  171SOPE   H5X19368   4.665   7.138   7.130 -0.5934 -1.2845  0.9338
  171SOPE   H5Y19369   4.821   7.080   7.067 -0.1295  1.0953 -2.6586
  171SOPE   C3619370   4.698   6.916   7.142  0.2922 -0.2377 -0.0685
  171SOPE   H6X19371   4.754   6.840   7.084  2.2815 -0.0542  1.4861
  171SOPE   H6Y19372   4.587   6.906   7.150  0.1640  1.0138 -0.0428
  171SOPE   C3719373   4.759   6.924   7.283 -0.6082  0.3289 -0.5079
  171SOPE   H7X19374   4.711   7.004   7.344  0.9546 -0.2402  1.6124
  171SOPE   H7Y19375   4.868   6.942   7.279 -0.3763 -0.1412  1.9967
  171SOPE   C3819376   4.756   6.787   7.357 -0.6386 -0.3167 -0.5383
  171SOPE   H8X19377   4.820   6.805   7.446  0.6756 -0.7428 -1.3730
  171SOPE   H8Y19378   4.806   6.711   7.295 -0.6712 -1.0776  0.3409
  171SOPE   C3919379   4.611   6.751   7.396  0.0397  0.1212 -0.2027
  171SOPE   H9X19380   4.554   6.702   7.315 -0.6212  0.9308 -0.2461
  171SOPE   H9Y19381   4.552   6.843   7.417  2.4121  1.1125  3.0091
  171SOPE  C31019382   4.607   6.664   7.520  0.0184 -0.1736 -0.1179
  171SOPE  H10X19383   4.638   6.719   7.611  1.1830 -1.4584  0.3109
  171SOPE  H10Y19384   4.683   6.583   7.518  1.8629  1.4734  0.1134
  171SOPE  C31119385   4.470   6.607   7.548  0.4400 -0.2353 -0.0958
  171SOPE  H11X19386   4.430   6.564   7.454  1.0003 -2.8551  0.7920
  171SOPE  H11Y19387   4.397   6.686   7.578  2.1703  0.9723  1.1383
  171SOPE  C31219388   4.483   6.503   7.660  0.0022  0.3587 -0.2140
  171SOPE  H12X19389   4.553   6.421   7.636 -0.9320 -1.0032  1.5073
  171SOPE  H12Y19390   4.386   6.448   7.662  0.4241 -0.5610 -2.1472
  171SOPE  C31319391   4.507   6.555   7.799 -0.1112 -0.7289 -0.1918
  171SOPE  H13X19392   4.433   6.636   7.817 -0.3601 -0.9522 -0.2046
  171SOPE  H13Y19393   4.608   6.601   7.806 -0.8093  0.8717 -0.3618
  171SOPE  C31419394   4.500   6.444   7.900 -0.4067  0.2243 -0.6635
  171SOPE  H14X19395   4.559   6.356   7.867  1.0967 -0.4843  3.4077
  171SOPE  H14Y19396   4.394   6.422   7.925  0.1534 -0.7337  1.0270
  171SOPE  C31519397   4.563   6.485   8.039 -0.6836  0.3759 -0.3569
  171SOPE  H15X19398   4.501   6.571   8.072 -0.2137  1.5847 -2.4246
  171SOPE  H15Y19399   4.664   6.525   8.014 -0.4524 -0.7092 -1.2219
  171SOPE  C31619400   4.569   6.369   8.133 -0.1302  0.2552 -0.5247
  171SOPE  H16X19401   4.623   6.283   8.087 -0.9374  0.0508 -1.1009
  171SOPE  H16Y19402   4.467   6.334   8.158 -0.2867  1.7999  1.2396
  171SOPE  C31719403   4.635   6.405   8.271  0.0093  0.5215  0.4191
  171SOPE  H17X19404   4.595   6.501   8.309  0.7242  1.0743 -0.1783
  171SOPE  H17Y19405   4.739   6.440   8.252  0.5917 -0.0811  2.2594
  171SOPE  C31819406   4.634   6.292   8.368 -0.1001 -0.3426  0.0272
  171SOPE  H18X19407   4.694   6.201   8.345  0.5792  0.0225  0.3110
  171SOPE  H18Y19408   4.529   6.262   8.384 -0.0889 -1.4172 -1.6401
  171SOPE  H18Z19409   4.678   6.326   8.465  0.5234  0.6247 -0.5708
  172SOPE     N19410   5.018   0.829   6.280 -0.5564  0.1834 -0.0634
  172SOPE   HN119411   5.043   0.856   6.378  0.7528 -4.4279  1.1338
  172SOPE   HN219412   4.936   0.875   6.237  1.7643  2.3392 -2.6056
  172SOPE   HN319413   5.014   0.726   6.286  1.3083  0.1418  3.1536
  172SOPE   C1219414   5.149   0.864   6.206  0.4813 -0.1412 -0.0675
  172SOPE  H12A19415   5.181   0.777   6.144 -1.1954  0.2231 -1.5301
  172SOPE  H12B19416   5.231   0.896   6.274  1.0738 -1.1348 -0.2905
  172SOPE   C1119417   5.113   0.971   6.098  0.0123  0.0485  0.2338
  172SOPE  H11A19418   5.014   0.958   6.050  1.2992  1.1778 -2.9869
  172SOPE  H11B19419   5.190   0.962   6.018  0.5048 -0.2441  0.7307
  172SOPE     P19420   5.209   1.213   6.135  0.1407 -0.4215 -0.3189
  172SOPE   O1319421   5.129   1.305   6.050  0.2502  0.1987 -0.2457
  172SOPE   O1419422   5.335   1.160   6.081 -0.3325 -0.1072  0.0751
  172SOPE   O1219423   5.120   1.090   6.179  0.3459 -0.6963  0.1195
  172SOPE   O1119424   5.241   1.282   6.275  0.8477 -0.4549 -0.2157
  172SOPE    C119425   5.144   1.322   6.378 -0.1857 -0.0083  0.2161
  172SOPE    HA19426   5.040   1.285   6.366  0.8928 -2.9889 -0.8937
  172SOPE    HB19427   5.129   1.432   6.368 -0.9729 -0.0951  0.3547
  172SOPE    C219428   5.197   1.296   6.518  0.1635  0.3114 -0.5968
  172SOPE    HS19429   5.219   1.187   6.527 -0.1188  0.1540 -1.6463
  172SOPE   O2119430   5.092   1.335   6.603  0.5654  0.3221 -0.6088
  172SOPE   C2119431   5.036   1.239   6.681  0.1325  0.6063  0.3053
  172SOPE   O2219432   5.080   1.134   6.700  0.2666  0.4410  0.4536
  172SOPE   C2219433   4.898   1.288   6.736 -0.0471  0.4652  0.7033
  172SOPE   H2R19434   4.843   1.286   6.640  0.7697 -1.6570  0.2337
  172SOPE   H2S19435   4.918   1.387   6.782  0.6227 -0.5138  2.6121
  172SOPE    C319436   5.335   1.355   6.544 -0.3074  0.2744  0.2364
  172SOPE    HX19437   5.329   1.466   6.544 -1.5032  0.2320 -0.4603
  172SOPE    HY19438   5.405   1.335   6.459 -1.8471 -0.3670 -0.9227
  172SOPE   O3119439   5.384   1.300   6.661 -0.9768  0.1271 -0.1234
  172SOPE   C3119440   5.484   1.368   6.718 -0.7781 -0.8220 -0.4347
  172SOPE   O3219441   5.528   1.474   6.677 -0.0989 -0.3659  0.0840
  172SOPE   C3219442   5.528   1.291   6.843 -0.4609  0.5153 -0.3541
  172SOPE   H2X19443   5.634   1.262   6.824 -0.7304  0.5266 -2.0429
  172SOPE   H2Y19444   5.474   1.194   6.847 -0.4507  0.5213  0.0290
  172SOPE   C2319445   4.836   1.198   6.846  0.8637  0.1071  0.4142
  172SOPE   H3R19446   4.842   1.091   6.818  2.2149 -0.3235  2.1819
  172SOPE   H3S19447   4.727   1.219   6.844  1.0853  1.3630  0.2703
  172SOPE   C2419448   4.907   1.223   6.981  0.3080  0.3847  0.1249
  172SOPE   H4R19449   5.017   1.221   6.967  0.3318  1.1524  0.1600
  172SOPE   H4S19450   4.886   1.325   7.020  0.2277 -0.0447  1.2559
  172SOPE   C2519451   4.857   1.127   7.095  0.2663 -0.5134  0.4661
  172SOPE   H5R19452   4.746   1.121   7.095  0.2285  0.0530  0.1304
  172SOPE   H5S19453   4.894   1.027   7.066  1.6004 -0.2088  1.0167
  172SOPE   C2619454   4.896   1.181   7.233 -0.9990 -0.6740  0.3451
  172SOPE   H6R19455   5.002   1.212   7.242 -1.0361 -0.3348 -0.3322
  172SOPE   H6S19456   4.845   1.280   7.241  0.1990  0.0413 -0.6038
  172SOPE   C2719457   4.842   1.103   7.356 -0.1785 -0.2557  0.0974
  172SOPE   H7R19458   4.731   1.103   7.353 -0.1686 -0.6046 -2.9535
  172SOPE   H7S19459   4.886   1.001   7.351 -0.3371 -0.5579  2.9376
  172SOPE   C2819460   4.880   1.163   7.492 -0.2662  0.0970 -0.0907
  172SOPE   H8R19461   4.924   1.084   7.557 -0.1992 -0.4091 -0.7368
  172SOPE   H8S19462   4.967   1.230   7.474 -0.8220  0.5749 -1.0509
  172SOPE   C2919463   4.772   1.248   7.551  0.1953  0.0619 -0.1677
  172SOPE   H9119464   4.763   1.344   7.498  0.3724 -0.3789 -1.0054
  172SOPE  C21019465   4.707   1.235   7.670 -0.1985 -0.4970 -0.4469
  172SOPE  H10119466   4.638   1.314   7.699  1.7035  1.2361 -0.3996
  172SOPE  C21119467   4.713   1.121   7.765  0.1705 -0.0686  0.0568
  172SOPE  H11R19468   4.780   1.043   7.724 -1.3232 -0.3049 -2.0706
  172SOPE  H11S19469   4.609   1.084   7.766  0.6659 -1.5195  0.5998
  172SOPE  C21219470   4.766   1.158   7.908 -0.6088  0.3984 -0.1279
  172SOPE  H12R19471   4.861   1.213   7.897 -0.1559 -0.4251 -0.3894
  172SOPE  H12S19472   4.791   1.068   7.968 -0.3771 -0.2650 -1.1824
  172SOPE  C21319473   4.656   1.254   7.960  0.0019 -0.3471 -0.8214
  172SOPE  H13R19474   4.555   1.210   7.942  0.2229 -0.7893 -0.9638
  172SOPE  H13S19475   4.654   1.351   7.904 -2.3972 -0.5104 -1.1325
  172SOPE  C21419476   4.664   1.283   8.117 -0.4376  0.5727  0.3509
  172SOPE  H14R19477   4.587   1.354   8.153  0.6940  1.1178  1.8320
  172SOPE  H14S19478   4.754   1.349   8.122 -0.0714  0.0462  0.8456
  172SOPE  C21519479   4.682   1.159   8.213 -0.1331  0.0664 -0.2017
  172SOPE  H15R19480   4.687   1.198   8.317 -1.6591  0.4138 -0.2381
  172SOPE  H15S19481   4.774   1.103   8.185  0.4661  0.7655  0.3238
  172SOPE  C21619482   4.561   1.066   8.207 -0.4517  0.1707 -0.3407
  172SOPE  H16R19483   4.541   1.035   8.102 -1.5382  3.3719 -1.2259
  172SOPE  H16S19484   4.475   1.130   8.239  0.8826  0.9971  1.7800
  172SOPE  C21719485   4.567   0.941   8.294  0.2018 -0.3856 -0.8908
  172SOPE  H17R19486   4.584   0.966   8.400  0.5727  0.6682 -1.1831
  172SOPE  H17S19487   4.652   0.879   8.257  0.8780 -1.6507  2.4773
  172SOPE  C21819488   4.444   0.848   8.282  0.7321  0.1750 -0.2768
  172SOPE  H18R19489   4.423   0.813   8.179  1.7071 -1.2256 -0.0203
  172SOPE  H18S19490   4.361   0.917   8.309 -0.4449 -1.2053 -0.2858
  172SOPE  H18T19491   4.428   0.760   8.348 -0.4234 -0.4591 -1.3649
  172SOPE   C3319492   5.498   1.367   6.978 -0.0705  0.4969  0.0596
  172SOPE   H3X19493   5.390   1.382   6.997  0.3422  4.0200  0.2085
  172SOPE   H3Y19494   5.546   1.466   6.969  0.0082  0.4749  0.2358
  172SOPE   C3419495   5.562   1.307   7.108  0.0771  0.4498  0.0919
  172SOPE   H4X19496   5.667   1.318   7.075 -0.5153  1.1272 -1.6948
  172SOPE   H4Y19497   5.544   1.200   7.134 -0.6253  0.3194 -0.8917
  172SOPE   C3519498   5.535   1.394   7.230  0.1112 -0.4803 -0.0352
  172SOPE   H5X19499   5.432   1.389   7.272 -0.2448 -0.7513 -0.9106
  172SOPE   H5Y19500   5.537   1.499   7.195 -1.8403 -0.6231 -0.6980
  172SOPE   C3619501   5.640   1.354   7.341 -0.3120 -0.1431  0.0010
  172SOPE   H6X19502   5.740   1.390   7.309 -0.1002 -2.1994 -1.9235
  172SOPE   H6Y19503   5.645   1.243   7.346 -1.6849 -0.2398 -0.1818
  172SOPE   C3719504   5.593   1.411   7.476 -0.2058 -0.2095  0.2680
  172SOPE   H7X19505   5.545   1.509   7.457 -0.3221 -0.5009 -1.0510
  172SOPE   H7Y19506   5.683   1.426   7.538  0.7005 -2.0182 -0.5357
  172SOPE   C3819507   5.504   1.308   7.551 -0.7281 -0.0779 -0.0746
  172SOPE   H8X19508   5.569   1.232   7.599 -2.1702 -1.6533 -0.5001
  172SOPE   H8Y19509   5.440   1.245   7.484  1.5345 -0.5091 -1.9625
  172SOPE   C3919510   5.417   1.365   7.665  0.6066  0.1136  0.4111
  172SOPE   H9X19511   5.339   1.438   7.636 -0.3643 -1.9890 -2.8977
  172SOPE   H9Y19512   5.494   1.413   7.729  1.3201 -1.9112  1.1765
  172SOPE  C31019513   5.354   1.259   7.749 -0.0547 -0.2425 -0.3332
  172SOPE  H10X19514   5.434   1.185   7.767  0.2862 -0.3737 -2.2048
  172SOPE  H10Y19515   5.281   1.202   7.687  0.8614  0.9200 -2.6028
  172SOPE  C31119516   5.310   1.310   7.889  0.0369 -0.0090  0.2476
  172SOPE  H11X19517   5.237   1.392   7.870  2.4487  1.8518 -1.5174
  172SOPE  H11Y19518   5.402   1.354   7.931  0.8829  0.6089 -2.1052
  172SOPE  C31219519   5.254   1.206   7.980  0.4869  0.0098  0.0063
  172SOPE  H12X19520   5.315   1.113   7.971 -1.1352 -1.3643  2.2675
  172SOPE  H12Y19521   5.157   1.168   7.943  0.2119  0.0735  0.6494
  172SOPE  C31319522   5.236   1.238   8.127  0.2668  0.1790  0.7788
  172SOPE  H13X19523   5.313   1.315   8.151  0.0708  1.0298 -1.1247
  172SOPE  H13Y19524   5.245   1.144   8.186 -2.3766  0.2813  1.4992
  172SOPE  C31419525   5.098   1.283   8.169 -0.0956  0.2450 -0.3460
  172SOPE  H14X19526   5.025   1.201   8.150  1.5898 -1.4361  0.1117
  172SOPE  H14Y19527   5.076   1.377   8.113  2.7672  1.6890  0.7686
  172SOPE  C31519528   5.088   1.308   8.320 -0.4296 -0.1419  0.1172
  172SOPE  H15X19529   5.158   1.390   8.349  0.0163 -1.0079  1.5746
  172SOPE  H15Y19530   5.103   1.220   8.387 -2.5237 -1.4225 -0.9958
  172SOPE  C31619531   4.945   1.363   8.363 -0.1190 -0.6655  0.1148
  172SOPE  H16X19532   4.872   1.284   8.338 -0.7375  0.2215 -0.9978
  172SOPE  H16Y19533   4.917   1.451   8.301  1.3371 -0.7579 -0.7295
  172SOPE  C31719534   4.931   1.398   8.516  0.1918 -0.1024 -0.2207
  172SOPE  H17X19535   4.933   1.300   8.568 -0.8329 -0.2852 -0.5011
  172SOPE  H17Y19536   4.829   1.434   8.541  0.8147  1.4620  0.2026
  172SOPE  C31819537   5.049   1.483   8.568 -0.1069 -0.1427 -0.4209
  172SOPE  H18X19538   5.147   1.435   8.546 -0.9185 -2.6487  1.0190
  172SOPE  H18Y19539   5.043   1.511   8.675  0.0617 -1.2155 -0.1122
  172SOPE  H18Z19540   5.042   1.583   8.521 -1.7012  0.7905  1.7048
  173SAPI   C1219541   3.747   3.150  10.712 -0.3361 -0.2101 -0.1602
  173SAPI    H219542   3.800   3.144  10.809  1.5643 -3.8020 -1.2357
  173SAPI    O219543   3.606   3.124  10.728 -0.0123  0.4065 -0.4079
  173SAPI   HO219544   3.560   3.206  10.748 -0.4787 -0.1223  0.7998
  173SAPI   C1319545   3.765   3.294  10.657 -0.1192  0.7102  0.0280
  173SAPI    H319546   3.875   3.309  10.653  0.0874 -0.7851 -1.0756
  173SAPI    O319547   3.711   3.385  10.756  0.0537 -0.8711  0.9166
  173SAPI   HO319548   3.777   3.451  10.777 -0.0694 -0.5062  0.1797
  173SAPI   C1419549   3.714   3.313  10.522  0.0572  0.3187 -0.4545
  173SAPI    H419550   3.604   3.293  10.516 -0.0304  0.3414  0.7609
  173SAPI    O419551   3.740   3.446  10.479 -0.1373  0.1013 -0.6043
  173SAPI   HO419552   3.707   3.450  10.389 -0.0597  1.9839 -0.5930
  173SAPI   C1519553   3.783   3.210  10.435 -0.3580  0.1765 -0.1571
  173SAPI    H519554   3.894   3.214  10.441 -0.3138 -0.6601 -0.1775
  173SAPI    O519555   3.727   3.220  10.305  0.2248  0.3421 -0.3357
  173SAPI   HO519556   3.798   3.258  10.254  2.7161 -1.4347  1.5682
  173SAPI   C1619557   3.768   3.056  10.482  0.2624 -0.8100  0.5353
  173SAPI    H619558   3.660   3.034  10.472  0.5332 -1.4890 -1.2964
  173SAPI    O619559   3.846   2.973  10.385  0.5489  0.0733  0.0335
  173SAPI   HO619560   3.841   2.881  10.414 -0.0254 -0.0359 -0.3934
  173SAPI   C1119561   3.814   3.043  10.627 -0.2495  0.0824 -0.1128
  173SAPI    H119562   3.922   3.068  10.631 -0.3065  0.1449  1.2670
  173SAPI     P19563   3.900   2.785  10.679 -0.1973  0.2613 -0.0239
  173SAPI   O1319564   3.849   2.677  10.764  0.3476 -0.2281 -0.7125
  173SAPI   O1419565   4.038   2.833  10.700  0.4864 -0.4885 -0.2515
  173SAPI   O1219566   3.790   2.912  10.684  0.4314 -0.6732  0.3207
  173SAPI   O1119567   3.888   2.738  10.528 -0.1548 -0.2587 -0.6975
  173SAPI    C119568   3.799   2.635  10.486 -0.0160 -0.1522 -0.1264
  173SAPI    HA19569   3.834   2.541  10.535 -2.0359  0.2580  2.3049
  173SAPI    HB19570   3.696   2.663  10.515  0.4875  1.0425  0.5683
  173SAPI    C219571   3.796   2.619  10.330 -0.6813 -0.9947 -0.1190
  173SAPI    HS19572   3.903   2.646  10.314 -1.0711  1.7458  1.4137
  173SAPI   O2119573   3.701   2.711  10.285 -0.8875 -0.3975  0.8196
  173SAPI   C2119574   3.715   2.786  10.183 -1.0401  0.3434  0.1571
  173SAPI   O2219575   3.813   2.782  10.104  0.5327 -0.0665 -0.3408
  173SAPI   C2219576   3.598   2.884  10.173  0.0393  0.0393 -1.3601
  173SAPI   H2R19577   3.546   2.894  10.271 -0.1267 -0.1343 -1.4288
  173SAPI   H2S19578   3.648   2.981  10.151 -0.5616  0.7738  0.2866
  173SAPI    C319579   3.763   2.475  10.292  0.2352  0.5533  0.1776
  173SAPI    HX19580   3.655   2.458  10.315  0.1031  0.8027 -0.2355
  173SAPI    HY19581   3.830   2.418  10.359  1.6761  2.5191  0.5003
  173SAPI   O3119582   3.812   2.442  10.157  0.0067 -0.6297  0.1633
  173SAPI   C3119583   3.721   2.390  10.081 -0.5194 -0.2472  0.1987
  173SAPI   O3219584   3.604   2.393  10.099 -0.2796  0.2438 -0.8028
  173SAPI   C3219585   3.790   2.299   9.981  0.0763 -0.5836 -0.0755
  173SAPI   H2X19586   3.791   2.195  10.021  1.6044 -0.4448  0.2897
  173SAPI   H2Y19587   3.895   2.336   9.971 -0.1411 -0.2884 -1.6139
  173SAPI   C2319588   3.496   2.862  10.059 -0.1975 -0.4027 -0.3229
  173SAPI   H3R19589   3.558   2.875   9.968 -1.3471  1.4417 -0.8914
  173SAPI   H3S19590   3.423   2.945  10.065 -1.8659 -1.6970 -1.5897
  173SAPI   C2419591   3.419   2.732  10.060  0.4034  0.1926 -0.0489
  173SAPI   H4R19592   3.390   2.710  10.165  2.0827  0.9582  0.6175
  173SAPI   H4S19593   3.480   2.644  10.031  0.1691  0.1516 -0.4217
  173SAPI   C2519594   3.292   2.742   9.978  0.6678  0.1318 -0.4116
  173SAPI   H5R19595   3.211   2.792  10.033  0.5976 -0.2698 -0.1430
  173SAPI   C2619596   3.264   2.687   9.852 -0.7419 -0.4013 -0.0002
  173SAPI   H6R19597   3.168   2.709   9.804 -0.5332 -2.2561 -1.4148
  173SAPI   C2719598   3.363   2.611   9.764  0.3481 -0.3460  0.3286
  173SAPI   H7R19599   3.439   2.550   9.817  2.8226  1.4436 -0.9129
  173SAPI   H7S19600   3.417   2.687   9.702  0.3564 -0.4881  0.1589
  173SAPI   C2819601   3.276   2.521   9.672  0.3041  0.4731  0.5037
  173SAPI   H8R19602   3.224   2.441   9.725 -0.3759  0.0230 -0.8017
  173SAPI   C2919603   3.267   2.536   9.534 -0.4276  0.5473 -0.0467
  173SAPI   H9R19604   3.200   2.465   9.484 -0.9856  1.4363 -0.5964
  173SAPI  C21019605   3.328   2.632   9.433  0.0100  1.0854 -0.0299
  173SAPI  H10R19606   3.346   2.730   9.484 -0.5908 -0.5419  3.5786
  173SAPI  H10S19607   3.255   2.639   9.350 -1.9701 -0.9838  1.4286
  173SAPI  C21119608   3.463   2.585   9.394 -0.0449 -0.5962  0.0525
  173SAPI  H11R19609   3.518   2.539   9.477  2.1694 -0.9309 -1.5087
  173SAPI  C21219610   3.525   2.609   9.273 -0.2486 -0.0271 -0.8046
  173SAPI  H12R19611   3.621   2.558   9.259  0.1065  0.3421  0.2353
  173SAPI  C21319612   3.474   2.673   9.148 -1.0449  0.0824 -1.2091
  173SAPI  H13R19613   3.363   2.669   9.152 -1.0057 -2.6549 -1.5767
  173SAPI  H13S19614   3.500   2.601   9.068  0.6683 -1.3038  0.5264
  173SAPI  C21419615   3.541   2.803   9.108  0.7124  0.0996 -0.4614
  173SAPI  H14R19616   3.500   2.889   9.164 -1.5707 -1.0959 -0.1842
  173SAPI  C21519617   3.629   2.819   9.009 -0.1629  0.2849 -0.9706
  173SAPI  H15R19618   3.673   2.919   8.998  1.4111 -0.3097 -0.3661
  173SAPI  C21619619   3.684   2.705   8.922 -0.2183 -0.4202 -0.1460
  173SAPI  H16R19620   3.690   2.607   8.973 -0.0341  0.6546  2.0476
  173SAPI  H16S19621   3.787   2.728   8.886 -0.1139  0.7010  0.7977
  173SAPI  C21719622   3.590   2.677   8.799  0.0712  0.6972 -0.1187
  173SAPI  H17R19623   3.497   2.632   8.840  0.9855 -0.8930  0.2971
  173SAPI  H17S19624   3.629   2.591   8.741 -0.1095 -0.6697  1.6967
  173SAPI  C21819625   3.553   2.806   8.722 -0.0505 -0.4741  0.5418
  173SAPI  H18R19626   3.511   2.876   8.797  0.7880 -0.9145  1.4379
  173SAPI  H18S19627   3.473   2.779   8.650 -0.1442 -1.7976  1.1026
  173SAPI  C21919628   3.675   2.866   8.653 -0.3900 -0.3718  0.5632
  173SAPI  H19R19629   3.737   2.792   8.598  2.7543  1.2282  1.6941
  173SAPI  H19S19630   3.748   2.911   8.723  1.6419 -0.3188 -1.4705
  173SAPI  C22019631   3.643   2.982   8.562 -0.1082  0.5383  0.5761
  173SAPI  H20R19632   3.566   2.941   8.493  2.3751  0.5970 -2.4134
  173SAPI  H20S19633   3.732   3.004   8.500 -0.9076  0.7812 -0.5078
  173SAPI  H20T19634   3.598   3.061   8.626  0.4180  0.0258  1.6088
  173SAPI   C3319635   3.715   2.313   9.840  0.4407  0.4274  0.0328
  173SAPI   H3X19636   3.710   2.417   9.801 -3.1937 -0.6716 -3.1267
  173SAPI   H3Y19637   3.606   2.290   9.841  0.0585  2.0709 -0.1122
  173SAPI   C3419638   3.784   2.226   9.731 -0.0340 -0.8556  0.1772
  173SAPI   H4X19639   3.764   2.118   9.743  2.1017 -1.1008  2.4920
  173SAPI   H4Y19640   3.892   2.250   9.742 -0.5390  0.3281  4.4313
  173SAPI   C3519641   3.741   2.270   9.591  0.2573 -0.3840  0.5678
  173SAPI   H5X19642   3.751   2.380   9.577  0.6654 -0.6541 -1.6524
  173SAPI   H5Y19643   3.633   2.249   9.573  0.3047  0.6982 -1.3095
  173SAPI   C3619644   3.799   2.195   9.469 -0.2998  0.2773  0.2838
  173SAPI   H6X19645   3.756   2.093   9.464 -0.1330  0.2705 -1.7305
  173SAPI   H6Y19646   3.905   2.174   9.492  0.1598  0.7798 -1.3196
  173SAPI   C3719647   3.781   2.264   9.333 -0.4524 -0.1610  0.1282
  173SAPI   H7X19648   3.827   2.363   9.352  2.1303 -1.1744 -0.4899
  173SAPI   H7Y19649   3.678   2.287   9.297 -0.0473  1.3653 -0.1141
  173SAPI   C3819650   3.861   2.199   9.213  0.9888 -0.7935  0.4298
  173SAPI   H8X19651   3.816   2.100   9.189 -3.0928  0.3377  2.4596
  173SAPI   H8Y19652   3.967   2.182   9.241  2.0626  3.5146 -0.3526
  173SAPI   C3919653   3.861   2.286   9.083 -0.2893 -0.6546  0.0298
  173SAPI   H9X19654   3.907   2.385   9.105 -3.0655  0.6697  0.2248
  173SAPI   H9Y19655   3.757   2.311   9.053  1.1109  2.6427 -2.6397
  173SAPI  C31019656   3.954   2.225   8.975  0.1891  0.3612 -0.4523
  173SAPI  H10X19657   3.906   2.132   8.940 -0.1124 -0.5300  2.1432
  173SAPI  H10Y19658   4.050   2.197   9.024  0.9886  3.0776 -0.3115
  173SAPI  C31119659   3.968   2.309   8.855 -0.3635  0.6648 -0.0201
  173SAPI  H11X19660   4.052   2.267   8.795  0.1027  1.9877 -0.3222
  173SAPI  H11Y19661   3.995   2.412   8.885  0.5902  0.2843  0.5260
  173SAPI  C31219662   3.837   2.321   8.778  0.3079 -0.7247  0.0839
  173SAPI  H12X19663   3.762   2.356   8.852 -0.8663 -2.5109 -0.2091
  173SAPI  H12Y19664   3.813   2.213   8.764 -2.2431 -0.0246 -1.6784
  173SAPI  C31319665   3.827   2.412   8.652  0.7230 -0.1581  0.5015
  173SAPI  H13X19666   3.919   2.400   8.591  1.1240 -0.8315  1.2206
  173SAPI  H13Y19667   3.817   2.517   8.685 -3.1536  1.3124 -4.0631
  173SAPI  C31419668   3.695   2.381   8.567  0.2221  0.2804  0.7513
  173SAPI  H14X19669   3.606   2.397   8.632  0.0499 -2.1286  1.1783
  173SAPI  H14Y19670   3.706   2.278   8.528  1.5583  1.0691 -1.0864
  173SAPI  C31519671   3.686   2.485   8.450 -0.1604  0.2074  0.2088
  173SAPI  H15X19672   3.779   2.471   8.391 -0.2970  1.0305 -0.2148
  173SAPI  H15Y19673   3.695   2.586   8.495  1.4884  0.6894 -1.1168
  173SAPI  C31619674   3.569   2.458   8.350  1.3926 -0.6169  0.0368
  173SAPI  H16X19675   3.480   2.446   8.416  0.7893 -0.7828 -0.7958
  173SAPI  H16Y19676   3.584   2.362   8.296 -1.0640 -0.6560 -0.6952
  173SAPI  C31719677   3.531   2.579   8.255 -0.1263  0.4660 -0.0591
  173SAPI  H17X19678   3.517   2.668   8.320 -3.3120  1.1785 -1.5624
  173SAPI  H17Y19679   3.432   2.553   8.212  0.6409 -0.4339 -1.3658
  173SAPI  C31819680   3.627   2.612   8.144 -0.2499  0.0950 -0.2375
  173SAPI  H18X19681   3.591   2.696   8.081  0.4894  0.9697  0.4958
  173SAPI  H18Y19682   3.645   2.520   8.084 -0.2978 -0.8788  1.1859
  173SAPI  H18Z19683   3.726   2.642   8.185 -1.1632  0.6302  1.6880
  174SAPI   C1219684   6.116   4.006  10.936  0.2039  0.1170  0.1649
  174SAPI    H219685   6.052   3.997  10.846  0.1576  0.9260  0.1080
  174SAPI    O219686   6.179   4.132  10.928  0.4658 -0.2038 -0.4336
  174SAPI   HO219687   6.275   4.125  10.934  0.5312 -0.2783 -1.3094
  174SAPI   C1319688   6.021   3.996  11.046 -0.4208 -0.4704 -1.0730
  174SAPI    H319689   5.966   3.900  11.033  1.3221 -1.7516  0.6095
  174SAPI    O319690   5.916   4.095  11.044  0.2344  0.1151 -0.3269
  174SAPI   HO319691   5.873   4.109  10.959 -1.6369 -1.0632  0.3643
  174SAPI   C1419692   6.101   3.988  11.178 -0.4936  0.5721 -0.1199
  174SAPI    H419693   6.169   4.075  11.194 -0.2637  0.1463  1.4514
  174SAPI    O419694   6.022   3.976  11.296 -0.3808  0.1802  0.3773
  174SAPI   HO419695   6.057   3.901  11.344 -0.0851 -1.3179 -2.0087
  174SAPI   C1519696   6.199   3.872  11.178  0.7385 -0.2507  0.2609
  174SAPI    H519697   6.149   3.775  11.156 -0.7265  0.6852 -0.6433
  174SAPI    O519698   6.278   3.868  11.295  0.6180 -1.0296 -0.5399
  174SAPI   HO519699   6.326   3.786  11.286  1.6734 -0.5130  0.1209
  174SAPI   C1619700   6.296   3.877  11.058  0.0463  0.2986 -0.7911
  174SAPI    H619701   6.366   3.962  11.069 -0.5113  0.7552 -0.7249
  174SAPI    O619702   6.367   3.755  11.050  0.1086  0.0104 -1.3952
  174SAPI   HO619703   6.307   3.685  11.023  1.4362 -1.9203  0.2627
  174SAPI   C1119704   6.216   3.893  10.929 -0.3764  0.5942  0.3505
  174SAPI    H119705   6.149   3.805  10.916 -0.7046  1.2936 -4.6785
  174SAPI     P19706   6.301   3.800  10.684  0.3249 -0.2924  0.2834
  174SAPI   O1319707   6.297   3.657  10.717 -0.0661  0.0325 -0.5104
  174SAPI   O1419708   6.397   3.849  10.579  0.0742  0.4315  0.0665
  174SAPI   O1219709   6.308   3.899  10.815  0.5396 -0.9017  0.5524
  174SAPI   O1119710   6.158   3.841  10.631 -0.2946  0.1286  0.0846
  174SAPI    C119711   6.050   3.749  10.642  0.7854  0.1212  0.2654
  174SAPI    HA19712   6.054   3.692  10.737  0.9707 -0.6566 -0.2014
  174SAPI    HB19713   5.955   3.804  10.627 -0.0933 -1.4153  0.0117
  174SAPI    C219714   6.039   3.643  10.536  0.6751 -0.5056 -0.4515
  174SAPI    HS19715   6.129   3.579  10.551  0.7984 -0.4388 -0.8965
  174SAPI   O2119716   6.045   3.712  10.410 -1.0655 -0.6032 -0.0045
  174SAPI   C2119717   6.128   3.667  10.319  0.2831 -0.3198  0.2648
  174SAPI   O2219718   6.206   3.571  10.327  0.3015 -0.0318 -0.2034
  174SAPI   C2219719   6.112   3.749  10.187 -0.2564 -0.3887 -0.0589
  174SAPI   H2R19720   6.005   3.757  10.159  0.3175  0.2483 -2.2408
  174SAPI   H2S19721   6.140   3.855  10.201 -1.1156 -0.0563 -0.7841
  174SAPI    C319722   5.914   3.555  10.557  0.2593  0.2408  0.8853
  174SAPI    HX19723   5.821   3.614  10.568  2.2221  3.7767 -0.0214
  174SAPI    HY19724   5.944   3.506  10.652  0.8122 -1.7500 -0.2548
  174SAPI   O3119725   5.896   3.461  10.440 -0.5124  0.4694 -0.1315
  174SAPI   C3119726   5.953   3.343  10.459  0.5211 -0.2924  0.8352
  174SAPI   O3219727   5.990   3.300  10.565  0.2560  0.5394 -0.3362
  174SAPI   C3219728   5.924   3.260  10.325 -0.1468 -0.4018 -0.3864
  174SAPI   H2X19729   5.820   3.223  10.340 -0.8285  1.4247 -0.2253
  174SAPI   H2Y19730   5.996   3.176  10.321 -1.0671 -1.5029  3.1242
  174SAPI   C2319731   6.206   3.696  10.072 -0.1037  0.2034 -0.1457
  174SAPI   H3R19732   6.186   3.587  10.070  0.3468 -0.3084  5.7956
  174SAPI   H3S19733   6.313   3.709  10.101  0.4740 -0.5933 -1.8051
  174SAPI   C2419734   6.190   3.773   9.938  0.1979  0.5965  0.2792
  174SAPI   H4R19735   6.086   3.755   9.903  0.8129  0.5458 -1.6337
  174SAPI   H4S19736   6.250   3.723   9.859 -0.1679 -0.1156  0.4417
  174SAPI   C2519737   6.227   3.914   9.933  0.3699 -0.2281 -0.3131
  174SAPI   H5R19738   6.332   3.939   9.956  0.3380 -0.1465 -0.2576
  174SAPI   C2619739   6.144   4.015   9.906 -0.1729 -0.4994  0.0677
  174SAPI   H6R19740   6.181   4.119   9.909 -1.0833 -0.1741  0.2971
  174SAPI   C2719741   5.995   4.013   9.868  0.7900 -0.6716 -0.4932
  174SAPI   H7R19742   5.931   4.031   9.957 -1.7479  3.0453 -2.8219
  174SAPI   H7S19743   5.973   3.908   9.837  0.9421 -0.9986  0.4579
  174SAPI   C2819744   5.951   4.111   9.765  0.8873  0.1570  0.0561
  174SAPI   H8R19745   5.898   4.203   9.795 -2.8591 -1.7531 -0.0283
  174SAPI   C2919746   5.975   4.094   9.638  0.1090  0.7833  0.7863
  174SAPI   H9R19747   5.935   4.171   9.571 -3.2559 -0.3230  1.3060
  174SAPI  C21019748   6.044   3.976   9.572 -0.2093  0.4435  0.4146
  174SAPI  H10R19749   5.964   3.918   9.522 -0.0119  0.2467  0.3260
  174SAPI  H10S19750   6.103   3.906   9.635  1.4162  1.7674  0.4334
  174SAPI  C21119751   6.137   4.026   9.461  0.3401  0.1139 -0.3157
  174SAPI  H11R19752   6.243   4.027   9.490  0.2396  2.1791  0.1353
  174SAPI  C21219753   6.104   4.068   9.341 -0.4452  0.2214  0.0023
  174SAPI  H12R19754   6.179   4.104   9.269  0.7347 -2.6086 -0.3254
  174SAPI  C21319755   5.964   4.087   9.296  0.6043 -0.1761 -0.4023
  174SAPI  H13R19756   5.927   4.187   9.327 -0.0705 -0.6792  0.4785
  174SAPI  H13S19757   5.891   4.015   9.341  2.6608 -2.1377 -0.0215
  174SAPI  C21419758   5.951   4.082   9.147  0.5326 -0.4330  0.1623
  174SAPI  H14R19759   6.024   4.018   9.095  0.3829  0.6277 -1.4007
  174SAPI  C21519760   5.857   4.137   9.069  0.7565  0.2794 -0.2615
  174SAPI  H15R19761   5.868   4.131   8.960  0.5604 -2.0523 -0.2049
  174SAPI  C21619762   5.736   4.213   9.111  0.5481 -0.0284 -0.5884
  174SAPI  H16R19763   5.761   4.321   9.117  1.4637 -0.2294 -0.6738
  174SAPI  H16S19764   5.701   4.180   9.211  0.5569 -1.0533 -0.9032
  174SAPI  C21719765   5.603   4.196   9.022  1.1468  0.8465 -0.5546
  174SAPI  H17R19766   5.527   4.246   9.085  3.0262  1.6636  1.2081
  174SAPI  H17S19767   5.571   4.090   9.010 -1.2463  1.6737 -2.0515
  174SAPI  C21819768   5.622   4.266   8.890 -0.4607  0.2576  0.3361
  174SAPI  H18R19769   5.723   4.247   8.850 -0.2711  3.1581 -0.8126
  174SAPI  H18S19770   5.624   4.375   8.912  0.1803  0.8950 -2.5132
  174SAPI  C21919771   5.501   4.252   8.792 -0.1320  0.1664 -0.4392
  174SAPI  H19R19772   5.413   4.303   8.835  0.7199  1.4215 -0.1203
  174SAPI  H19S19773   5.471   4.146   8.801 -0.5800  0.2351 -1.1489
  174SAPI  C22019774   5.518   4.301   8.649  0.4789  0.3269  0.0093
  174SAPI  H20R19775   5.597   4.240   8.600  0.2104 -0.2925  0.3371
  174SAPI  H20S19776   5.546   4.409   8.650  0.8844  0.2267 -0.2691
  174SAPI  H20T19777   5.428   4.285   8.586 -1.0992  2.5199  1.5354
  174SAPI   C3319778   5.934   3.343  10.186  0.4567 -0.3221 -0.8272
  174SAPI   H3X19779   6.041   3.369  10.171  0.6676 -1.4583 -1.3647
  174SAPI   H3Y19780   5.866   3.430  10.203  0.6037 -0.4727  0.6118
  174SAPI   C3419781   5.880   3.263  10.073 -0.7202 -0.2934 -0.2479
  174SAPI   H4X19782   5.792   3.206  10.108 -1.9855  1.0451 -1.1222
  174SAPI   H4Y19783   5.958   3.197  10.032 -0.9143 -1.5732  1.3343
  174SAPI   C3519784   5.826   3.338   9.951 -0.5542 -0.3908 -0.1619
  174SAPI   H5X19785   5.756   3.420   9.978  0.1566  0.0306  0.4363
  174SAPI   H5Y19786   5.771   3.259   9.895  1.5249 -1.4598 -0.8296
  174SAPI   C3619787   5.938   3.388   9.861 -0.1438  0.0394  0.2516
  174SAPI   H6X19788   5.992   3.302   9.816 -0.8417 -0.4939  0.4186
  174SAPI   H6Y19789   6.013   3.446   9.920 -1.4425 -0.2336  2.2798
  174SAPI   C3719790   5.883   3.463   9.740  0.3288 -0.1346 -0.1365
  174SAPI   H7X19791   5.832   3.557   9.772  1.2202  1.7250 -3.5863
  174SAPI   H7Y19792   5.813   3.392   9.690 -0.4214 -0.0157  0.7189
  174SAPI   C3819793   5.995   3.490   9.639 -0.0273  0.1548 -0.3368
  174SAPI   H8X19794   6.006   3.398   9.578 -0.1009 -0.4913  0.6075
  174SAPI   H8Y19795   6.091   3.505   9.693  0.0342  0.1749 -0.4519
  174SAPI   C3919796   5.980   3.620   9.562  0.6911  0.5993 -0.0886
  174SAPI   H9X19797   6.075   3.664   9.526  1.3046  0.8739  1.7427
  174SAPI   H9Y19798   5.921   3.691   9.624  0.4401 -0.4841  0.9375
  174SAPI  C31019799   5.898   3.571   9.440  0.0115 -0.0723  0.1419
  174SAPI  H10X19800   5.801   3.522   9.462  1.5740 -2.5171  2.1196
  174SAPI  H10Y19801   5.951   3.485   9.394  0.5353  0.8488 -1.0641
  174SAPI  C31119802   5.873   3.686   9.339 -0.5402  0.4516 -0.5165
  174SAPI  H11X19803   5.971   3.737   9.329  0.6592 -0.1682  4.8048
  174SAPI  H11Y19804   5.805   3.764   9.382  0.5674  2.4892 -2.2698
  174SAPI  C31219805   5.833   3.640   9.209  0.1340 -0.4062  0.2607
  174SAPI  H12X19806   5.731   3.600   9.226  0.9039 -3.3260 -1.3275
  174SAPI  H12Y19807   5.898   3.564   9.160  1.1086  0.2775  0.4503
  174SAPI  C31319808   5.817   3.755   9.110  0.4018 -0.3607  0.1764
  174SAPI  H13X19809   5.922   3.788   9.098  0.2383 -0.1002 -0.5736
  174SAPI  H13Y19810   5.758   3.840   9.151 -0.7808 -1.4014  0.7145
  174SAPI  C31419811   5.755   3.701   8.982  0.1334  0.2996  0.3556
  174SAPI  H14X19812   5.664   3.641   9.006  0.4137 -0.3087 -0.0611
  174SAPI  H14Y19813   5.831   3.625   8.953  0.6686  0.7501  0.5651
  174SAPI  C31519814   5.746   3.801   8.870 -0.1027  0.3629  0.4627
  174SAPI  H15X19815   5.692   3.888   8.916  1.8933  1.2657  1.1973
  174SAPI  H15Y19816   5.668   3.750   8.809 -2.6661  1.0086  2.9503
  174SAPI  C31619817   5.874   3.837   8.794 -0.7143 -0.5792 -0.2689
  174SAPI  H16X19818   5.901   3.757   8.723  3.6041  0.4120 -0.0064
  174SAPI  H16Y19819   5.956   3.834   8.870 -0.2647  0.3967 -0.6963
  174SAPI  C31719820   5.883   3.972   8.718 -0.2449  0.6802  0.3061
  174SAPI  H17X19821   5.986   3.966   8.676 -0.0396 -1.7542  0.9985
  174SAPI  H17Y19822   5.866   4.052   8.793  1.1399  0.2563  1.0950
  174SAPI  C31819823   5.781   3.983   8.609  0.0426  0.2850  0.0513
  174SAPI  H18X19824   5.679   3.962   8.648 -0.0751  1.3459  0.3666
  174SAPI  H18Y19825   5.816   3.912   8.531  3.5378 -0.2121  1.8431
  174SAPI  H18Z19826   5.786   4.087   8.569  0.6628 -0.0284 -0.7025
  175SAPI   C1219827   0.712   0.780   6.509 -0.9509  0.2012  0.0607
  175SAPI    H219828   0.683   0.854   6.586  0.8063  0.7180  0.2584
  175SAPI    O219829   0.849   0.748   6.517 -0.0674  0.6107  0.2594
  175SAPI   HO219830   0.897   0.831   6.523  0.5657  0.2341  0.4560
  175SAPI   C1319831   0.622   0.661   6.542  0.2637 -0.7828  0.1403
  175SAPI    H319832   0.521   0.708   6.537  0.8532  0.4074 -2.9726
  175SAPI    O319833   0.645   0.617   6.673  0.3104  0.2583 -0.8125
  175SAPI   HO319834   0.729   0.572   6.681  1.2471  1.9558 -0.8178
  175SAPI   C1419835   0.641   0.550   6.448 -0.4413 -0.5762  0.0763
  175SAPI    H419836   0.750   0.527   6.458  0.0187  1.8446  1.4267
  175SAPI    O419837   0.552   0.447   6.491 -0.3454 -0.0043 -0.1915
  175SAPI   HO419838   0.562   0.447   6.587  1.7792 -4.8173 -0.1711
  175SAPI   C1519839   0.609   0.605   6.305 -0.0268  0.2243 -0.5692
  175SAPI    H519840   0.505   0.642   6.307 -0.8130 -1.8252 -0.8171
  175SAPI    O519841   0.606   0.498   6.215  0.4854  0.5007 -0.5663
  175SAPI   HO519842   0.669   0.432   6.246 -2.4987 -1.4207  2.0689
  175SAPI   C1619843   0.704   0.727   6.264  0.0749  0.9753  0.0020
  175SAPI    H619844   0.807   0.684   6.260 -0.4934 -0.4899  0.6933
  175SAPI    O619845   0.671   0.773   6.138  0.1136 -0.1268 -0.5505
  175SAPI   HO619846   0.678   0.868   6.144 -1.2408 -0.0909  1.4413
  175SAPI   C1119847   0.697   0.833   6.371  0.0387 -0.1042  0.5629
  175SAPI    H119848   0.592   0.868   6.368  0.6825  2.2022 -4.4748
  175SAPI     P19849   0.745   1.076   6.267  0.9625 -0.0036  0.1261
  175SAPI   O1319850   0.666   1.036   6.145 -0.2416  0.1856  0.0761
  175SAPI   O1419851   0.853   1.172   6.257 -0.0196  0.3598  0.2307
  175SAPI   O1219852   0.786   0.943   6.353 -0.2592 -0.3904  0.4558
  175SAPI   O1119853   0.629   1.131   6.366  0.0404  0.1125 -0.0411
  175SAPI    C119854   0.660   1.169   6.499  0.1301  0.1011  0.0122
  175SAPI    HA19855   0.595   1.111   6.568  2.0257 -0.0642  1.7532
  175SAPI    HB19856   0.757   1.132   6.539 -0.5693  0.1191  1.8037
  175SAPI    C219857   0.654   1.317   6.534  0.1415 -0.4400 -0.5519
  175SAPI    HS19858   0.754   1.345   6.575 -1.2703  2.4649  1.2415
  175SAPI   O2119859   0.561   1.338   6.641 -0.0793 -0.2839  0.0386
  175SAPI   C2119860   0.601   1.314   6.767  0.2589  0.6715  0.5935
  175SAPI   O2219861   0.711   1.269   6.795  0.0455 -0.2304 -0.0524
  175SAPI   C2219862   0.499   1.350   6.869  0.5674 -0.1576 -0.6322
  175SAPI   H2R19863   0.505   1.456   6.902  1.1407 -0.5127  0.4786
  175SAPI   H2S19864   0.392   1.337   6.841 -0.0934  1.4004  0.9331
  175SAPI    C319865   0.619   1.403   6.413  0.3788  0.7500  0.0176
  175SAPI    HX19866   0.509   1.390   6.410  0.2407  0.4269  3.3072
  175SAPI    HY19867   0.673   1.362   6.325  0.3811 -0.3795  0.5292
  175SAPI   O3119868   0.640   1.537   6.434 -0.1610  0.0855 -0.1343
  175SAPI   C3119869   0.762   1.589   6.411 -0.2452  0.7016 -0.3072
  175SAPI   O3219870   0.859   1.535   6.356 -0.2086  0.3432 -0.2195
  175SAPI   C3219871   0.755   1.726   6.459  0.3237 -0.8711  0.5179
  175SAPI   H2X19872   0.658   1.768   6.425 -0.4251 -0.8841  2.4931
  175SAPI   H2Y19873   0.833   1.797   6.426 -1.5774  1.4063  0.6682
  175SAPI   C2319874   0.495   1.271   6.997  0.2195 -0.2338 -0.2179
  175SAPI   H3R19875   0.597   1.258   7.038  0.5912 -0.2115 -1.1111
  175SAPI   H3S19876   0.466   1.164   6.987 -0.3911  0.0773 -2.2383
  175SAPI   C2419877   0.407   1.339   7.104  0.0615  0.2011 -0.3071
  175SAPI   H4R19878   0.414   1.450   7.097 -0.4019  0.1400 -2.1550
  175SAPI   H4S19879   0.454   1.310   7.200  3.7864 -2.1556 -2.6263
  175SAPI   C2519880   0.261   1.288   7.089 -0.3471 -0.1151 -1.0507
  175SAPI   H5R19881   0.247   1.190   7.138  0.4477  0.3721  0.2174
  175SAPI   C2619882   0.157   1.360   7.045 -0.1878  0.1924  0.1935
  175SAPI   H6R19883   0.054   1.323   7.058 -0.4463  1.3995  1.9048
  175SAPI   C2719884   0.170   1.507   7.001 -0.2754 -0.2797 -0.1043
  175SAPI   H7R19885   0.264   1.528   6.947 -0.2417 -0.4856 -0.1279
  175SAPI   H7S19886   0.158   1.573   7.089 -0.5985 -0.9377  0.3569
  175SAPI   C2819887   0.061   1.530   6.894  0.0790 -0.2117  0.4637
  175SAPI   H8R19888   0.080   1.466   6.806 -0.1141 -0.3801  0.5443
  175SAPI   C2919889  -0.039   1.624   6.892  0.3388  0.3519 -0.7150
  175SAPI   H9R19890  -0.113   1.627   6.811  0.5399  0.8893 -0.8837
  175SAPI  C21019891  -0.085   1.720   6.996 -1.1283 -0.0527  0.7102
  175SAPI  H10R19892  -0.062   1.678   7.097  1.9917  0.1905  0.1901
  175SAPI  H10S19893  -0.195   1.739   7.000 -0.8300  2.1410 -0.1579
  175SAPI  C21119894  -0.021   1.854   6.975 -0.4509 -0.0298 -0.2142
  175SAPI  H11R19895   0.008   1.880   6.872  1.5708  0.1234  0.3382
  175SAPI  C21219896   0.016   1.942   7.069 -0.1290  0.9811  0.2325
  175SAPI  H12R19897   0.066   2.036   7.039 -0.0106  0.7757 -0.2221
  175SAPI  C21319898   0.017   1.915   7.221  0.3065  0.7201 -0.1796
  175SAPI  H13R19899   0.069   1.818   7.238 -1.8437 -0.4530  0.1303
  175SAPI  H13S19900  -0.079   1.891   7.272 -0.0071 -0.9077 -1.4482
  175SAPI  C21419901   0.088   2.027   7.293 -0.9391  0.6566  0.1920
  175SAPI  H14R19902   0.157   2.085   7.232  0.4008 -0.2669  0.7826
  175SAPI  C21519903   0.073   2.058   7.419 -0.5097 -0.5390 -0.2006
  175SAPI  H15R19904   0.143   2.136   7.452  0.2439 -1.1769 -0.2398
  175SAPI  C21619905  -0.010   2.002   7.530 -0.3716  0.5229 -0.5385
  175SAPI  H16R19906  -0.095   1.940   7.495 -0.1021  1.1709 -2.4771
  175SAPI  H16S19907  -0.063   2.094   7.563  0.1935  0.3937  0.7796
  175SAPI  C21719908   0.062   1.943   7.654  0.1625 -0.6151  0.2019
  175SAPI  H17R19909   0.147   1.875   7.631  0.2929  0.4447 -2.7784
  175SAPI  H17S19910  -0.018   1.897   7.715 -0.1477 -0.8228 -0.3597
  175SAPI  C21819911   0.112   2.058   7.754 -1.1655  0.3022 -0.8855
  175SAPI  H18R19912   0.030   2.126   7.784 -0.9042  1.0877 -1.8803
  175SAPI  H18S19913   0.189   2.117   7.700  0.1309 -0.5163  0.0117
  175SAPI  C21919914   0.174   2.012   7.889  0.1588 -0.0767  0.5905
  175SAPI  H19R19915   0.272   1.962   7.874 -0.6776 -1.2139 -1.4948
  175SAPI  H19S19916   0.114   1.929   7.931 -0.9606  0.0809 -0.6145
  175SAPI  C22019917   0.191   2.127   7.984  0.4150 -0.9795 -0.3750
  175SAPI  H20R19918   0.230   2.212   7.925 -0.0465 -0.3149  0.2557
  175SAPI  H20S19919   0.265   2.111   8.066  1.2837  1.4462 -0.6184
  175SAPI  H20T19920   0.097   2.149   8.040 -1.8624  0.3436 -4.3245
  175SAPI   C3319921   0.756   1.715   6.615 -0.4448  0.3954 -0.4206
  175SAPI   H3X19922   0.674   1.656   6.661 -0.8688  0.2499 -1.3298
  175SAPI   H3Y19923   0.726   1.815   6.652 -2.2372 -0.6497  1.1756
  175SAPI   C3419924   0.900   1.667   6.665  0.2802 -0.0293 -0.0113
  175SAPI   H4X19925   0.981   1.719   6.608  1.0519  0.0933  1.1698
  175SAPI   H4Y19926   0.901   1.556   6.655 -1.9968 -0.1223  0.3344
  175SAPI   C3519927   0.922   1.708   6.808 -0.5092 -1.0973  0.0214
  175SAPI   H5X19928   0.870   1.807   6.809 -1.6274 -1.6668  1.4294
  175SAPI   H5Y19929   1.030   1.729   6.826 -0.5380  0.5402 -1.3958
  175SAPI   C3619930   0.864   1.621   6.919  0.4091  0.1385 -0.9563
  175SAPI   H6X19931   0.919   1.528   6.894  0.4371  0.6024 -2.7663
  175SAPI   H6Y19932   0.755   1.599   6.912  0.6174 -1.2261 -0.2369
  175SAPI   C3719933   0.895   1.672   7.066  0.1298  0.0198  1.0982
  175SAPI   H7X19934   0.859   1.777   7.069  1.6448  0.5976  0.2200
  175SAPI   H7Y19935   1.004   1.666   7.086  0.4981 -0.8409 -0.8736
  175SAPI   C3819936   0.821   1.586   7.164 -0.1854 -0.0171  0.1664
  175SAPI   H8X19937   0.845   1.480   7.140  1.2353  0.3734 -0.2510
  175SAPI   H8Y19938   0.712   1.600   7.149 -0.0631  0.5174 -0.2527
  175SAPI   C3919939   0.863   1.591   7.315  0.2105 -0.2528 -0.6262
  175SAPI   H9X19940   0.853   1.695   7.353  1.2115 -0.4876  0.3099
  175SAPI   H9Y19941   0.970   1.565   7.330  0.4292 -0.3716 -2.1865
  175SAPI  C31019942   0.782   1.492   7.403 -0.5592  1.1368 -0.4427
  175SAPI  H10X19943   0.778   1.394   7.351 -0.2011 -0.3846  2.2117
  175SAPI  H10Y19944   0.679   1.533   7.402 -0.7976  0.5426 -0.1739
  175SAPI  C31119945   0.863   1.461   7.534  0.1777 -0.6810 -0.4169
  175SAPI  H11X19946   0.965   1.424   7.514 -0.7529 -4.2503  0.6067
  175SAPI  H11Y19947   0.799   1.381   7.578 -0.2126  0.2598  0.7950
  175SAPI  C31219948   0.863   1.582   7.633 -0.9080  0.5361  0.2351
  175SAPI  H12X19949   0.882   1.675   7.575  1.1233  0.1536  0.2145
  175SAPI  H12Y19950   0.947   1.572   7.705 -0.8459 -1.5876 -0.0566
  175SAPI  C31319951   0.738   1.577   7.713  0.6525  0.8731 -0.9584
  175SAPI  H13X19952   0.721   1.486   7.774  1.0949  1.9074  0.7803
  175SAPI  H13Y19953   0.646   1.584   7.651 -1.5310  0.4926  2.0145
  175SAPI  C31419954   0.737   1.699   7.812  0.4225 -0.6936  0.6539
  175SAPI  H14X19955   0.763   1.789   7.754  0.5245 -0.4287  1.1080
  175SAPI  H14Y19956   0.814   1.686   7.891  1.0508  1.7248  0.5124
  175SAPI  C31519957   0.600   1.729   7.880  0.4351  0.1041  0.0543
  175SAPI  H15X19958   0.516   1.733   7.807 -1.4913 -4.6322  1.6265
  175SAPI  H15Y19959   0.605   1.830   7.926  0.7192  0.9814 -1.8098
  175SAPI  C31619960   0.561   1.625   7.987  0.1914 -0.2069  0.8127
  175SAPI  H16X19961   0.642   1.639   8.062 -0.1773  1.2196  0.9641
  175SAPI  H16Y19962   0.560   1.519   7.955  2.8217 -0.1055  0.1472
  175SAPI  C31719963   0.426   1.658   8.058  0.7918  0.0168  0.6976
  175SAPI  H17X19964   0.351   1.642   7.978  1.0878  0.7249  0.2721
  175SAPI  H17Y19965   0.427   1.769   8.071  0.7688  0.3042 -1.3645
  175SAPI  C31819966   0.398   1.581   8.179  0.7167  0.4371  0.1494
  175SAPI  H18X19967   0.291   1.581   8.207  0.0322 -1.4606 -2.0982
  175SAPI  H18Y19968   0.449   1.618   8.270 -0.2117 -0.1254  0.9149
  175SAPI  H18Z19969   0.427   1.475   8.161  3.5614  0.6342  2.7216
  176SAPI   C1219970   2.178   4.938   6.177  1.4792  0.4868  0.4257
  176SAPI    H219971   2.226   4.908   6.273 -0.0691  1.7180  1.6282
  176SAPI    O219972   2.170   5.079   6.177 -0.3780  0.0127 -0.0009
  176SAPI   HO219973   2.106   5.100   6.245  2.0888  1.8230  1.9747
  176SAPI   C1319974   2.262   4.893   6.057 -0.1063  0.2164 -0.8392
  176SAPI    H319975   2.277   4.784   6.064  1.2599  0.4721  0.7175
  176SAPI    O319976   2.394   4.949   6.063  0.5216 -0.0389  0.0915
  176SAPI   HO319977   2.375   5.042   6.047 -1.5346  0.1158  2.7142
  176SAPI   C1419978   2.197   4.932   5.923  0.2248  0.0143  0.4988
  176SAPI    H419979   2.187   5.042   5.909  0.6605 -0.0463 -0.3660
  176SAPI    O419980   2.271   4.897   5.802  0.3308 -0.5960 -0.1282
  176SAPI   HO419981   2.250   4.806   5.779 -0.8513 -0.1663 -0.8164
  176SAPI   C1519982   2.060   4.873   5.917 -0.2055 -0.9339  0.0678
  176SAPI    H519983   2.068   4.763   5.912 -1.6860 -1.0047 -2.0315
  176SAPI    O519984   1.999   4.903   5.789  0.7142  0.0858 -0.1722
  176SAPI   HO519985   1.924   4.844   5.801 -2.1420  3.8608  3.7147
  176SAPI   C1619986   1.976   4.922   6.032  0.0672 -0.2097 -0.4487
  176SAPI    H619987   1.959   5.032   6.040  0.1718 -0.2995  1.4077
  176SAPI    O619988   1.851   4.850   6.025  0.1089 -0.7250  0.2100
  176SAPI   HO619989   1.776   4.901   6.057  0.6663  0.2170  0.0685
  176SAPI   C1119990   2.038   4.877   6.166 -0.0421  0.0557 -0.7211
  176SAPI    H119991   2.053   4.767   6.161 -1.2074 -0.2405  1.0375
  176SAPI     P19992   1.953   4.791   6.411 -0.2789 -0.2871 -0.1359
  176SAPI   O1319993   1.976   4.656   6.363 -0.3075  0.3377 -0.4622
  176SAPI   O1419994   1.829   4.818   6.488 -0.0642 -0.2126  0.5084
  176SAPI   O1219995   1.963   4.901   6.286  0.2667  0.2670 -0.5357
  176SAPI   O1119996   2.079   4.835   6.505 -0.0577 -0.4035 -0.3176
  176SAPI    C119997   2.057   4.932   6.610 -0.1751  0.2818 -0.6998
  176SAPI    HA19998   2.146   4.998   6.614 -0.0597  0.1015 -0.2271
  176SAPI    HB19999   1.968   4.995   6.593 -0.6624  0.0102  0.7654
  176SAPI    C220000   2.028   4.867   6.745 -0.5715 -0.2364  0.6750
  176SAPI    HS20001   1.935   4.808   6.758  1.1487 -2.8903  1.7652
  176SAPI   O2120002   2.055   4.955   6.852 -0.6456 -0.2494 -0.3538
  176SAPI   C2120003   1.958   5.044   6.862  0.2969  0.2664  1.3006
  176SAPI   O2220004   1.858   5.043   6.788 -0.1828 -0.4515 -0.0838
  176SAPI   C2220005   1.983   5.147   6.969  0.0667 -0.4249 -1.1715
  176SAPI   H2R20006   2.050   5.225   6.927  1.5992 -1.1362 -0.1506
  176SAPI   H2S20007   1.887   5.184   7.011  0.9286 -1.3640  1.8437
  176SAPI    C320008   2.128   4.745   6.768 -0.2762  0.5039 -0.0269
  176SAPI    HX20009   2.231   4.785   6.764  1.8391 -3.7462  3.2206
  176SAPI    HY20010   2.121   4.677   6.680 -0.8132  0.3146  0.1542
  176SAPI   O3120011   2.092   4.670   6.884  0.0626 -0.0268 -0.3178
  176SAPI   C3120012   2.176   4.699   6.988 -0.7588  0.3649  0.1730
  176SAPI   O3220013   2.287   4.751   6.975 -1.0914  0.4217 -0.1490
  176SAPI   C3220014   2.109   4.648   7.116  0.2402 -0.3004  0.0678
  176SAPI   H2X20015   2.094   4.539   7.106 -3.5428  0.0695  0.2086
  176SAPI   H2Y20016   2.010   4.698   7.116 -0.4649 -1.4994  2.9567
  176SAPI   C2320017   2.062   5.107   7.100 -0.6641 -0.6096  0.2576
  176SAPI   H3R20018   2.163   5.064   7.086 -0.4833 -0.3331  0.6874
  176SAPI   H3S20019   1.997   5.031   7.148 -2.1745  0.8241  0.5801
  176SAPI   C2420020   2.070   5.225   7.200  0.0091 -0.1107  0.0365
  176SAPI   H4R20021   2.054   5.315   7.138 -0.9925 -0.5915 -0.4296
  176SAPI   H4S20022   2.173   5.216   7.241  0.9200  1.1131 -1.8621
  176SAPI   C2520023   1.970   5.215   7.313  0.3125 -0.0847  0.0848
  176SAPI   H5R20024   1.871   5.239   7.272 -0.5878 -1.1294  1.5582
  176SAPI   C2620025   1.992   5.190   7.446  0.7425 -0.3531  0.5631
  176SAPI   H6R20026   1.903   5.182   7.510 -0.4643 -1.8266 -1.1862
  176SAPI   C2720027   2.113   5.171   7.530  0.0947 -0.5098 -0.1609
  176SAPI   H7R20028   2.203   5.157   7.466 -0.9111 -0.8046 -1.5467
  176SAPI   H7S20029   2.101   5.078   7.589 -0.0543 -1.0505 -1.0289
  176SAPI   C2820030   2.141   5.279   7.632 -0.3831  0.1093 -0.5091
  176SAPI   H8R20031   2.199   5.361   7.587 -0.8522  1.0318  0.5253
  176SAPI   C2920032   2.106   5.299   7.757  0.1784 -0.2955 -0.4400
  176SAPI   H9R20033   2.142   5.392   7.804  1.9370 -0.4553 -1.3926
  176SAPI  C21020034   2.020   5.197   7.836 -0.2732 -0.4349 -0.0233
  176SAPI  H10R20035   2.072   5.102   7.861  0.1361 -0.3726 -0.5944
  176SAPI  H10S20036   1.934   5.178   7.768  0.3563  1.6485 -1.5116
  176SAPI  C21120037   1.968   5.267   7.960 -0.5547  0.1992 -0.3726
  176SAPI  H11R20038   1.869   5.314   7.948 -1.6354 -2.3783 -2.4414
  176SAPI  C21220039   2.034   5.264   8.079 -0.3909 -0.2732 -0.0562
  176SAPI  H12R20040   2.000   5.335   8.156  2.2702  0.7952  0.2351
  176SAPI  C21320041   2.169   5.203   8.113  0.1711 -0.1449  0.1758
  176SAPI  H13R20042   2.216   5.162   8.021 -1.2828 -0.9847 -0.2200
  176SAPI  H13S20043   2.149   5.120   8.184  0.5296  0.1998  0.6833
  176SAPI  C21420044   2.257   5.305   8.184 -0.1140 -0.0218 -0.2637
  176SAPI  H14R20045   2.324   5.364   8.119  0.6387 -0.1097  0.4061
  176SAPI  C21520046   2.262   5.321   8.315  0.1136  0.5553 -0.4341
  176SAPI  H15R20047   2.342   5.376   8.365  0.1922  1.4041 -1.4724
  176SAPI  C21620048   2.186   5.230   8.409  0.0074  0.0614 -0.4768
  176SAPI  H16R20049   2.256   5.144   8.410 -0.0560 -0.0506 -2.5399
  176SAPI  H16S20050   2.093   5.182   8.373  1.2637 -1.2968 -2.0468
  176SAPI  C21720051   2.161   5.288   8.548  0.4064 -0.7354  0.1766
  176SAPI  H17R20052   2.118   5.205   8.609 -1.1371  0.8857  1.4396
  176SAPI  H17S20053   2.081   5.365   8.536 -1.7948 -2.9115 -0.0568
  176SAPI  C21820054   2.279   5.352   8.611 -0.0056 -0.1127 -0.2373
  176SAPI  H18R20055   2.301   5.445   8.553  0.4067 -0.1695 -0.1782
  176SAPI  H18S20056   2.356   5.275   8.590 -0.0490  0.3938 -2.5572
  176SAPI  C21920057   2.263   5.397   8.754  0.0490 -0.1265 -0.4038
  176SAPI  H19R20058   2.169   5.454   8.768  0.0543 -0.3288  0.5109
  176SAPI  H19S20059   2.345   5.464   8.788 -0.1596 -0.4251  0.7251
  176SAPI  C22020060   2.252   5.280   8.855 -1.6115 -1.0515 -0.6691
  176SAPI  H20R20061   2.226   5.326   8.953 -1.1807 -2.4701  0.1398
  176SAPI  H20S20062   2.332   5.203   8.865 -0.1160  0.6815  1.8882
  176SAPI  H20T20063   2.167   5.218   8.821 -0.4905 -2.4065 -1.0861
  176SAPI   C3320064   2.181   4.689   7.250 -0.2260  0.5617  0.4096
  176SAPI   H3X20065   2.196   4.798   7.239 -2.9775  0.9264 -0.7017
  176SAPI   H3Y20066   2.278   4.636   7.258  0.0738  0.8120 -1.2429
  176SAPI   C3420067   2.087   4.674   7.374  0.2740 -0.1189  0.6686
  176SAPI   H4X20068   2.034   4.576   7.386 -0.3020  0.0758 -0.1762
  176SAPI   H4Y20069   2.003   4.742   7.348  2.3660  1.7381 -1.7691
  176SAPI   C3520070   2.145   4.716   7.508 -0.5174 -0.3029 -0.1990
  176SAPI   H5X20071   2.199   4.812   7.494 -0.0251 -0.2052  2.0022
  176SAPI   H5Y20072   2.221   4.637   7.527  1.4762  0.3856 -4.2066
  176SAPI   C3620073   2.042   4.738   7.612 -0.3500  0.1634  0.1519
  176SAPI   H6X20074   2.000   4.637   7.631 -1.6299  0.9345  1.5994
  176SAPI   H6Y20075   1.955   4.799   7.581 -3.6694 -2.6671  3.0452
  176SAPI   C3720076   2.095   4.788   7.748  0.0128  0.1378  0.5624
  176SAPI   H7X20077   2.022   4.855   7.797  1.2552  1.3549  0.8287
  176SAPI   H7Y20078   2.183   4.849   7.718  0.4400 -0.4887  0.5120
  176SAPI   C3820079   2.143   4.679   7.847 -0.1191 -0.0850 -0.2324
  176SAPI   H8X20080   2.225   4.622   7.797  0.3240  1.3370 -1.1709
  176SAPI   H8Y20081   2.061   4.611   7.881  1.1312 -1.9847 -0.8565
  176SAPI   C3920082   2.219   4.735   7.970  0.6201  0.9021  0.0089
  176SAPI   H9X20083   2.176   4.833   8.000  1.8101  1.2618  0.5795
  176SAPI   H9Y20084   2.321   4.767   7.940  0.5571  1.0015 -0.1026
  176SAPI  C31020085   2.212   4.647   8.094  0.2887 -0.5912  0.0624
  176SAPI  H10X20086   2.249   4.545   8.072 -0.4045 -0.4831 -1.7317
  176SAPI  H10Y20087   2.108   4.628   8.128 -0.2455 -2.9187 -2.4742
  176SAPI  C31120088   2.302   4.703   8.206 -0.0900 -0.0172 -0.7087
  176SAPI  H11X20089   2.266   4.652   8.297 -1.5695  0.6889 -0.8809
  176SAPI  H11Y20090   2.273   4.810   8.213 -0.8274 -0.2064 -0.8694
  176SAPI  C31220091   2.450   4.682   8.178 -0.2431  0.2264  0.1746
  176SAPI  H12X20092   2.470   4.722   8.077 -0.1736 -2.4406 -0.9721
  176SAPI  H12Y20093   2.474   4.573   8.181 -1.4490 -0.0473  0.7105
  176SAPI  C31320094   2.534   4.752   8.292 -0.7017 -0.1757 -0.9843
  176SAPI  H13X20095   2.491   4.722   8.390  2.6977 -1.4604  0.2717
  176SAPI  H13Y20096   2.532   4.862   8.275  0.2664 -0.5114 -3.8422
  176SAPI  C31420097   2.678   4.706   8.305 -0.6263 -0.4073  0.6593
  176SAPI  H14X20098   2.734   4.709   8.208  1.0291 -1.8105  1.5130
  176SAPI  H14Y20099   2.688   4.599   8.332  0.7520  0.2005  2.8205
  176SAPI  C31520100   2.762   4.793   8.397 -0.1324  0.2226  1.5532
  176SAPI  H15X20101   2.734   4.899   8.377  2.3845  0.8107  0.7649
  176SAPI  H15Y20102   2.871   4.790   8.373 -0.7235 -1.0413 -1.3662
  176SAPI  C31620103   2.756   4.764   8.545  0.8691  0.2020 -0.6271
  176SAPI  H16X20104   2.648   4.764   8.573  0.4735  1.2872 -2.0089
  176SAPI  H16Y20105   2.800   4.844   8.607  0.7743 -0.5862  0.4830
  176SAPI  C31720106   2.844   4.642   8.572 -0.1096  0.2792 -0.6974
  176SAPI  H17X20107   2.943   4.643   8.521  1.6262 -1.9847  2.2671
  176SAPI  H17Y20108   2.798   4.556   8.517 -1.0073 -0.2281  0.7930
  176SAPI  C31820109   2.856   4.609   8.723 -0.2187 -0.2697 -0.4974
  176SAPI  H18X20110   2.939   4.657   8.780 -0.6454 -2.6977  2.4599
  176SAPI  H18Y20111   2.851   4.498   8.725 -1.9064 -0.2324 -0.8003
  176SAPI  H18Z20112   2.763   4.649   8.769 -0.2973 -1.1987  0.1812
  177SLPC     N20113   1.284   4.437  11.120 -0.3723 -0.3544  0.5405
  177SLPC   C1320114   1.247   4.575  11.100 -0.1377  0.8862  0.4760
  177SLPC  H13A20115   1.213   4.616  11.194 -0.7003  2.6588 -0.4497
  177SLPC  H13B20116   1.326   4.634  11.056 -1.5548  1.4508 -1.4646
  177SLPC  H13C20117   1.160   4.576  11.036  0.0658  1.0316  0.2024
  177SLPC   C1420118   1.173   4.371  11.197  0.2943 -0.2067 -0.2813
  177SLPC  H14A20119   1.158   4.422  11.292 -0.1321  1.9941 -1.4662
  177SLPC  H14B20120   1.076   4.387  11.152  0.1468 -1.9420 -0.6439
  177SLPC  H14C20121   1.188   4.267  11.219  0.0895 -0.7094 -2.3777
  177SLPC   C1520122   1.409   4.423  11.202 -0.2495  0.1309 -0.1099
  177SLPC  H15A20123   1.493   4.477  11.160  0.3752  1.1670  2.3024
  177SLPC  H15B20124   1.398   4.468  11.300  0.8733  1.5460 -0.5964
  177SLPC  H15C20125   1.442   4.320  11.203  1.2325  0.5840  0.9071
  177SLPC   C1220126   1.309   4.365  10.985  0.2747  0.0884  0.1183
  177SLPC  H12A20127   1.217   4.367  10.929  0.1077  1.2197  0.4237
  177SLPC  H12B20128   1.329   4.261  11.007 -0.0240 -0.0951 -0.4685
  177SLPC   C1120129   1.422   4.421  10.894  0.2140  0.5987 -0.4494
  177SLPC  H11A20130   1.397   4.528  10.877  1.4598  0.6163 -2.5045
  177SLPC  H11B20131   1.421   4.363  10.800  2.7447 -0.8294  0.2996
  177SLPC     P20132   1.631   4.267  10.927  0.1733 -0.3692  0.1776
  177SLPC   O1320133   1.755   4.274  11.009 -0.6289 -0.0823  0.6352
  177SLPC   O1420134   1.541   4.158  10.958 -0.0139  0.1722  0.2213
  177SLPC   O1220135   1.552   4.405  10.955 -0.4418 -0.0820 -0.0777
  177SLPC   O1120136   1.659   4.258  10.772  0.1019 -0.1442 -0.0757
  177SLPC    C120137   1.696   4.374  10.696 -0.7606  0.5087  0.1555
  177SLPC    HA20138   1.613   4.420  10.637 -0.9059  1.5601  1.1434
  177SLPC    HB20139   1.748   4.451  10.757  2.3204 -2.8157  2.1313
  177SLPC    C220140   1.803   4.330  10.589 -0.3711 -0.5897  0.2638
  177SLPC    HS20141   1.841   4.423  10.541 -0.2362 -0.0741  1.3457
  177SLPC   O2120142   1.741   4.248  10.487  0.1876  0.7255 -0.3310
  177SLPC   C2120143   1.691   4.304  10.382  0.1231  0.2526 -0.1189
  177SLPC   O2220144   1.676   4.422  10.365  0.1612  0.0957  0.0305
  177SLPC   C2220145   1.652   4.191  10.280  0.0051 -0.2462  0.0153
  177SLPC   H2R20146   1.662   4.093  10.331 -0.2829 -2.3665 -3.6843
  177SLPC   H2S20147   1.547   4.208  10.249  0.3491  1.0142 -0.5453
  177SLPC    C320148   1.925   4.250  10.651  0.4165 -0.0400  0.8500
  177SLPC    HX20149   1.905   4.156  10.706 -0.4152  0.2884  1.1110
  177SLPC    HY20150   1.972   4.326  10.717  1.1071 -1.0154  1.5216
  177SLPC   O3120151   2.023   4.226  10.546  0.2276 -0.2937 -0.3816
  177SLPC   C3120152   2.018   4.107  10.489 -0.1073 -0.1042  0.3367
  177SLPC   O3220153   1.934   4.025  10.513 -0.0552 -0.5197  0.5122
  177SLPC   C3220154   2.121   4.111  10.371  0.3692  0.4430  0.2901
  177SLPC   H2X20155   2.222   4.096  10.415  0.8554  1.2854 -0.5107
  177SLPC   H2Y20156   2.112   4.210  10.322  0.0018  0.1346 -0.2793
  177SLPC   C2320157   1.746   4.181  10.156  0.0608  0.3452  0.1003
  177SLPC   H3R20158   1.743   4.083  10.103 -0.5957  0.5637 -0.2700
  177SLPC   H3S20159   1.853   4.195  10.183  0.1084 -0.0567  0.1329
  177SLPC   C2420160   1.716   4.288  10.050 -0.0422  0.4598 -0.6114
  177SLPC   H4R20161   1.808   4.340  10.016 -0.2245  0.4542 -1.1173
  177SLPC   H4S20162   1.661   4.368  10.103 -0.8311 -0.6370  0.2963
  177SLPC   C2520163   1.627   4.223   9.945 -0.0164  0.0739  0.1108
  177SLPC   H5R20164   1.530   4.200   9.995  0.6936  0.3229  1.6787
  177SLPC   H5S20165   1.676   4.134   9.901  0.7505 -0.0626  1.1893
  177SLPC   C2620166   1.586   4.322   9.830  0.1865  0.6132 -0.5503
  177SLPC   H6R20167   1.535   4.257   9.757 -1.6340  0.5585  0.7055
  177SLPC   H6S20168   1.671   4.359   9.768  0.9962 -0.9832 -0.4546
  177SLPC   C2720169   1.493   4.438   9.888  0.5717 -0.1082  0.1931
  177SLPC   H7R20170   1.572   4.498   9.937  0.8348 -0.7735  0.5944
  177SLPC   H7S20171   1.414   4.401   9.957 -0.3945  0.5408 -0.5401
  177SLPC   C2820172   1.427   4.521   9.766  0.0798 -0.0026  0.6303
  177SLPC   H8R20173   1.507   4.542   9.692 -0.9337 -2.4051 -1.2862
  177SLPC   H8S20174   1.387   4.613   9.815 -1.1400 -0.5727  0.7479
  177SLPC   C2920175   1.307   4.455   9.700  0.0603 -0.1511  0.5678
  177SLPC   H9R20176   1.218   4.452   9.764 -2.1131  3.5900 -1.8977
  177SLPC  C21020177   1.301   4.398   9.578  0.0474 -0.9124  0.1738
  177SLPC  H10R20178   1.210   4.356   9.532  0.3124 -0.3374 -0.8904
  177SLPC  C21120179   1.416   4.395   9.482 -0.4666  0.1777  0.4865
  177SLPC  H11R20180   1.495   4.470   9.504  1.3572 -1.2558 -0.8489
  177SLPC  H11S20181   1.467   4.297   9.479 -2.3691 -0.9022 -3.3278
  177SLPC  C21220182   1.356   4.425   9.347  0.3764  1.0016  0.2609
  177SLPC  H12R20183   1.351   4.532   9.325  0.9869  0.4688 -2.9824
  177SLPC  C21320184   1.319   4.342   9.249 -0.0437  0.0775 -0.1655
  177SLPC  H13R20185   1.279   4.387   9.157 -2.6361 -0.2394  0.7229
  177SLPC  C21420186   1.318   4.197   9.240 -0.0551 -0.5373  0.0154
  177SLPC  H14R20187   1.215   4.159   9.223 -0.1459 -0.7087  0.9002
  177SLPC  H14S20188   1.358   4.143   9.328 -0.3023 -0.3396  0.2533
  177SLPC  C21520189   1.400   4.136   9.118 -0.3491  0.2143 -0.0540
  177SLPC  H15R20190   1.357   4.151   9.017 -0.7314 -0.3697  0.0133
  177SLPC  H15S20191   1.399   4.026   9.133  1.6267  0.0754 -0.6153
  177SLPC  C21620192   1.554   4.178   9.121  1.1188  0.1386  0.4666
  177SLPC  H16R20193   1.586   4.160   9.225 -1.0384 -1.0042  1.0001
  177SLPC  H16S20194   1.542   4.288   9.104 -3.7095 -0.1315  0.6763
  177SLPC  C21720195   1.640   4.108   9.025 -0.9230 -0.1270 -0.0195
  177SLPC  H17R20196   1.619   4.152   8.925 -2.3902  1.1225  0.7979
  177SLPC  H17S20197   1.608   4.002   9.020 -0.8548 -0.1972  0.9011
  177SLPC  C21820198   1.788   4.101   9.064 -0.1693  0.1358 -0.0882
  177SLPC  H18R20199   1.830   4.035   8.986 -0.4501 -0.3699  0.1832
  177SLPC  H18S20200   1.810   4.065   9.167  3.8974  0.7395 -0.5910
  177SLPC  H18T20201   1.815   4.208   9.050 -0.6883  0.2969  0.1039
  177SLPC   C3320202   2.095   3.992  10.266 -0.4531  0.1595  0.2462
  177SLPC   H3X20203   1.991   3.988  10.227  0.9855 -0.7214 -4.0256
  177SLPC   H3Y20204   2.104   3.896  10.321  2.2032 -1.3785 -2.5611
  177SLPC   C3420205   2.190   4.011  10.146 -0.3955 -0.5218  0.9429
  177SLPC   H4X20206   2.297   4.015  10.176  0.2461  0.2092 -1.2214
  177SLPC   H4Y20207   2.166   4.112  10.106  1.4520 -0.4522 -0.1162
  177SLPC   C3520208   2.168   3.907  10.043  0.8024 -0.0524  0.2131
  177SLPC   H5X20209   2.069   3.938  10.003  1.7723  3.7403  0.3211
  177SLPC   H5Y20210   2.165   3.804  10.083  2.4762 -1.5226 -3.0428
  177SLPC   C3620211   2.274   3.922   9.930  0.3464  0.6444 -0.1886
  177SLPC   H6X20212   2.372   3.873   9.945  1.0085  1.7699 -0.7059
  177SLPC   H6Y20213   2.302   4.029   9.922 -0.9839  0.9092 -1.7829
  177SLPC   C3720214   2.219   3.883   9.790 -0.3502 -0.2437 -0.7539
  177SLPC   H7X20215   2.149   3.966   9.766 -0.7052 -0.0750  0.7790
  177SLPC   H7Y20216   2.161   3.788   9.782  1.1264 -1.1540 -1.1257
  177SLPC   C3820217   2.330   3.883   9.682  0.9681  0.0595  0.6234
  177SLPC   H8X20218   2.397   3.796   9.697  0.7507 -0.4221 -0.9845
  177SLPC   H8Y20219   2.386   3.979   9.683 -0.3673  0.8879 -0.6501
  177SLPC   C3920220   2.272   3.871   9.540  0.3139  0.4792 -0.4005
  177SLPC   H9X20221   2.211   3.964   9.547  0.3657  0.4248  1.1373
  177SLPC   H9Y20222   2.200   3.786   9.535 -0.6160  1.2179 -0.0260
  177SLPC  C31020223   2.387   3.862   9.439 -0.4974 -0.0835  0.1915
  177SLPC  H10X20224   2.446   3.769   9.453 -3.0036 -2.0001 -1.1521
  177SLPC  H10Y20225   2.458   3.948   9.447 -1.0290  0.4083 -0.2770
  177SLPC  C31120226   2.336   3.850   9.296 -0.1237 -0.4201 -0.3977
  177SLPC  H11X20227   2.282   3.946   9.280  2.3531  1.7124  2.6991
  177SLPC  H11Y20228   2.264   3.765   9.290 -0.7787  0.1491 -0.6864
  177SLPC  C31220229   2.451   3.828   9.194 -0.0162  0.2503 -0.0649
  177SLPC  H12X20230   2.527   3.756   9.232  1.5354  2.4350  1.2329
  177SLPC  H12Y20231   2.498   3.928   9.182  1.8492 -0.5909 -0.1404
  177SLPC  C31320232   2.401   3.779   9.051 -0.5722  0.1752  0.2336
  177SLPC  H13X20233   2.349   3.681   9.057 -0.8557  0.3006 -0.1177
  177SLPC  H13Y20234   2.490   3.771   8.984  1.3521  2.5154  2.3471
  177SLPC  C31420235   2.308   3.884   8.997 -0.8710 -0.2207 -0.1783
  177SLPC  H14X20236   2.350   3.984   9.020 -0.1959 -0.6991  0.7636
  177SLPC  H14Y20237   2.218   3.871   9.060  0.6042  1.7037  2.5475
  177SLPC  C31520238   2.283   3.882   8.839  0.1972 -0.8384 -0.1483
  177SLPC  H15X20239   2.185   3.928   8.813  1.0316  1.9152  1.3008
  177SLPC  H15Y20240   2.267   3.774   8.815 -2.3692 -1.0162  1.9483
  177SLPC  C31620241   2.384   3.934   8.743  0.0652 -0.4077 -0.1076
  177SLPC  H16X20242   2.471   3.866   8.732  1.9348  2.1260 -2.3431
  177SLPC  H16Y20243   2.422   4.024   8.796 -2.3211 -0.3091  1.5630
  177SLPC  C31720244   2.333   3.969   8.601 -0.4259  0.4853  0.1601
  177SLPC  H17X20245   2.431   3.997   8.555  0.5573  0.9645  2.4085
  177SLPC  H17Y20246   2.267   4.057   8.588  0.0527  0.6968 -1.0140
  177SLPC  C31820247   2.273   3.859   8.519 -0.8741  0.4092 -0.0744
  177SLPC  H18X20248   2.338   3.770   8.513  1.3212  1.8402  1.0895
  177SLPC  H18Y20249   2.240   3.890   8.418  0.2770 -2.3062 -1.3983
  177SLPC  H18Z20250   2.176   3.843   8.571 -0.9596 -1.3201 -0.6945
  178SLPC     N20251   4.877   5.248  11.093  0.1181 -0.0339 -0.5913
  178SLPC   C1320252   4.948   5.360  11.041  0.5265 -0.2025  0.2686
  178SLPC  H13A20253   4.977   5.348  10.938 -0.3452 -0.7304  0.0777
  178SLPC  H13B20254   4.878   5.442  11.037 -1.8803 -2.0566  1.6546
  178SLPC  H13C20255   5.034   5.389  11.100  0.4650 -1.6474  1.1121
  178SLPC   C1420256   4.817   5.294  11.224 -0.1911 -0.2100 -0.1821
  178SLPC  H14A20257   4.883   5.359  11.280  0.6442 -0.5090 -0.7876
  178SLPC  H14B20258   4.728   5.351  11.199  0.8440  1.6309  0.0875
  178SLPC  H14C20259   4.784   5.217  11.291 -1.2727 -1.3938 -2.0037
  178SLPC   C1520260   4.972   5.140  11.127 -0.1371  0.2526 -0.9056
  178SLPC  H15A20261   5.060   5.172  11.182  0.1154 -0.5416 -0.8196
  178SLPC  H15B20262   4.928   5.056  11.179  0.4275 -0.4667 -1.5534
  178SLPC  H15C20263   5.007   5.089  11.038  0.0923  0.2392 -0.8110
  178SLPC   C1220264   4.767   5.207  10.990  0.3715  0.4777 -0.5753
  178SLPC  H12A20265   4.686   5.278  11.000 -0.9391 -1.0807  0.3420
  178SLPC  H12B20266   4.715   5.119  11.024  1.1690  0.4780  0.7052
  178SLPC   C1120267   4.794   5.192  10.839  0.3449 -0.8894 -0.0850
  178SLPC  H11A20268   4.705   5.155  10.782 -0.2934  1.2498 -0.5776
  178SLPC  H11B20269   4.868   5.110  10.824  0.5386 -0.7174 -0.0631
  178SLPC     P20270   4.760   5.417  10.709  0.0624 -0.1001 -0.0022
  178SLPC   O1320271   4.671   5.477  10.806 -0.0956 -0.1299  0.3423
  178SLPC   O1420272   4.852   5.509  10.646 -0.1956 -0.4332 -0.1303
  178SLPC   O1220273   4.852   5.307  10.782  0.3297 -0.2733 -0.3911
  178SLPC   O1120274   4.676   5.327  10.607 -0.2165 -0.1462  0.1235
  178SLPC    C120275   4.715   5.305  10.474  0.3322  0.2113  0.2221
  178SLPC    HA20276   4.626   5.293  10.409  0.9968 -0.1208 -0.6514
  178SLPC    HB20277   4.759   5.398  10.430 -0.3233 -0.0761 -1.0713
  178SLPC    C220278   4.820   5.186  10.461 -0.4488  0.0247  0.4247
  178SLPC    HS20279   4.896   5.200  10.541 -1.0889  1.2662  0.8532
  178SLPC   O2120280   4.867   5.165  10.324  0.6606 -0.1048 -0.4106
  178SLPC   C2120281   4.967   5.251  10.298 -0.0990  0.2743 -0.1741
  178SLPC   O2220282   5.019   5.321  10.385 -0.3601  0.5249 -0.3871
  178SLPC   C2220283   5.013   5.244  10.155 -0.2767  0.3163  0.5341
  178SLPC   H2R20284   5.117   5.205  10.157 -0.4440 -0.3276 -1.4198
  178SLPC   H2S20285   4.956   5.172  10.093 -0.2703  0.0099  0.8753
  178SLPC    C320286   4.751   5.053  10.499 -0.4697 -0.1118  0.1653
  178SLPC    HX20287   4.645   5.045  10.467 -0.1455 -1.1960 -0.6826
  178SLPC    HY20288   4.746   5.053  10.610 -1.1823 -0.5603  0.1444
  178SLPC   O3120289   4.831   4.936  10.457  0.5348  0.3351  0.0762
  178SLPC   C3120290   4.788   4.858  10.359  0.5332  0.1149 -0.1704
  178SLPC   O3220291   4.674   4.856  10.312  0.1353  0.3331 -0.1330
  178SLPC   C3220292   4.903   4.758  10.332  0.4589  0.4860 -0.6160
  178SLPC   H2X20293   4.913   4.696  10.424 -1.1798  0.2571 -0.5684
  178SLPC   H2Y20294   4.996   4.816  10.315  0.3875  1.1371  1.0498
  178SLPC   C2320295   5.022   5.378  10.083 -0.1771  0.3818 -0.1326
  178SLPC   H3R20296   5.091   5.446  10.137  0.6512  0.1178 -0.8274
  178SLPC   H3S20297   4.921   5.423  10.080  0.2113  1.2512 -1.4843
  178SLPC   C2420298   5.067   5.362   9.937 -0.0753 -0.8182 -0.2789
  178SLPC   H4R20299   5.006   5.285   9.886 -2.7808  1.2321 -0.3385
  178SLPC   H4S20300   5.175   5.339   9.924 -0.0299 -0.5294 -0.4130
  178SLPC   C2520301   5.044   5.490   9.849  0.0804 -0.1394  0.5933
  178SLPC   H5R20302   5.107   5.573   9.887  3.6364 -2.7763  0.9740
  178SLPC   H5S20303   4.936   5.518   9.843 -0.1613 -1.1904 -0.3469
  178SLPC   C2620304   5.087   5.455   9.710  0.0447  0.0670  0.6368
  178SLPC   H6R20305   5.047   5.359   9.672  0.3295 -0.0099  0.5287
  178SLPC   H6S20306   5.196   5.437   9.709  0.5413  2.4215  2.5379
  178SLPC   C2720307   5.039   5.561   9.606  0.4172  0.2045 -0.7677
  178SLPC   H7R20308   5.049   5.662   9.650 -0.8024 -0.6513  1.7077
  178SLPC   H7S20309   4.928   5.552   9.608  0.1822  2.5842  0.5855
  178SLPC   C2820310   5.094   5.563   9.467 -0.1764  0.2064 -0.2411
  178SLPC   H8R20311   5.203   5.543   9.468 -0.0863  0.5765  2.3973
  178SLPC   H8S20312   5.084   5.665   9.423 -1.0960  0.4478  0.4919
  178SLPC   C2920313   5.044   5.457   9.376  0.3217  0.1781  0.1250
  178SLPC   H9R20314   5.014   5.369   9.436 -0.1981  1.1843  1.3796
  178SLPC  C21020315   5.042   5.469   9.240 -0.4886 -0.0835 -0.2901
  178SLPC  H10R20316   4.990   5.391   9.184  0.1386  1.6550 -3.5390
  178SLPC  C21120317   5.079   5.588   9.154 -0.0512  0.1144 -0.3221
  178SLPC  H11R20318   5.152   5.654   9.206 -1.5049 -0.1284  2.1644
  178SLPC  H11S20319   4.998   5.654   9.116  1.9628  3.0185  0.1092
  178SLPC  C21220320   5.151   5.538   9.031  0.4064 -0.2089 -0.1622
  178SLPC  H12R20321   5.211   5.448   9.054  0.5624 -0.0268  0.1504
  178SLPC  C21320322   5.132   5.580   8.901  0.1692  0.4984  0.6231
  178SLPC  H13R20323   5.202   5.537   8.828  0.0731 -1.8958  1.8329
  178SLPC  C21420324   5.038   5.687   8.845  0.2987  0.0352 -0.2465
  178SLPC  H14R20325   4.989   5.748   8.924 -1.1928  0.9058 -1.7564
  178SLPC  H14S20326   4.961   5.635   8.784 -0.7879  0.0983  1.0260
  178SLPC  C21520327   5.113   5.783   8.757 -0.6419  0.7109 -0.5422
  178SLPC  H15R20328   5.203   5.812   8.816 -1.5658  2.2277  0.2153
  178SLPC  H15S20329   5.056   5.878   8.741  1.7659  2.2063 -0.6932
  178SLPC  C21620330   5.156   5.731   8.617 -0.6870  0.0215  0.3590
  178SLPC  H16R20331   5.068   5.745   8.551 -1.9820 -1.6416  1.6675
  178SLPC  H16S20332   5.184   5.623   8.615 -0.9461 -0.0993  1.9467
  178SLPC  C21720333   5.272   5.816   8.559 -0.5467 -0.4009  0.2781
  178SLPC  H17R20334   5.360   5.809   8.627 -1.9843 -2.6651  2.0301
  178SLPC  H17S20335   5.237   5.921   8.548 -1.0141 -0.5121  0.6797
  178SLPC  C21820336   5.310   5.757   8.415  0.7577 -0.1356 -0.1540
  178SLPC  H18R20337   5.218   5.760   8.352 -0.5539  1.9316  1.6992
  178SLPC  H18S20338   5.364   5.665   8.444 -0.0949 -0.8660 -0.8351
  178SLPC  H18T20339   5.384   5.828   8.371  1.7684 -1.2136 -0.2258
  178SLPC   C3320340   4.874   4.652  10.213  0.1576  0.2479 -0.3797
  178SLPC   H3X20341   4.783   4.592  10.234 -0.7471  0.3987 -3.3485
  178SLPC   H3Y20342   4.972   4.600  10.212  0.2800  0.4532  0.4894
  178SLPC   C3420343   4.848   4.733  10.080 -0.4208 -0.3191 -0.3942
  178SLPC   H4X20344   4.932   4.804  10.066  0.4129 -1.3805 -0.9293
  178SLPC   H4Y20345   4.757   4.796  10.090  0.1093  0.2605  1.0709
  178SLPC   C3520346   4.863   4.650   9.953  0.5559 -0.2782 -0.3535
  178SLPC   H5X20347   4.803   4.557   9.964 -1.6636  1.2927  1.9136
  178SLPC   H5Y20348   4.966   4.618   9.925  1.0202  0.3914  0.5615
  178SLPC   C3620349   4.807   4.726   9.829 -0.5709  0.3157 -0.4821
  178SLPC   H6X20350   4.867   4.820   9.831  0.6422 -0.3597 -2.4869
  178SLPC   H6Y20351   4.701   4.755   9.843 -0.3269  0.7394  0.6450
  178SLPC   C3720352   4.812   4.657   9.688 -0.6839  0.6885  0.6690
  178SLPC   H7X20353   4.749   4.566   9.692  0.8368 -0.5297 -1.0932
  178SLPC   H7Y20354   4.917   4.625   9.667 -1.0771  0.3638 -0.9023
  178SLPC   C3820355   4.756   4.758   9.582 -1.0532  0.2251  0.2094
  178SLPC   H8X20356   4.817   4.849   9.597 -0.4304 -0.5103  2.4840
  178SLPC   H8Y20357   4.648   4.775   9.603 -1.1591 -1.1613  0.8968
  178SLPC   C3920358   4.787   4.702   9.442  0.2142 -0.4406  0.0544
  178SLPC   H9X20359   4.753   4.596   9.446 -1.5927  0.1415  1.7482
  178SLPC   H9Y20360   4.897   4.695   9.425  0.1642  1.3354 -1.2225
  178SLPC  C31020361   4.705   4.765   9.324 -0.3959  0.5516 -0.4638
  178SLPC  H10X20362   4.720   4.875   9.321  0.2803  0.4406 -2.3333
  178SLPC  H10Y20363   4.597   4.753   9.347 -0.2630  0.2726  0.0577
  178SLPC  C31120364   4.743   4.690   9.198 -0.0479  0.5714  0.4477
  178SLPC  H11X20365   4.710   4.583   9.204 -0.5142  0.6488 -0.5570
  178SLPC  H11Y20366   4.853   4.701   9.186  0.0411 -1.3527 -0.9219
  178SLPC  C31220367   4.668   4.744   9.071  0.0051  0.1784  0.5628
  178SLPC  H12X20368   4.676   4.854   9.085  1.1060  0.2002 -0.0936
  178SLPC  H12Y20369   4.560   4.723   9.086  0.0801 -0.0128  0.8324
  178SLPC  C31320370   4.729   4.709   8.932  0.6291  0.1383 -0.4149
  178SLPC  H13X20371   4.731   4.600   8.911 -1.9578  0.1428 -0.9898
  178SLPC  H13Y20372   4.838   4.729   8.941  0.8355  0.2823 -2.6029
  178SLPC  C31420373   4.703   4.804   8.811 -0.4513 -0.0386  0.4306
  178SLPC  H14X20374   4.725   4.910   8.834 -1.7613  0.2739  0.3640
  178SLPC  H14Y20375   4.597   4.787   8.782 -0.7955  0.3957  1.3817
  178SLPC  C31520376   4.786   4.774   8.691 -0.7351  0.0990  0.6070
  178SLPC  H15X20377   4.798   4.862   8.624  1.6221  0.7540  1.8229
  178SLPC  H15Y20378   4.889   4.748   8.721 -0.4881  1.4933  1.0308
  178SLPC  C31620379   4.743   4.664   8.600  0.9151  0.2787 -0.1855
  178SLPC  H16X20380   4.720   4.576   8.664 -2.1099  0.2643 -1.1324
  178SLPC  H16Y20381   4.821   4.624   8.531 -1.3934 -0.3596 -2.5851
  178SLPC  C31720382   4.613   4.706   8.523 -0.2201  0.1662  0.1759
  178SLPC  H17X20383   4.638   4.801   8.470 -0.7372  0.2137  0.0125
  178SLPC  H17Y20384   4.532   4.745   8.588 -1.5305 -1.2461 -0.5464
  178SLPC  C31820385   4.557   4.604   8.427  0.0656  0.4134  0.4438
  178SLPC  H18X20386   4.472   4.647   8.369  0.4211 -0.4998 -0.7906
  178SLPC  H18Y20387   4.529   4.512   8.483 -0.9556  0.2068 -0.3744
  178SLPC  H18Z20388   4.636   4.570   8.357 -0.2414  1.3762 -0.3930
  179SLPC     N20389   4.272   2.887  10.471  0.8222 -0.0607 -0.7171
  179SLPC   C1320390   4.379   2.932  10.379  0.5508 -0.4421  0.2260
  179SLPC  H13A20391   4.474   2.912  10.426  0.0867 -2.0110  0.5600
  179SLPC  H13B20392   4.376   2.883  10.283  0.6698 -1.2873  0.6419
  179SLPC  H13C20393   4.376   3.040  10.371 -0.3573 -0.3375  1.5531
  179SLPC   C1420394   4.298   2.745  10.515 -0.6655  0.2832  0.3270
  179SLPC  H14A20395   4.392   2.750  10.568 -0.5052 -1.0701  0.1978
  179SLPC  H14B20396   4.217   2.715  10.580 -1.5723  0.0136 -0.8914
  179SLPC  H14C20397   4.311   2.680  10.430  0.6964 -0.1968  0.8649
  179SLPC   C1520398   4.138   2.894  10.399  0.5576  0.9115 -0.1516
  179SLPC  H15A20399   4.116   2.997  10.375  0.7937  0.8288 -0.7386
  179SLPC  H15B20400   4.130   2.834  10.309  0.1892  1.4809 -0.5081
  179SLPC  H15C20401   4.057   2.865  10.464 -0.6852  0.8918 -1.6519
  179SLPC   C1220402   4.259   2.977  10.585  0.2001  0.1862 -0.8808
  179SLPC  H12A20403   4.355   2.993  10.632  2.1859 -2.3703 -3.7028
  179SLPC  H12B20404   4.190   2.944  10.661 -0.1430  0.0551 -1.2488
  179SLPC   C1120405   4.213   3.117  10.557  0.8942  0.3189 -0.3361
  179SLPC  H11A20406   4.200   3.158  10.660 -1.9263 -1.2582  0.0307
  179SLPC  H11B20407   4.115   3.125  10.506 -0.0944 -0.2998  1.3615
  179SLPC     P20408   4.282   3.294  10.374 -0.2846  0.0801 -0.2414
  179SLPC   O1320409   4.383   3.409  10.383  0.1167  0.4213 -0.1158
  179SLPC   O1420410   4.282   3.208  10.254 -0.2457  0.0602  0.6497
  179SLPC   O1220411   4.312   3.194  10.489 -0.3738 -0.5175 -0.5273
  179SLPC   O1120412   4.139   3.350  10.419  0.3174  0.5468 -0.6540
  179SLPC    C120413   4.106   3.487  10.449  0.5710 -0.1825 -0.4703
  179SLPC    HA20414   4.034   3.491  10.534  0.0093  5.6406 -0.8463
  179SLPC    HB20415   4.191   3.555  10.468 -0.7940  1.4929 -0.0711
  179SLPC    C220416   4.028   3.545  10.326 -0.2704 -0.0496  0.3827
  179SLPC    HS20417   3.925   3.502  10.323 -1.2353  2.1891 -0.3546
  179SLPC   O2120418   4.097   3.504  10.209  0.5335 -0.4708  0.1092
  179SLPC   C2120419   4.047   3.398  10.143 -0.5597 -0.2211  0.0217
  179SLPC   O2220420   3.960   3.329  10.190 -0.0219  0.2229 -0.5557
  179SLPC   C2220421   4.115   3.384  10.003  0.4345  0.1298  0.8688
  179SLPC   H2R20422   4.107   3.489   9.966 -1.1535  0.3392  1.7247
  179SLPC   H2S20423   4.224   3.363  10.001  0.6738  1.1888 -1.4388
  179SLPC    C320424   4.003   3.694  10.333 -0.1351 -0.5722 -0.1251
  179SLPC    HX20425   4.102   3.745  10.329 -0.2950 -0.3607 -2.3750
  179SLPC    HY20426   3.951   3.714  10.429 -1.2918  0.7286 -0.9907
  179SLPC   O3120427   3.924   3.727  10.221  0.9973  0.0626 -0.6306
  179SLPC   C3120428   3.954   3.842  10.170  0.2565 -0.1218  0.2835
  179SLPC   O3220429   4.004   3.935  10.233  0.1783  0.1523 -0.4542
  179SLPC   C3220430   3.917   3.841  10.022  0.4309 -0.2000 -0.4801
  179SLPC   H2X20431   3.814   3.799  10.009  0.6919 -1.2482  0.6751
  179SLPC   H2Y20432   3.996   3.796   9.959 -1.4783 -1.0115 -2.4519
  179SLPC   C2320433   4.036   3.290   9.907 -0.6338  0.1288  0.3440
  179SLPC   H3R20434   3.926   3.304   9.910 -0.4721  1.6256 -0.1148
  179SLPC   H3S20435   4.067   3.184   9.921  2.7772  0.5688 -2.6874
  179SLPC   C2420436   4.072   3.343   9.765 -0.2813  0.6073  0.0712
  179SLPC   H4R20437   4.182   3.333   9.752 -0.2341 -0.8905  1.3508
  179SLPC   H4S20438   4.038   3.448   9.750  1.2124  1.0820 -0.0927
  179SLPC   C2520439   4.026   3.248   9.652 -0.2217  0.0143  0.2973
  179SLPC   H5R20440   3.917   3.257   9.634  0.0368  1.5634 -0.7384
  179SLPC   H5S20441   4.049   3.145   9.685 -0.0220  0.1460  0.5839
  179SLPC   C2620442   4.093   3.283   9.516 -1.4702 -0.0700  0.2123
  179SLPC   H6R20443   4.199   3.303   9.542 -2.2712 -0.1941  4.2510
  179SLPC   H6S20444   4.050   3.381   9.486 -1.0195  0.3740  0.9994
  179SLPC   C2720445   4.070   3.182   9.404  0.2558  0.1633 -0.0727
  179SLPC   H7R20446   3.962   3.159   9.400  0.6118 -1.4796 -2.2630
  179SLPC   H7S20447   4.132   3.090   9.410  2.6961  1.6253 -1.4229
  179SLPC   C2820448   4.096   3.231   9.257 -0.2803 -0.3672  0.0122
  179SLPC   H8R20449   4.072   3.143   9.194 -2.2153 -0.7227  1.1682
  179SLPC   H8S20450   4.206   3.248   9.249 -0.0823 -1.2791  0.5832
  179SLPC   C2920451   4.000   3.337   9.214  0.5802 -0.5009  0.3928
  179SLPC   H9R20452   4.045   3.437   9.206 -2.5997  0.9309 -2.7337
  179SLPC  C21020453   3.869   3.313   9.166  0.1129 -0.4009 -0.5792
  179SLPC  H10R20454   3.804   3.390   9.123 -0.1026 -0.9940 -1.3274
  179SLPC  C21120455   3.802   3.179   9.148  0.8582  0.4800 -0.0434
  179SLPC  H11R20456   3.834   3.122   9.237  0.4169 -2.4811 -1.6741
  179SLPC  H11S20457   3.839   3.117   9.064 -1.4057 -0.4696 -0.4258
  179SLPC  C21220458   3.651   3.175   9.134  0.2250 -0.0693  0.2682
  179SLPC  H12R20459   3.603   3.130   9.222 -2.2278  0.2470 -0.8253
  179SLPC  C21320460   3.578   3.204   9.026 -0.2186 -0.0340  0.0849
  179SLPC  H13R20461   3.469   3.195   9.028 -0.3051  0.6045 -1.0420
  179SLPC  C21420462   3.627   3.249   8.894 -0.5020  0.3532 -0.5976
  179SLPC  H14R20463   3.605   3.170   8.819  0.8158  0.1510 -0.7898
  179SLPC  H14S20464   3.737   3.256   8.903 -0.3310 -0.7229 -1.5771
  179SLPC  C21520465   3.576   3.380   8.855  0.2009  0.0647 -0.6292
  179SLPC  H15R20466   3.619   3.470   8.904  1.7141 -1.1178  0.3170
  179SLPC  H15S20467   3.468   3.394   8.876  0.0966 -1.8586  0.3259
  179SLPC  C21620468   3.600   3.391   8.708  0.2202 -1.3624  0.5996
  179SLPC  H16R20469   3.548   3.306   8.658 -1.0106 -0.4549  0.3052
  179SLPC  H16S20470   3.709   3.382   8.690  0.2192  0.0769 -0.2577
  179SLPC  C21720471   3.550   3.521   8.649 -0.0422  0.1437  0.2972
  179SLPC  H17R20472   3.582   3.609   8.708  0.0369  0.5762 -0.3738
  179SLPC  H17S20473   3.439   3.516   8.651 -0.1677  1.1956 -1.7617
  179SLPC  C21820474   3.607   3.540   8.510  0.6121  0.1353 -0.5010
  179SLPC  H18R20475   3.553   3.618   8.454 -0.0631  0.4526  0.5716
  179SLPC  H18S20476   3.605   3.448   8.447  0.6809  0.3192 -0.7728
  179SLPC  H18T20477   3.709   3.583   8.524  1.1483 -1.0463 -0.5527
  179SLPC   C3320478   3.913   3.986   9.977 -0.8705 -0.4747  0.3758
  179SLPC   H3X20479   4.012   4.035   9.990 -1.2250  0.6043 -0.7762
  179SLPC   H3Y20480   3.837   4.042  10.036 -2.0120  0.0464 -1.4892
  179SLPC   C3420481   3.891   4.000   9.826  0.4418 -0.5306  0.5265
  179SLPC   H4X20482   3.781   3.999   9.806  0.4732  0.9091  0.2150
  179SLPC   H4Y20483   3.913   3.902   9.777 -1.0612 -1.2647  1.2406
  179SLPC   C3520484   3.974   4.107   9.753 -0.2682  0.4201  0.0525
  179SLPC   H5X20485   4.078   4.066   9.749  0.3285  1.9355 -1.2090
  179SLPC   H5Y20486   3.968   4.203   9.808  0.4521  0.1058  0.6946
  179SLPC   C3620487   3.932   4.130   9.606 -0.6442  0.7407 -0.9544
  179SLPC   H6X20488   3.966   4.229   9.570 -0.6842  0.9374 -0.4714
  179SLPC   H6Y20489   3.821   4.138   9.607 -0.6894  0.9267  1.9048
  179SLPC   C3720490   3.988   4.035   9.500 -0.0144 -0.4175  0.2486
  179SLPC   H7X20491   3.941   3.935   9.512  1.4701 -1.1585  0.1045
  179SLPC   H7Y20492   4.099   4.036   9.508  0.1063  1.0313 -1.0957
  179SLPC   C3820493   3.947   4.071   9.352  0.2599  0.1520  0.0864
  179SLPC   H8X20494   3.837   4.074   9.345  0.2412  0.6729  0.5696
  179SLPC   H8Y20495   3.982   3.987   9.287  1.0951  0.4958  0.0694
  179SLPC   C3920496   4.022   4.200   9.302 -0.4721  0.6104 -0.4138
  179SLPC   H9X20497   4.131   4.179   9.305 -1.0381 -2.9567 -0.4105
  179SLPC   H9Y20498   3.989   4.284   9.367  0.0581  0.0736  0.5671
  179SLPC  C31020499   3.983   4.236   9.155 -0.6073 -0.1358  0.1007
  179SLPC  H10X20500   4.032   4.335   9.140  0.7108 -0.9549 -1.2168
  179SLPC  H10Y20501   3.873   4.250   9.157 -0.4223  1.5162  2.1671
  179SLPC  C31120502   4.029   4.138   9.042  0.5709 -0.2760 -0.2815
  179SLPC  H11X20503   3.967   4.046   9.035  0.5356 -0.1348 -2.5623
  179SLPC  H11Y20504   4.134   4.107   9.063  0.8319  0.0492 -1.0867
  179SLPC  C31220505   4.016   4.188   8.900 -0.2832 -0.5430  0.8353
  179SLPC  H12X20506   4.055   4.290   8.884 -0.7839 -0.5062 -0.2362
  179SLPC  H12Y20507   3.910   4.191   8.867  0.5653 -0.1894 -2.1587
  179SLPC  C31320508   4.088   4.104   8.786 -0.7430 -0.2491 -0.2654
  179SLPC  H13X20509   4.067   3.996   8.805 -0.2970 -0.1663  0.7650
  179SLPC  H13Y20510   4.197   4.115   8.804 -1.0407  1.8465  0.4839
  179SLPC  C31420511   4.061   4.146   8.642 -0.3367  0.4114 -0.7807
  179SLPC  H14X20512   4.093   4.250   8.621  2.0081 -0.9657 -5.2365
  179SLPC  H14Y20513   3.953   4.142   8.619 -0.6463  1.1901  0.4180
  179SLPC  C31520514   4.132   4.042   8.546  0.0943 -0.0055  0.1291
  179SLPC  H15X20515   4.092   3.939   8.558  0.3470 -0.1652 -0.3650
  179SLPC  H15Y20516   4.240   4.026   8.567 -0.0449  0.0471  0.9144
  179SLPC  C31620517   4.111   4.081   8.399  0.2441  0.9346  0.1767
  179SLPC  H16X20518   4.004   4.096   8.372  0.2861  0.0269 -0.5335
  179SLPC  H16Y20519   4.164   4.008   8.335  0.4446 -0.6529  2.0515
  179SLPC  C31720520   4.159   4.223   8.357 -0.4946  0.3884  0.0395
  179SLPC  H17X20521   4.113   4.296   8.428 -1.1057 -0.4084  0.4828
  179SLPC  H17Y20522   4.132   4.247   8.252  1.4827 -1.7890 -1.0654
  179SLPC  C31820523   4.312   4.247   8.353  1.1169  0.2366 -0.4094
  179SLPC  H18X20524   4.353   4.244   8.456  1.2231  0.3774 -0.4465
  179SLPC  H18Y20525   4.329   4.351   8.315  1.8446  0.4723  0.5511
  179SLPC  H18Z20526   4.376   4.180   8.293 -0.4819  0.7540 -2.8601
  180SLPC     N20527   0.242   4.325  11.007  0.3134 -0.4497  0.5095
  180SLPC   C1320528   0.215   4.256  11.136 -0.4041 -0.2593  0.3915
  180SLPC  H13A20529   0.231   4.328  11.215 -1.3054  0.2322  0.1428
  180SLPC  H13B20530   0.117   4.211  11.138 -0.4870 -0.0735  0.6062
  180SLPC  H13C20531   0.276   4.168  11.145 -1.5317 -0.9303  1.7949
  180SLPC   C1420532   0.133   4.415  10.981 -0.0968 -0.5426 -0.1598
  180SLPC  H14A20533   0.039   4.365  10.961 -0.5078 -0.3181  1.0787
  180SLPC  H14B20534   0.126   4.484  11.064  0.5165  0.2307 -0.7370
  180SLPC  H14C20535   0.147   4.471  10.890  3.3640 -2.2923 -0.8573
  180SLPC   C1520536   0.237   4.218  10.899 -0.5759  0.1684 -0.4419
  180SLPC  H15A20537   0.268   4.257  10.803 -1.1953  0.6765 -0.4475
  180SLPC  H15B20538   0.304   4.137  10.922 -0.6600  0.4369  0.7797
  180SLPC  H15C20539   0.142   4.171  10.878 -1.2174  2.0393 -2.1731
  180SLPC   C1220540   0.384   4.383  11.011  0.1474  1.2879  0.5054
  180SLPC  H12A20541   0.456   4.302  11.017  0.9926  1.7553 -1.9629
  180SLPC  H12B20542   0.390   4.453  11.093  0.4066  0.7872  0.9201
  180SLPC   C1120543   0.429   4.467  10.887 -0.2729  0.3421 -0.0522
  180SLPC  H11A20544   0.515   4.527  10.924 -1.1592  1.4598  0.2514
  180SLPC  H11B20545   0.344   4.531  10.852  0.0074  0.7540  0.0043
  180SLPC     P20546   0.604   4.296  10.776  0.0503 -0.1884 -0.4916
  180SLPC   O1320547   0.712   4.392  10.766  0.0503  0.1756  0.3642
  180SLPC   O1420548   0.605   4.212  10.901 -0.7191  0.5903  0.4125
  180SLPC   O1220549   0.464   4.389  10.768 -0.1696 -0.0952 -0.5873
  180SLPC   O1120550   0.603   4.198  10.649 -0.3210 -0.4402  0.6661
  180SLPC    C120551   0.569   4.260  10.520 -0.0500 -0.4172  0.4592
  180SLPC    HA20552   0.533   4.365  10.517 -0.5550 -0.5963 -2.1419
  180SLPC    HB20553   0.656   4.260  10.451 -0.6486  3.4422 -0.5036
  180SLPC    C220554   0.452   4.174  10.442  0.3765 -0.5497  0.0954
  180SLPC    HS20555   0.377   4.157  10.522 -0.7531 -0.4576 -0.8930
  180SLPC   O2120556   0.492   4.040  10.402  0.5834  0.5203 -0.3332
  180SLPC   C2120557   0.385   3.965  10.371 -0.7221 -0.8895  0.0679
  180SLPC   O2220558   0.268   4.007  10.374  0.1556  0.8814 -0.1977
  180SLPC   C2220559   0.437   3.835  10.328  0.0140  0.0873  0.1850
  180SLPC   H2R20560   0.458   3.858  10.222 -1.3962  1.8174  0.2137
  180SLPC   H2S20561   0.532   3.818  10.383  0.3466 -1.5959 -0.8568
  180SLPC    C320562   0.411   4.251  10.318 -0.4782 -0.5286  0.1471
  180SLPC    HX20563   0.381   4.356  10.339  0.2509 -0.4033  0.5720
  180SLPC    HY20564   0.320   4.211  10.268  1.0846  0.3032 -3.7953
  180SLPC   O3120565   0.526   4.257  10.226  0.2327 -0.3667 -0.2440
  180SLPC   C3120566   0.532   4.179  10.124  0.6335  0.3719  0.0970
  180SLPC   O3220567   0.453   4.090  10.107  0.0432 -0.1618  0.3142
  180SLPC   C3220568   0.650   4.217  10.037 -1.3559 -0.2979  0.0053
  180SLPC   H2X20569   0.727   4.273  10.095  0.5500 -0.1540 -2.5279
  180SLPC   H2Y20570   0.614   4.276   9.951  1.4949  3.3414  1.0653
  180SLPC   C2320571   0.345   3.709  10.347 -0.9706 -0.6144  0.1088
  180SLPC   H3R20572   0.244   3.753  10.357 -0.3570  2.1553 -3.8859
  180SLPC   H3S20573   0.386   3.669  10.443 -2.5145 -2.5702  0.0331
  180SLPC   C2420574   0.356   3.610  10.229 -0.6422 -0.4491 -0.0497
  180SLPC   H4R20575   0.358   3.677  10.140  0.9224  0.4462  0.6285
  180SLPC   H4S20576   0.260   3.554  10.236 -1.6438  1.3072  0.9345
  180SLPC   C2520577   0.482   3.517  10.241 -0.4657  0.0994  0.0095
  180SLPC   H5R20578   0.473   3.460  10.336 -1.5671 -1.5583 -1.0363
  180SLPC   H5S20579   0.570   3.582  10.258 -0.3631  0.1721 -0.7621
  180SLPC   C2620580   0.514   3.427  10.119  0.1511  0.5524  0.1214
  180SLPC   H6R20581   0.611   3.377  10.142  0.8487  1.2856 -1.1661
  180SLPC   H6S20582   0.523   3.481  10.023 -1.2621  1.2582  0.3697
  180SLPC   C2720583   0.409   3.328  10.086  0.5469  0.3227 -0.0990
  180SLPC   H7R20584   0.314   3.385  10.079  1.5673  2.1227  0.0837
  180SLPC   H7S20585   0.396   3.261  10.174 -1.9671  4.4350  3.0670
  180SLPC   C2820586   0.444   3.231   9.970  0.4235  0.2467  0.6194
  180SLPC   H8R20587   0.545   3.191   9.994  0.2880 -0.5008 -0.0263
  180SLPC   H8S20588   0.471   3.296   9.884  0.4917  1.2562  1.3743
  180SLPC   C2920589   0.345   3.126   9.939 -0.4515 -0.1195  0.0882
  180SLPC   H9R20590   0.241   3.163   9.940 -0.8730 -1.1272  2.7028
  180SLPC  C21020591   0.368   2.996   9.903  0.3575  0.1010  0.9832
  180SLPC  H10R20592   0.284   2.931   9.875  0.6468 -0.3525  1.1502
  180SLPC  C21120593   0.511   2.936   9.878  0.6665 -0.3601  0.2032
  180SLPC  H11R20594   0.589   3.013   9.893 -0.4821  1.2965 -1.7442
  180SLPC  H11S20595   0.507   2.900   9.773  2.1982  0.2281 -0.0853
  180SLPC  C21220596   0.550   2.821   9.977 -0.3604 -0.1204 -0.1422
  180SLPC  H12R20597   0.634   2.832  10.048 -0.3382 -2.5447  0.2814
  180SLPC  C21320598   0.506   2.695   9.978  0.4224 -0.5510  0.2548
  180SLPC  H13R20599   0.550   2.629  10.054  3.0947  1.7069  0.8389
  180SLPC  C21420600   0.394   2.647   9.889  0.4254  1.1312 -0.1310
  180SLPC  H14R20601   0.359   2.721   9.814  0.9931 -0.5015 -2.0732
  180SLPC  H14S20602   0.304   2.623   9.949  1.1908  1.4565  1.1939
  180SLPC  C21520603   0.431   2.514   9.824  0.0222 -0.0524  0.1970
  180SLPC  H15R20604   0.352   2.442   9.795 -1.7305  1.4790  0.9880
  180SLPC  H15S20605   0.493   2.449   9.889 -0.0821 -0.8341 -0.4717
  180SLPC  C21620606   0.540   2.545   9.712 -0.1189 -0.0949  0.4107
  180SLPC  H16R20607   0.634   2.590   9.751  1.1566 -3.0873  1.1495
  180SLPC  H16S20608   0.492   2.619   9.645  1.2129  1.6994  1.3370
  180SLPC  C21720609   0.592   2.427   9.640  0.5003  0.2826 -0.2861
  180SLPC  H17R20610   0.511   2.363   9.599  2.6611 -1.4875 -2.0171
  180SLPC  H17S20611   0.661   2.374   9.709 -2.9885 -1.3909  2.2643
  180SLPC  C21820612   0.674   2.492   9.528 -0.1841 -0.2899  0.1626
  180SLPC  H18R20613   0.746   2.554   9.586 -1.4811 -1.3584  3.1368
  180SLPC  H18S20614   0.630   2.555   9.447  0.5417  1.5342  1.1105
  180SLPC  H18T20615   0.728   2.408   9.480  0.7301 -0.3669  1.2865
  180SLPC   C3320616   0.720   4.084   9.990 -0.7864  0.0282  0.1915
  180SLPC   H3X20617   0.637   4.018   9.955  0.5909 -1.8629  0.3254
  180SLPC   H3Y20618   0.759   4.032  10.080  0.2838  1.8588  0.8422
  180SLPC   C3420619   0.827   4.108   9.888 -0.1146 -0.0483 -0.1239
  180SLPC   H4X20620   0.902   4.183   9.921  1.9748 -1.7976 -0.6759
  180SLPC   H4Y20621   0.771   4.137   9.797 -1.8331 -0.2805  0.8090
  180SLPC   C3520622   0.903   3.977   9.851  0.7499  0.1843  0.5695
  180SLPC   H5X20623   0.833   3.891   9.846  1.0406  0.0187 -1.1475
  180SLPC   H5Y20624   0.972   3.947   9.933 -0.3192 -1.0564  1.0526
  180SLPC   C3620625   0.987   3.977   9.722 -0.0942 -0.2349 -0.0931
  180SLPC   H6X20626   0.930   4.011   9.633 -0.8315 -2.5202 -0.5692
  180SLPC   H6Y20627   1.015   3.871   9.703  0.0458 -0.1462 -0.4058
  180SLPC   C3720628   1.107   4.076   9.729  0.4049  0.2955  0.1672
  180SLPC   H7X20629   1.084   4.145   9.813  1.5388  0.9220 -0.0285
  180SLPC   H7Y20630   1.114   4.140   9.639  0.3304 -1.1204 -0.8722
  180SLPC   C3820631   1.251   4.010   9.749 -0.1757  0.3070 -0.3192
  180SLPC   H8X20632   1.246   3.915   9.806  3.0634  1.3778  2.0614
  180SLPC   H8Y20633   1.313   4.087   9.800  1.1301 -1.1157  0.3386
  180SLPC   C3920634   1.327   3.987   9.616 -0.1438 -0.2057 -0.3333
  180SLPC   H9X20635   1.359   4.085   9.575  0.4256 -0.3437 -0.2201
  180SLPC   H9Y20636   1.264   3.935   9.540  0.2441 -0.0268 -0.7825
  180SLPC  C31020637   1.458   3.903   9.625  0.4122 -0.4676 -0.0982
  180SLPC  H10X20638   1.484   3.836   9.540  0.7557 -0.2018 -0.2032
  180SLPC  H10Y20639   1.453   3.843   9.718  0.4204 -2.5133 -1.3451
  180SLPC  C31120640   1.578   3.988   9.650 -0.7934  0.3388 -0.1569
  180SLPC  H11X20641   1.549   4.039   9.745 -0.7479 -0.4505  0.2880
  180SLPC  H11Y20642   1.586   4.065   9.571  1.3117  1.4382  1.0414
  180SLPC  C31220643   1.702   3.913   9.682 -0.0922 -0.5686  0.7239
  180SLPC  H12X20644   1.680   3.838   9.761 -1.8260  1.4669  2.3093
  180SLPC  H12Y20645   1.781   3.976   9.728  0.3384 -0.7256  0.2075
  180SLPC  C31320646   1.772   3.845   9.561  0.1849 -0.5390  0.1534
  180SLPC  H13X20647   1.701   3.768   9.525 -1.4056  1.2362 -0.6926
  180SLPC  H13Y20648   1.867   3.799   9.595  1.6869  1.8260 -0.6431
  180SLPC  C31420649   1.811   3.941   9.448 -0.0629  0.1216  0.3452
  180SLPC  H14X20650   1.826   4.039   9.497 -0.5410  0.2115  0.3157
  180SLPC  H14Y20651   1.725   3.969   9.384 -0.1228  1.3649  0.9428
  180SLPC  C31520652   1.934   3.898   9.373 -0.2731  0.4117 -0.1413
  180SLPC  H15X20653   2.023   3.897   9.438  0.4837 -2.0045 -1.1040
  180SLPC  H15Y20654   1.953   3.979   9.298 -4.4080  0.3607 -1.4917
  180SLPC  C31620655   1.921   3.762   9.306  0.3520  0.2656  0.1880
  180SLPC  H16X20656   1.917   3.686   9.387 -1.8944 -2.6683 -2.3899
  180SLPC  H16Y20657   2.016   3.750   9.251 -0.0053 -0.1466 -0.3591
  180SLPC  C31720658   1.798   3.744   9.214 -0.0831  0.0133 -0.0365
  180SLPC  H17X20659   1.825   3.812   9.130  1.8848  0.0298  0.5424
  180SLPC  H17Y20660   1.704   3.775   9.264 -0.5822 -1.7269  0.1403
  180SLPC  C31820661   1.789   3.602   9.165 -0.1015  0.8261 -0.2512
  180SLPC  H18X20662   1.892   3.561   9.158 -0.2630 -0.1749  2.3640
  180SLPC  H18Y20663   1.750   3.579   9.063  3.0247  1.2254 -1.6772
  180SLPC  H18Z20664   1.732   3.539   9.237  1.7302 -1.0219 -0.3199
  181SLPC     N20665   3.010   5.088  10.881  0.3739  0.0748  0.1970
  181SLPC   C1320666   3.136   5.007  10.868 -0.2275  0.7128 -0.6486
  181SLPC  H13A20667   3.119   4.901  10.871  1.6892  0.3781 -0.1625
  181SLPC  H13B20668   3.191   5.032  10.779 -0.8165 -0.9669 -1.5254
  181SLPC  H13C20669   3.195   5.032  10.955  0.7013 -1.7807 -0.4918
  181SLPC   C1420670   2.929   5.034  10.999 -0.6937 -0.4149 -0.3004
  181SLPC  H14A20671   2.974   5.061  11.093  2.5557 -3.3545 -0.8208
  181SLPC  H14B20672   2.826   5.064  10.989  0.2679  3.6519  0.2088
  181SLPC  H14C20673   2.921   4.928  10.985 -2.1759 -0.2763 -0.6591
  181SLPC   C1520674   2.928   5.075  10.753  0.3270  0.3656  0.2178
  181SLPC  H15A20675   2.832   5.121  10.774 -0.0263 -1.1486  2.2735
  181SLPC  H15B20676   2.972   5.132  10.673 -0.9002  1.1463  0.0720
  181SLPC  H15C20677   2.901   4.971  10.736  0.4472 -0.0100  2.0919
  181SLPC   C1220678   3.051   5.236  10.901  0.5998 -0.0701  0.5600
  181SLPC  H12A20679   3.128   5.237  10.977  1.9732 -0.7267 -0.7646
  181SLPC  H12B20680   2.964   5.283  10.944 -0.1455 -1.1569  0.2802
  181SLPC   C1120681   3.101   5.311  10.782 -0.4116 -0.1801  0.0781
  181SLPC  H11A20682   3.011   5.319  10.718 -1.2332  1.0329  1.3330
  181SLPC  H11B20683   3.173   5.259  10.715 -1.3053  0.7412 -1.6482
  181SLPC     P20684   3.293   5.444  10.894  0.3703 -0.4685  0.4075
  181SLPC   O1320685   3.308   5.583  10.954 -0.6128 -0.1748  0.4426
  181SLPC   O1420686   3.305   5.328  10.986 -0.2664  0.2948 -0.0575
  181SLPC   O1220687   3.143   5.442  10.829 -0.3890  1.1298  0.1500
  181SLPC   O1120688   3.384   5.423  10.771 -0.4443  0.2033 -0.0983
  181SLPC    C120689   3.368   5.498  10.654 -0.6051  0.0530 -0.1287
  181SLPC    HA20690   3.291   5.442  10.597 -1.0677  0.5743 -0.0207
  181SLPC    HB20691   3.322   5.598  10.661  0.5553  0.6823 -1.0943
  181SLPC    C220692   3.498   5.494  10.566 -0.3702  0.1167  0.2685
  181SLPC    HS20693   3.557   5.587  10.582 -0.1335  0.2984 -1.4637
  181SLPC   O2120694   3.441   5.503  10.434 -0.2053  0.0348 -0.0600
  181SLPC   C2120695   3.518   5.560  10.342  0.4591 -0.6186 -0.0705
  181SLPC   O2220696   3.626   5.612  10.356  0.5462 -0.4373 -0.4456
  181SLPC   C2220697   3.434   5.584  10.215 -0.3668  0.5889  0.4765
  181SLPC   H2R20698   3.325   5.585  10.240 -0.4976  2.9553  0.0765
  181SLPC   H2S20699   3.460   5.686  10.180  0.1166  1.2628  2.6241
  181SLPC    C320700   3.591   5.368  10.586 -0.4925  0.6474  0.5373
  181SLPC    HX20701   3.533   5.278  10.556  1.0813 -0.0696 -0.4432
  181SLPC    HY20702   3.606   5.356  10.696 -3.8466 -3.0273  0.8339
  181SLPC   O3120703   3.723   5.387  10.520  0.0648 -0.8357 -0.3445
  181SLPC   C3120704   3.717   5.340  10.398  0.7139 -0.9654 -0.9413
  181SLPC   O3220705   3.620   5.280  10.350 -0.1406 -0.3263  0.9095
  181SLPC   C3220706   3.849   5.368  10.332  0.1135  0.3161  0.9271
  181SLPC   H2X20707   3.922   5.317  10.399  0.9797  0.6184  0.2261
  181SLPC   H2Y20708   3.864   5.478  10.335  0.8424  0.3541 -1.7766
  181SLPC   C2320709   3.448   5.477  10.104  0.8671 -0.2552  0.0040
  181SLPC   H3R20710   3.389   5.387  10.132  0.5126  0.1520  0.5959
  181SLPC   H3S20711   3.558   5.461  10.097  0.8635 -1.3117  1.7432
  181SLPC   C2420712   3.388   5.527   9.972 -0.4737  0.0111 -0.3307
  181SLPC   H4R20713   3.430   5.625   9.941 -2.3657  1.1095  0.3674
  181SLPC   H4S20714   3.279   5.544   9.987 -0.8733 -2.5702  0.0676
  181SLPC   C2520715   3.393   5.419   9.865  1.1448 -0.3430 -0.5273
  181SLPC   H5R20716   3.364   5.319   9.904  0.2284 -0.2472 -0.9324
  181SLPC   H5S20717   3.498   5.409   9.830  2.3848  2.5232  1.9640
  181SLPC   C2620718   3.294   5.451   9.741 -0.0377 -0.0326 -0.2436
  181SLPC   H6R20719   3.321   5.549   9.694 -2.1095  0.5768 -0.2398
  181SLPC   H6S20720   3.197   5.477   9.788  1.7689  4.0508  1.7403
  181SLPC   C2720721   3.285   5.328   9.645 -0.4771 -0.0179 -0.1695
  181SLPC   H7R20722   3.179   5.331   9.610 -0.7708  0.5751  0.7266
  181SLPC   H7S20723   3.305   5.240   9.709  0.6437  0.5547  0.2871
  181SLPC   C2820724   3.378   5.336   9.516  0.3546 -0.3144  0.3230
  181SLPC   H8R20725   3.370   5.434   9.464 -2.1459 -1.1220 -1.0277
  181SLPC   H8S20726   3.331   5.258   9.452  2.1222  0.8751 -2.6116
  181SLPC   C2920727   3.526   5.308   9.527  0.2687 -0.0050  1.1188
  181SLPC   H9R20728   3.550   5.201   9.527 -1.2648 -0.3688  0.2335
  181SLPC  C21020729   3.627   5.395   9.524 -0.1985 -0.6608  0.0057
  181SLPC  H10R20730   3.727   5.354   9.539 -0.1754 -0.9227 -0.8061
  181SLPC  C21120731   3.608   5.549   9.516 -0.3340  0.8513 -0.2632
  181SLPC  H11R20732   3.698   5.587   9.570  0.7062 -2.4525  0.5393
  181SLPC  H11S20733   3.510   5.589   9.548 -2.3782  1.5273 -6.0980
  181SLPC  C21220734   3.631   5.587   9.372  0.1487  0.2742 -0.3918
  181SLPC  H12R20735   3.692   5.516   9.314 -0.2557 -0.0721 -0.4063
  181SLPC  C21320736   3.576   5.690   9.314  0.4142 -0.3782 -0.1817
  181SLPC  H13R20737   3.606   5.716   9.212  0.1964 -1.6826 -0.5979
  181SLPC  C21420738   3.491   5.791   9.392  0.2995 -0.5077  0.1727
  181SLPC  H14R20739   3.526   5.811   9.496  0.2603  2.6722 -0.3137
  181SLPC  H14S20740   3.393   5.742   9.411  1.1555 -1.7389  1.6516
  181SLPC  C21520741   3.464   5.925   9.314  1.3516  0.3222 -0.1646
  181SLPC  H15R20742   3.551   5.991   9.300  0.8628  1.3117  1.2687
  181SLPC  H15S20743   3.395   5.983   9.379  1.6773 -0.7238  1.1800
  181SLPC  C21620744   3.395   5.902   9.181 -0.5986  0.0895 -0.2304
  181SLPC  H16R20745   3.293   5.860   9.191 -1.2507  0.6187 -3.5716
  181SLPC  H16S20746   3.439   5.821   9.119  1.1951 -0.2922  1.4325
  181SLPC  C21720747   3.405   6.035   9.107 -0.1734  0.0030 -0.1019
  181SLPC  H17R20748   3.511   6.065   9.096 -0.0649 -0.8374 -1.5789
  181SLPC  H17S20749   3.357   6.112   9.172  2.1086  0.1613  1.5086
  181SLPC  C21820750   3.336   6.025   8.972  0.9363 -0.1826 -0.9229
  181SLPC  H18R20751   3.381   6.107   8.912  2.7911  1.2903  2.2358
  181SLPC  H18S20752   3.227   6.043   8.984  1.1627 -0.0139  1.3566
  181SLPC  H18T20753   3.361   5.938   8.907 -0.8969  0.8000 -3.0724
  181SLPC   C3320754   3.866   5.336  10.179 -0.1651  0.4765  0.3203
  181SLPC   H3X20755   3.926   5.421  10.138  1.2615  0.0267  1.4161
  181SLPC   H3Y20756   3.765   5.337  10.132 -0.5237  0.0740  1.0753
  181SLPC   C3420757   3.934   5.196  10.157  0.4913  0.3085  0.4682
  181SLPC   H4X20758   3.866   5.112  10.181 -0.2398  0.7532 -0.0061
  181SLPC   H4Y20759   4.028   5.179  10.214 -0.7245  0.0345  2.4536
  181SLPC   C3520760   3.974   5.190  10.001 -0.3160  0.1493 -0.4989
  181SLPC   H5X20761   3.876   5.184   9.948 -1.0253  2.2529  0.4900
  181SLPC   H5Y20762   4.019   5.088   9.993 -1.1408 -0.2799  0.1370
  181SLPC   C3620763   4.081   5.293   9.965 -0.9705  0.0136 -0.1337
  181SLPC   H6X20764   4.154   5.289  10.050 -2.0399 -1.7279  0.7524
  181SLPC   H6Y20765   4.030   5.391   9.957  1.1856  1.2912  0.8397
  181SLPC   C3720766   4.161   5.266   9.840  0.7379  1.1734  0.3842
  181SLPC   H7X20767   4.201   5.162   9.843 -1.6918  0.1776  0.9524
  181SLPC   H7Y20768   4.246   5.336   9.835 -0.6437  2.8623 -0.4540
  181SLPC   C3820769   4.066   5.268   9.712 -0.2551 -0.3101 -0.7825
  181SLPC   H8X20770   4.013   5.366   9.716 -1.6968 -1.0994  0.4862
  181SLPC   H8Y20771   3.974   5.207   9.711 -1.1193  0.9521 -0.9350
  181SLPC   C3920772   4.136   5.263   9.577  0.1481  0.0029 -0.2747
  181SLPC   H9X20773   4.142   5.159   9.539 -0.7470 -0.0436 -0.3291
  181SLPC   H9Y20774   4.239   5.299   9.596  0.6077  0.3021 -2.9850
  181SLPC  C31020775   4.081   5.365   9.471  0.2945 -0.4947  0.6360
  181SLPC  H10X20776   4.084   5.469   9.509 -3.5388  0.6231 -1.6499
  181SLPC  H10Y20777   3.972   5.357   9.452  0.1984 -0.6388  1.2206
  181SLPC  C31120778   4.156   5.370   9.340 -0.5976 -0.2762  0.0878
  181SLPC  H11X20779   4.165   5.263   9.308  0.4379 -0.2925  0.4056
  181SLPC  H11Y20780   4.254   5.415   9.364 -1.0854 -0.0162  1.6756
  181SLPC  C31220781   4.089   5.435   9.220  0.5270  0.2510 -0.0050
  181SLPC  H12X20782   3.988   5.392   9.207  0.1148  1.6885 -1.8959
  181SLPC  H12Y20783   4.160   5.422   9.135  0.8076  0.2265  0.2275
  181SLPC  C31320784   4.066   5.584   9.251  0.1853 -0.1525  0.3882
  181SLPC  H13X20785   4.167   5.623   9.276  0.8200 -1.1212 -0.6230
  181SLPC  H13Y20786   3.994   5.599   9.335 -0.1181  0.2530  0.0585
  181SLPC  C31420787   4.009   5.664   9.136  0.2712  0.5963  0.4925
  181SLPC  H14X20788   4.089   5.649   9.060  0.2559 -4.4736  1.1506
  181SLPC  H14Y20789   3.995   5.774   9.148 -4.4288  0.3914 -1.1359
  181SLPC  C31520790   3.885   5.601   9.062 -0.6372 -0.2247  0.5503
  181SLPC  H15X20791   3.798   5.584   9.129 -1.3592  0.9009 -0.0752
  181SLPC  H15Y20792   3.914   5.501   9.023  0.4387  0.8158 -1.4880
  181SLPC  C31620793   3.843   5.682   8.935 -0.3336  0.3342  0.8208
  181SLPC  H16X20794   3.829   5.786   8.971  1.8841  0.0314  2.8409
  181SLPC  H16Y20795   3.753   5.644   8.882  0.9918 -0.1146 -1.2063
  181SLPC  C31720796   3.952   5.696   8.833 -0.1267  0.3922 -0.1195
  181SLPC  H17X20797   3.982   5.592   8.809 -0.6935 -0.3021  1.9688
  181SLPC  H17Y20798   4.044   5.748   8.869  1.2924 -0.9938 -1.5791
  181SLPC  C31820799   3.900   5.764   8.702  0.0224 -0.4030  0.0899
  181SLPC  H18X20800   3.981   5.772   8.626 -0.2812 -2.9551 -0.6055
  181SLPC  H18Y20801   3.844   5.859   8.715  2.5303  0.9641  1.8796
  181SLPC  H18Z20802   3.848   5.683   8.647 -0.6744  1.0171 -1.4252
  182SLPC     N20803   0.950   1.547  10.777  0.6197 -0.0251  0.2938
  182SLPC   C1320804   0.995   1.510  10.911 -1.1509 -0.0768 -0.3950
  182SLPC  H13A20805   1.027   1.407  10.921 -0.8812  0.0945  0.6075
  182SLPC  H13B20806   1.078   1.573  10.938  0.1728 -0.4844 -3.1177
  182SLPC  H13C20807   0.918   1.533  10.983  0.9578 -0.0367  1.9515
  182SLPC   C1420808   1.032   1.476  10.674 -0.1874 -0.2775  0.0747
  182SLPC  H14A20809   0.983   1.380  10.672 -2.1311  0.6668  0.4817
  182SLPC  H14B20810   1.041   1.526  10.579  1.8901 -0.5146  0.1024
  182SLPC  H14C20811   1.133   1.458  10.710 -0.0225  1.2862  0.4463
  182SLPC   C1520812   0.958   1.691  10.744 -0.7007 -1.4987  0.0390
  182SLPC  H15A20813   0.929   1.703  10.641 -0.6263  0.7587  0.2346
  182SLPC  H15B20814   0.894   1.753  10.806  0.9227 -0.1180  0.3823
  182SLPC  H15C20815   1.056   1.732  10.758 -1.1344 -0.4632  0.1659
  182SLPC   C1220816   0.803   1.503  10.767 -0.1485 -0.0849 -0.8189
  182SLPC  H12A20817   0.755   1.558  10.846  2.2692  1.5116 -0.3552
  182SLPC  H12B20818   0.793   1.399  10.796 -2.3334  1.0949  3.3933
  182SLPC   C1120819   0.720   1.529  10.648 -0.2381 -0.5032  0.4468
  182SLPC  H11A20820   0.618   1.485  10.652 -0.4874 -0.6701 -3.5954
  182SLPC  H11B20821   0.772   1.476  10.566  0.4512 -0.1741  0.6658
  182SLPC     P20822   0.598   1.753  10.688  0.1369 -0.6688  0.2950
  182SLPC   O1320823   0.566   1.699  10.820 -0.6368  0.1446  0.2082
  182SLPC   O1420824   0.650   1.893  10.673 -0.0055 -0.1602 -1.0413
  182SLPC   O1220825   0.704   1.665  10.607 -0.7579 -0.5094 -0.1431
  182SLPC   O1120826   0.467   1.737  10.597 -0.0637 -0.5304 -0.2396
  182SLPC    C120827   0.457   1.801  10.467 -0.3215  0.0164  0.2667
  182SLPC    HA20828   0.358   1.849  10.454 -0.8435 -1.3629 -1.0747
  182SLPC    HB20829   0.544   1.868  10.448 -1.1687  0.8153 -0.9213
  182SLPC    C220830   0.461   1.709  10.342  0.4091 -0.1074  0.3580
  182SLPC    HS20831   0.425   1.775  10.260 -0.5185  1.0809  1.6741
  182SLPC   O2120832   0.373   1.597  10.376 -0.0957  0.1119  0.2493
  182SLPC   C2120833   0.312   1.554  10.267 -0.0177 -0.5712 -0.1095
  182SLPC   O2220834   0.327   1.590  10.152  0.3833  0.8412 -0.2366
  182SLPC   C2220835   0.240   1.429  10.310  0.2045  0.3424 -0.5752
  182SLPC   H2R20836   0.307   1.385  10.387 -1.0237  1.8956  1.4715
  182SLPC   H2S20837   0.146   1.467  10.354 -0.5506 -0.8331 -1.1274
  182SLPC    C320838   0.601   1.662  10.304 -0.5173 -0.1077  0.0012
  182SLPC    HX20839   0.618   1.589  10.386 -2.6088  0.3120  0.8622
  182SLPC    HY20840   0.681   1.739  10.311  0.6991 -1.4005  0.8337
  182SLPC   O3120841   0.610   1.588  10.178 -0.1982  0.0427 -0.0128
  182SLPC   C3120842   0.613   1.677  10.075 -0.6744 -0.2370 -0.4912
  182SLPC   O3220843   0.631   1.797  10.083 -0.1110 -0.3489  0.2675
  182SLPC   C3220844   0.600   1.600   9.950  0.2331 -0.3746  0.1439
  182SLPC   H2X20845   0.528   1.518   9.965 -1.3150  0.3873 -2.4936
  182SLPC   H2Y20846   0.704   1.561   9.942 -0.3578 -2.7200  2.4865
  182SLPC   C2320847   0.190   1.333  10.197 -0.6840 -0.6504 -0.1130
  182SLPC   H3R20848   0.157   1.239  10.246 -0.9258  0.2503  1.5109
  182SLPC   H3S20849   0.283   1.329  10.136 -1.3465  2.2392 -1.5146
  182SLPC   C2420850   0.086   1.395  10.108  0.3794 -0.2121  0.4906
  182SLPC   H4R20851   0.095   1.502  10.081 -0.4239 -0.5212 -1.1616
  182SLPC   H4S20852  -0.007   1.387  10.170  0.4784  0.7374  0.7706
  182SLPC   C2520853   0.067   1.305   9.983  0.5533  0.1936 -0.1379
  182SLPC   H5R20854  -0.039   1.317   9.950  0.6185 -1.0144 -0.8775
  182SLPC   H5S20855   0.089   1.200  10.012  2.0712  0.6436  0.4198
  182SLPC   C2620856   0.157   1.337   9.859 -0.1814 -0.6585 -0.0842
  182SLPC   H6R20857   0.129   1.269   9.775 -1.7859 -0.8490  0.5717
  182SLPC   H6S20858   0.256   1.311   9.902 -0.1079 -1.1113 -0.5152
  182SLPC   C2720859   0.155   1.483   9.803 -0.0123  1.1005 -0.0114
  182SLPC   H7R20860   0.220   1.554   9.860 -0.1007  1.7661 -0.7178
  182SLPC   H7S20861   0.054   1.525   9.821 -1.0430 -0.6040 -1.5454
  182SLPC   C2820862   0.182   1.510   9.648  0.2867  0.0889 -0.3993
  182SLPC   H8R20863   0.114   1.451   9.584 -1.6152  1.7660 -0.0110
  182SLPC   H8S20864   0.282   1.462   9.637  0.4667 -0.3019  2.3065
  182SLPC   C2920865   0.167   1.662   9.617  0.1313  0.6092 -0.7926
  182SLPC   H9R20866   0.218   1.727   9.690  0.5924 -1.2769  0.6534
  182SLPC  C21020867   0.115   1.731   9.512  0.9676  0.0096  0.6964
  182SLPC  H10R20868   0.106   1.840   9.516  1.5768  0.0470  1.1162
  182SLPC  C21120869   0.046   1.663   9.396  0.1238 -0.1092 -0.2825
  182SLPC  H11R20870  -0.034   1.597   9.436 -0.2301 -1.2426 -2.6650
  182SLPC  H11S20871   0.119   1.595   9.346  2.1922  0.8316  1.3055
  182SLPC  C21220872  -0.030   1.744   9.294 -0.4568  0.0626 -0.0909
  182SLPC  H12R20873  -0.136   1.758   9.321 -0.5479 -0.4765 -0.1505
  182SLPC  C21320874   0.020   1.769   9.169  0.4501 -0.3215  0.3149
  182SLPC  H13R20875  -0.042   1.825   9.097  1.2302 -0.2791 -0.3313
  182SLPC  C21420876   0.149   1.731   9.106 -0.5977 -0.0745  0.2042
  182SLPC  H14R20877   0.175   1.633   9.152 -0.3147 -1.0464 -1.8830
  182SLPC  H14S20878   0.231   1.803   9.128  2.8400 -3.5235 -0.1065
  182SLPC  C21520879   0.138   1.696   8.956  0.2957  0.6256 -0.1042
  182SLPC  H15R20880   0.098   1.783   8.900  0.7705  1.6281  1.0959
  182SLPC  H15S20881   0.061   1.615   8.956  1.5595 -0.7468  3.3272
  182SLPC  C21620882   0.268   1.637   8.890  0.5142 -0.5630 -0.0137
  182SLPC  H16R20883   0.299   1.542   8.938 -2.9230 -1.6963  0.2065
  182SLPC  H16S20884   0.350   1.709   8.912 -1.4686  1.5979  0.6896
  182SLPC  C21720885   0.244   1.622   8.736  0.3177  0.4543 -0.2086
  182SLPC  H17R20886   0.222   1.727   8.705 -0.0906  0.1553 -0.9441
  182SLPC  H17S20887   0.156   1.555   8.727 -1.2178  2.2959  0.4345
  182SLPC  C21820888   0.363   1.559   8.666  0.0858 -0.9210  0.0453
  182SLPC  H18R20889   0.390   1.464   8.717  1.9208  0.2188  1.3495
  182SLPC  H18S20890   0.447   1.632   8.675  0.0636 -0.9491  0.5140
  182SLPC  H18T20891   0.335   1.535   8.562  2.2281 -0.4262 -0.7087
  182SLPC   C3320892   0.561   1.697   9.832 -0.0856  0.3272 -0.3415
  182SLPC   H3X20893   0.640   1.774   9.828  1.4901 -1.2945 -3.0677
  182SLPC   H3Y20894   0.459   1.737   9.854 -1.3911 -2.6259 -0.5979
  182SLPC   C3420895   0.569   1.637   9.694  0.1642  0.2437 -0.4739
  182SLPC   H4X20896   0.492   1.558   9.690 -1.1764  1.2728  2.3072
  182SLPC   H4Y20897   0.666   1.582   9.690 -0.3594 -0.7348 -0.1282
  182SLPC   C3520898   0.547   1.738   9.583  0.1976  0.4771  0.4202
  182SLPC   H5X20899   0.643   1.792   9.571  0.2660  0.5869  1.3693
  182SLPC   H5Y20900   0.467   1.809   9.614 -0.8053 -0.2493 -0.4410
  182SLPC   C3620901   0.511   1.674   9.446 -0.6489 -0.3238  0.2281
  182SLPC   H6X20902   0.408   1.634   9.443 -0.9079  0.3943 -1.3398
  182SLPC   H6Y20903   0.587   1.593   9.434 -2.1762 -1.5365 -1.7972
  182SLPC   C3720904   0.535   1.778   9.343  0.8228  0.2275  0.4572
  182SLPC   H7X20905   0.631   1.830   9.368  1.9362 -0.7953 -1.4049
  182SLPC   H7Y20906   0.448   1.845   9.329  0.9042  0.5508  1.4615
  182SLPC   C3820907   0.566   1.724   9.199  0.0796  0.1635  0.5975
  182SLPC   H8X20908   0.480   1.659   9.171  0.9287 -1.7986  2.2564
  182SLPC   H8Y20909   0.654   1.659   9.219 -1.1839 -1.8866 -0.1820
  182SLPC   C3920910   0.597   1.830   9.091  0.2638 -0.6063 -0.5875
  182SLPC   H9X20911   0.659   1.912   9.133 -0.2039 -0.0473 -0.9759
  182SLPC   H9Y20912   0.499   1.870   9.057  0.1204 -0.1717  0.3166
  182SLPC  C31020913   0.669   1.763   8.968 -0.2877  0.9821 -0.1215
  182SLPC  H10X20914   0.596   1.698   8.915  0.8769  0.1003 -0.6946
  182SLPC  H10Y20915   0.754   1.700   9.001  0.3704 -0.5863 -4.1415
  182SLPC  C31120916   0.713   1.871   8.871 -0.0128  0.1596  0.1888
  182SLPC  H11X20917   0.807   1.927   8.894 -0.7795  1.1913  0.8932
  182SLPC  H11Y20918   0.629   1.940   8.851 -1.0175 -1.5668 -1.9275
  182SLPC  C31220919   0.748   1.803   8.737  0.2880  0.1209 -0.0837
  182SLPC  H12X20920   0.676   1.723   8.707 -0.1699 -0.1131  1.5520
  182SLPC  H12Y20921   0.846   1.751   8.737 -0.3150 -1.0826  0.5762
  182SLPC  C31320922   0.760   1.912   8.625  0.3429  0.0502  0.4027
  182SLPC  H13X20923   0.671   1.979   8.619 -1.1411 -1.6712  1.9118
  182SLPC  H13Y20924   0.762   1.859   8.527 -4.1016  0.0451  0.1247
  182SLPC  C31420925   0.881   2.005   8.646  0.3634  0.4541 -0.0564
  182SLPC  H14X20926   0.962   1.945   8.690 -0.5893 -1.5099 -0.8389
  182SLPC  H14Y20927   0.860   2.084   8.720 -0.5852 -2.1308  2.6246
  182SLPC  C31520928   0.939   2.062   8.516 -0.3918  0.4006 -0.4932
  182SLPC  H15X20929   0.855   2.099   8.454 -0.7662 -0.8275 -0.7437
  182SLPC  H15Y20930   0.984   1.977   8.460 -0.0894 -0.4585  0.9962
  182SLPC  C31620931   1.036   2.173   8.528 -0.1070 -0.4015 -0.4896
  182SLPC  H16X20932   1.049   2.210   8.424  0.9736  0.5150 -0.0498
  182SLPC  H16Y20933   1.134   2.131   8.560 -0.4083 -0.8614 -0.1435
  182SLPC  C31720934   0.991   2.296   8.614  0.9121 -0.1168 -0.5505
  182SLPC  H17X20935   0.961   2.267   8.717 -1.9522  0.5657 -1.1110
  182SLPC  H17Y20936   0.897   2.343   8.578  1.1254  1.7646  1.2080
  182SLPC  C31820937   1.098   2.399   8.619 -0.1432 -0.5170 -0.0154
  182SLPC  H18X20938   1.073   2.495   8.669  0.0463 -0.6737  0.3822
  182SLPC  H18Y20939   1.126   2.421   8.514 -0.4248 -0.0725 -0.0028
  182SLPC  H18Z20940   1.187   2.362   8.674 -0.7548 -1.9435  0.0418
  183SLPC     N20941   1.840   3.879  10.997  0.5707 -0.5028  0.0796
  183SLPC   C1320942   1.778   3.875  10.854 -0.5607 -0.1903 -0.4926
  183SLPC  H13A20943   1.831   3.808  10.788 -1.4638 -1.4823  0.0587
  183SLPC  H13B20944   1.678   3.836  10.868  0.7525 -3.2368  1.2709
  183SLPC  H13C20945   1.785   3.972  10.807  1.2496  0.0492  0.1926
  183SLPC   C1420946   1.752   3.929  11.108  0.0529 -0.5524  0.0684
  183SLPC  H14A20947   1.807   3.944  11.200 -2.0350 -2.8048  1.8273
  183SLPC  H14B20948   1.691   4.013  11.077  1.4296  0.7737  0.7606
  183SLPC  H14C20949   1.666   3.868  11.133 -1.0579  0.8399 -0.2087
  183SLPC   C1520950   1.960   3.966  10.980 -0.1983 -0.1338 -0.1506
  183SLPC  H15A20951   2.011   3.984  11.074  0.8421  1.5568 -0.9908
  183SLPC  H15B20952   2.026   3.916  10.910 -0.2833 -1.3866  0.6367
  183SLPC  H15C20953   1.931   4.053  10.924 -4.8560 -2.4727 -1.9349
  183SLPC   C1220954   1.891   3.743  11.046 -0.4194  0.0288  0.0130
  183SLPC  H12A20955   1.805   3.682  11.070 -2.0310  2.3933  0.6157
  183SLPC  H12B20956   1.940   3.764  11.140 -0.4326  0.9405 -0.1757
  183SLPC   C1120957   1.985   3.667  10.953  0.0072  0.6703  0.3798
  183SLPC  H11A20958   1.924   3.598  10.890 -0.1712  1.3852 -0.2379
  183SLPC  H11B20959   2.042   3.604  11.026  0.8493 -1.4604 -1.9629
  183SLPC     P20960   2.179   3.667  10.774 -0.1608  0.4500  0.3106
  183SLPC   O1320961   2.234   3.771  10.684 -0.1213 -0.4568  0.1238
  183SLPC   O1420962   2.273   3.581  10.850  0.5736  0.3601  0.5217
  183SLPC   O1220963   2.081   3.735  10.880 -0.0090 -0.3132 -0.1994
  183SLPC   O1120964   2.069   3.586  10.703  0.7360 -0.4665  0.0781
  183SLPC    C120965   1.986   3.650  10.604 -0.0609 -0.4650 -0.3800
  183SLPC    HA20966   1.890   3.672  10.655 -1.3238 -0.3350 -2.6924
  183SLPC    HB20967   2.017   3.753  10.576 -0.9862  0.0829  0.5500
  183SLPC    C220968   1.973   3.566  10.471  0.2956  0.0883 -0.2157
  183SLPC    HS20969   1.934   3.624  10.385 -1.0818  0.7578  0.8135
  183SLPC   O2120970   1.888   3.447  10.490  0.1431  0.4272  0.6263
  183SLPC   C2120971   1.757   3.482  10.481 -0.3739  0.6178  0.1783
  183SLPC   O2220972   1.711   3.592  10.482  0.7346 -0.9545 -0.2172
  183SLPC   C2220973   1.685   3.338  10.461 -0.3623 -0.4620 -0.1772
  183SLPC   H2R20974   1.765   3.270  10.423  0.1540  0.0880 -0.0800
  183SLPC   H2S20975   1.668   3.309  10.567  3.0735  0.0592  0.6560
  183SLPC    C320976   2.117   3.519  10.421 -0.3373 -0.3769 -1.0261
  183SLPC    HX20977   2.102   3.449  10.336 -0.7251  1.4964 -2.5491
  183SLPC    HY20978   2.152   3.453  10.504  2.5761  0.7671 -1.2579
  183SLPC   O3120979   2.203   3.630  10.392  0.2310  0.0574 -0.6376
  183SLPC   C3120980   2.328   3.620  10.419 -0.0508 -0.2816  0.9584
  183SLPC   O3220981   2.383   3.513  10.453  0.0426 -0.5467 -0.4250
  183SLPC   C3220982   2.407   3.758  10.427 -0.2416 -0.2995 -0.3542
  183SLPC   H2X20983   2.421   3.777  10.535  0.0409 -0.3753 -0.3759
  183SLPC   H2Y20984   2.354   3.844  10.380  1.1513  0.7985  0.0096
  183SLPC   C2320985   1.554   3.361  10.378  0.5004  0.1106  0.2067
  183SLPC   H3R20986   1.516   3.465  10.382  0.8301  0.3080 -1.1084
  183SLPC   H3S20987   1.475   3.299  10.425  2.2512 -1.7660  0.8407
  183SLPC   C2420988   1.592   3.325  10.235 -0.0053 -0.2241  0.1496
  183SLPC   H4R20989   1.634   3.222  10.236 -1.3078 -0.7810  0.5859
  183SLPC   H4S20990   1.674   3.392  10.202 -1.7230  1.6635 -0.4559
  183SLPC   C2520991   1.470   3.334  10.135  0.1867 -0.1590 -0.2607
  183SLPC   H5R20992   1.404   3.422  10.146 -0.6762 -0.8792  0.4002
  183SLPC   H5S20993   1.410   3.241  10.141 -0.2620  0.0988 -0.7073
  183SLPC   C2620994   1.523   3.346   9.990 -0.4097  0.1825 -0.5498
  183SLPC   H6R20995   1.570   3.251   9.956  0.6777  0.0466  1.1888
  183SLPC   H6S20996   1.612   3.410   9.971  0.0421  0.6692  2.7216
  183SLPC   C2720997   1.419   3.381   9.885  0.3422 -0.2477  0.1360
  183SLPC   H7R20998   1.359   3.473   9.903  0.4754 -0.1830  0.2544
  183SLPC   H7S20999   1.345   3.298   9.896  1.1042 -0.6216  3.5065
  183SLPC   C2821000   1.478   3.376   9.746  0.1884 -0.1997 -0.6910
  183SLPC   H8R21001   1.397   3.375   9.669 -0.3264  0.9824 -0.1871
  183SLPC   H8S21002   1.523   3.277   9.722 -1.9410 -1.4465  0.1886
  183SLPC   C2921003   1.564   3.493   9.719 -0.6091 -0.4516 -0.0784
  183SLPC   H9R21004   1.512   3.589   9.723 -0.1863 -0.2625  2.1264
  183SLPC  C21021005   1.696   3.483   9.689  0.0062  0.7347 -0.2567
  183SLPC  H10R21006   1.756   3.570   9.660  1.5634 -0.0520  0.4899
  183SLPC  C21121007   1.776   3.357   9.678  0.5862 -0.1255 -0.1018
  183SLPC  H11R21008   1.719   3.273   9.724  2.1303 -1.8987 -1.2576
  183SLPC  H11S21009   1.877   3.370   9.723 -0.3665 -0.3719  2.3047
  183SLPC  C21221010   1.786   3.319   9.530  0.3817 -0.1992 -0.6761
  183SLPC  H12R21011   1.689   3.315   9.479  0.0313 -1.0549  0.0235
  183SLPC  C21321012   1.897   3.312   9.454  0.1074  0.0138  0.0150
  183SLPC  H13R21013   1.890   3.298   9.345  0.0563  0.1156  0.0056
  183SLPC  C21421014   2.039   3.339   9.503 -0.7966  0.2191  0.3933
  183SLPC  H14R21015   2.108   3.268   9.452  0.4444  0.2701  1.9266
  183SLPC  H14S21016   2.056   3.312   9.609 -0.0840  0.7123  0.4129
  183SLPC  C21521017   2.086   3.484   9.482 -0.8205 -1.3604  0.6198
  183SLPC  H15R21018   2.034   3.555   9.550 -0.4142  3.4024 -3.4727
  183SLPC  H15S21019   2.075   3.531   9.382 -0.2852 -0.9123  0.7701
  183SLPC  C21621020   2.237   3.487   9.521 -0.4488 -0.5082 -0.2307
  183SLPC  H16R21021   2.250   3.447   9.624 -0.1224 -1.2768 -0.5702
  183SLPC  H16S21022   2.282   3.588   9.512  2.0797 -1.6470 -1.0960
  183SLPC  C21721023   2.328   3.406   9.422 -0.6142 -0.1545 -0.2387
  183SLPC  H17R21024   2.299   3.442   9.321 -1.2871 -0.0459 -0.0117
  183SLPC  H17S21025   2.315   3.296   9.426 -0.7766 -0.1120  0.9159
  183SLPC  C21821026   2.472   3.426   9.458  0.1758  0.8284 -0.2202
  183SLPC  H18R21027   2.535   3.347   9.412  0.1654  0.0634  1.0221
  183SLPC  H18S21028   2.479   3.412   9.568 -1.5431 -0.0998 -0.1935
  183SLPC  H18T21029   2.506   3.527   9.427  0.4498  0.4772 -1.0900
  183SLPC   C3321030   2.546   3.757  10.361  0.8913  0.1913  0.0333
  183SLPC   H3X21031   2.607   3.665  10.372 -0.0550 -0.4189  0.2550
  183SLPC   H3Y21032   2.591   3.843  10.416 -0.2722  0.4149  0.6633
  183SLPC   C3421033   2.534   3.777  10.212  0.6799 -0.0560  0.8135
  183SLPC   H4X21034   2.478   3.868  10.180  0.9489  0.2963  1.3464
  183SLPC   H4Y21035   2.478   3.692  10.167  0.6700  1.7839 -3.1758
  183SLPC   C3521036   2.662   3.777  10.129  0.1758 -0.1158  0.1450
  183SLPC   H5X21037   2.712   3.678  10.120  1.1179  0.4638 -1.5905
  183SLPC   H5Y21038   2.734   3.849  10.173 -1.4535  1.3018  0.5962
  183SLPC   C3621039   2.634   3.802   9.982 -0.0696  0.6071 -0.3274
  183SLPC   H6X21040   2.579   3.898   9.969  0.3949  1.0310  0.7609
  183SLPC   H6Y21041   2.573   3.719   9.941  1.4568 -1.7385  1.8134
  183SLPC   C3721042   2.761   3.804   9.886  0.0951 -0.3503  0.4063
  183SLPC   H7X21043   2.803   3.702   9.889  0.5263 -0.2902 -1.9391
  183SLPC   H7Y21044   2.835   3.872   9.934 -1.9060  1.1253  1.5818
  183SLPC   C3821045   2.725   3.842   9.738 -0.1188  0.1218 -0.4260
  183SLPC   H8X21046   2.642   3.914   9.725  0.4687  0.3816 -3.6888
  183SLPC   H8Y21047   2.695   3.742   9.700  2.1684 -0.6406 -0.4222
  183SLPC   C3921048   2.852   3.890   9.667  0.7582  0.6338  0.1356
  183SLPC   H9X21049   2.931   3.820   9.700  0.8532  0.4249 -0.5090
  183SLPC   H9Y21050   2.888   3.986   9.709  1.7414  1.0166 -1.4801
  183SLPC  C31021051   2.851   3.895   9.515 -0.0938  0.3430  0.0498
  183SLPC  H10X21052   2.765   3.963   9.498 -0.9589 -0.7005  0.1490
  183SLPC  H10Y21053   2.832   3.796   9.469  0.5929 -0.3409  1.1845
  183SLPC  C31121054   2.977   3.953   9.455 -0.0851 -0.8680  0.0664
  183SLPC  H11X21055   3.057   3.878   9.438  1.6376  0.6523  1.0890
  183SLPC  H11Y21056   3.001   4.044   9.513  0.6114  0.3260 -1.9760
  183SLPC  C31221057   2.953   4.005   9.308  0.9079  0.5659  0.6309
  183SLPC  H12X21058   3.042   4.062   9.277 -1.0737  3.6905  0.2572
  183SLPC  H12Y21059   2.859   4.064   9.314  0.3714 -0.1251 -0.4625
  183SLPC  C31321060   2.932   3.891   9.211 -0.2842  0.1810  0.3739
  183SLPC  H13X21061   2.858   3.821   9.256  0.0155 -1.4204 -1.4670
  183SLPC  H13Y21062   3.014   3.821   9.186 -0.5036 -0.2559  0.8481
  183SLPC  C31421063   2.872   3.951   9.076  0.8064  0.8419  0.3284
  183SLPC  H14X21064   2.779   3.996   9.115  0.6259 -0.6549  1.7295
  183SLPC  H14Y21065   2.849   3.874   8.999  1.1933 -0.2558  1.2838
  183SLPC  C31521066   2.954   4.053   9.012 -0.2997  0.3190  0.6282
  183SLPC  H15X21067   3.059   4.021   8.993 -1.1004 -2.2260  0.0663
  183SLPC  H15Y21068   2.952   4.142   9.078  1.4210  0.6382  0.3083
  183SLPC  C31621069   2.896   4.101   8.878 -0.1582 -0.8572 -0.0393
  183SLPC  H16X21070   2.791   4.132   8.891  0.3727  0.5045  1.2409
  183SLPC  H16Y21071   2.901   4.025   8.797  0.0845  0.1250 -0.9732
  183SLPC  C31721072   2.970   4.222   8.831 -0.1238 -0.4961  0.0502
  183SLPC  H17X21073   3.080   4.203   8.837  0.1060 -0.1025 -2.1682
  183SLPC  H17Y21074   2.942   4.315   8.885 -1.9341  1.6586 -4.1218
  183SLPC  C31821075   2.936   4.254   8.691 -0.0964  0.0605  0.4474
  183SLPC  H18X21076   3.000   4.334   8.649  1.0230 -1.9216 -1.8655
  183SLPC  H18Y21077   2.835   4.295   8.671  1.4451  3.8832 -0.3533
  183SLPC  H18Z21078   2.934   4.157   8.636 -0.9481  1.1047 -1.4517
  184SLPC     N21079   4.092   4.523  11.017  0.3794  0.0803 -0.0050
  184SLPC   C1321080   3.964   4.507  11.095  0.2671 -0.4992 -0.4165
  184SLPC  H13A21081   3.980   4.500  11.201 -0.0786 -2.2714 -0.4489
  184SLPC  H13B21082   3.892   4.587  11.087 -1.6481 -2.2145 -1.5512
  184SLPC  H13C21083   3.910   4.415  11.074 -3.0110  1.1188  0.2792
  184SLPC   C1421084   4.198   4.428  11.062  0.2856  0.3717 -0.1033
  184SLPC  H14A21085   4.212   4.443  11.168 -1.0551  0.4126  0.0832
  184SLPC  H14B21086   4.177   4.324  11.041  2.2829  0.0683 -0.8733
  184SLPC  H14C21087   4.292   4.444  11.010 -1.2554  1.5842 -2.6864
  184SLPC   C1521088   4.146   4.654  11.051 -0.3611  0.1366  0.4287
  184SLPC  H15A21089   4.123   4.691  11.149  1.2084  2.1300  0.1144
  184SLPC  H15B21090   4.252   4.668  11.035 -0.2810  0.5607  1.3216
  184SLPC  H15C21091   4.085   4.719  10.990  1.0113 -0.6873 -1.9963
  184SLPC   C1221092   4.071   4.516  10.869  0.1345  0.0585  0.3390
  184SLPC  H12A21093   4.009   4.427  10.864 -0.0904  0.1034  1.8700
  184SLPC  H12B21094   4.164   4.500  10.817 -1.5288 -1.2972 -2.4697
  184SLPC   C1121095   4.001   4.635  10.785 -0.8274 -0.0747  0.0066
  184SLPC  H11A21096   4.020   4.598  10.682 -0.7920 -0.9990  0.3389
  184SLPC  H11B21097   4.053   4.732  10.798 -2.4503  0.9950 -1.1066
  184SLPC     P21098   3.754   4.559  10.797 -0.4010  0.1182 -0.6123
  184SLPC   O1321099   3.805   4.422  10.789 -0.9621 -0.1328 -0.3587
  184SLPC   O1421100   3.642   4.586  10.891 -0.0229  0.4528  0.1894
  184SLPC   O1221101   3.871   4.655  10.827 -0.0533  0.2235 -0.3300
  184SLPC   O1121102   3.694   4.607  10.657  0.1597 -0.0192  0.3301
  184SLPC    C121103   3.698   4.514  10.548  0.0999  0.2687  1.1799
  184SLPC    HA21104   3.728   4.571  10.458 -2.8901  1.3727  0.7582
  184SLPC    HB21105   3.778   4.438  10.562  1.1068  0.9887 -0.4473
  184SLPC    C221106   3.561   4.452  10.518 -0.1049  0.4319 -0.3459
  184SLPC    HS21107   3.530   4.399  10.610  0.7709 -1.2409 -0.9872
  184SLPC   O2121108   3.578   4.358  10.410  0.0860 -0.0211 -0.5649
  184SLPC   C2121109   3.483   4.277  10.388  0.1892  0.1957  0.1309
  184SLPC   O2221110   3.374   4.276  10.440  0.8542  0.6673  0.1535
  184SLPC   C2221111   3.533   4.184  10.278  0.3125  0.5840  0.4407
  184SLPC   H2R21112   3.546   4.251  10.191 -0.5095 -0.8923 -0.8803
  184SLPC   H2S21113   3.624   4.126  10.308 -0.6733 -0.9071  0.6565
  184SLPC    C321114   3.454   4.559  10.486  0.0061  0.2381  0.4299
  184SLPC    HX21115   3.434   4.620  10.576 -3.4519  0.1821 -0.1737
  184SLPC    HY21116   3.357   4.508  10.469 -1.1670  2.3031  0.5849
  184SLPC   O3121117   3.497   4.637  10.370  0.7410  0.2104 -0.5295
  184SLPC   C3121118   3.451   4.592  10.251  0.1076 -1.0487 -0.5562
  184SLPC   O3221119   3.377   4.494  10.229  0.3208  0.4057 -0.5651
  184SLPC   C3221120   3.533   4.656  10.135  0.2234 -0.8057 -0.4139
  184SLPC   H2X21121   3.619   4.701  10.189  0.2376 -0.3935 -0.7787
  184SLPC   H2Y21122   3.457   4.723  10.091 -0.9786  0.4172  3.1213
  184SLPC   C2321123   3.421   4.086  10.232  0.1025 -0.6618 -0.1826
  184SLPC   H3R21124   3.331   4.149  10.216  1.1976  0.6001 -1.7508
  184SLPC   H3S21125   3.404   4.017  10.318  0.1790  0.3618  0.6814
  184SLPC   C2421126   3.451   4.021  10.099 -0.5042 -0.1663  0.2241
  184SLPC   H4R21127   3.366   3.954  10.075 -1.2183  0.0030  2.0989
  184SLPC   H4S21128   3.541   3.957  10.114  0.2147  1.2753  2.6264
  184SLPC   C2521129   3.480   4.126   9.986  1.1316 -1.0702  0.0925
  184SLPC   H5R21130   3.583   4.169   9.981  0.9336 -0.6996 -1.1483
  184SLPC   H5S21131   3.404   4.207   9.991 -1.2224 -3.1268 -0.0889
  184SLPC   C2621132   3.461   4.037   9.856  1.2776 -0.5122  0.6150
  184SLPC   H6R21133   3.355   4.003   9.857  0.1390  2.2676 -2.9593
  184SLPC   H6S21134   3.534   3.954   9.868  2.0471 -0.1574 -1.2762
  184SLPC   C2721135   3.483   4.113   9.717  0.3829  0.2915 -0.9679
  184SLPC   H7R21136   3.594   4.123   9.726  0.8705 -4.3000  1.4852
  184SLPC   H7S21137   3.436   4.214   9.718  1.8326  0.9913 -0.2392
  184SLPC   C2821138   3.457   4.030   9.595 -0.4023 -0.1057 -0.2798
  184SLPC   H8R21139   3.479   3.924   9.621 -0.1285  0.0447  0.1121
  184SLPC   H8S21140   3.527   4.052   9.512 -1.5301 -2.3776 -1.9592
  184SLPC   C2921141   3.317   4.066   9.544 -0.9201  0.0313  0.3337
  184SLPC   H9R21142   3.239   4.045   9.619 -0.7808  3.2543  1.5460
  184SLPC  C21021143   3.289   4.112   9.424 -0.2140  0.0205  0.1806
  184SLPC  H10R21144   3.183   4.131   9.402 -0.4959 -0.0819  1.3715
  184SLPC  C21121145   3.386   4.139   9.315  0.6574 -0.6879 -0.0638
  184SLPC  H11R21146   3.447   4.048   9.297  0.9307 -0.3042 -1.1265
  184SLPC  H11S21147   3.454   4.220   9.348 -0.0402  0.6866 -1.8265
  184SLPC  C21221148   3.315   4.164   9.179  1.0647  0.0019  0.6510
  184SLPC  H12R21149   3.205   4.154   9.178  1.0352 -0.4442  3.0736
  184SLPC  C21321150   3.374   4.199   9.064 -0.0680 -0.2303 -0.7177
  184SLPC  H13R21151   3.316   4.204   8.971  0.6539  0.7276 -1.1406
  184SLPC  C21421152   3.520   4.227   9.047  0.1673  0.3045 -0.1862
  184SLPC  H14R21153   3.569   4.198   9.142  1.4035 -1.7020 -1.3664
  184SLPC  H14S21154   3.546   4.334   9.030 -0.0810  0.8092  2.2849
  184SLPC  C21521155   3.575   4.133   8.934  0.2953 -0.3240  0.5649
  184SLPC  H15R21156   3.530   4.032   8.936 -4.0044  1.3001 -1.2228
  184SLPC  H15S21157   3.684   4.133   8.955  0.8965  1.0975 -2.0527
  184SLPC  C21621158   3.569   4.197   8.795  0.5709 -0.1945 -0.1795
  184SLPC  H16R21159   3.637   4.284   8.798 -1.9871  1.9083  1.3798
  184SLPC  H16S21160   3.470   4.247   8.781  0.9099  0.4884 -0.1948
  184SLPC  C21721161   3.600   4.104   8.679 -0.2653 -0.2511 -0.6826
  184SLPC  H17R21162   3.699   4.056   8.696  0.6567  2.0421  1.0472
  184SLPC  H17S21163   3.622   4.155   8.583  1.6340 -2.8000 -1.7221
  184SLPC  C21821164   3.491   4.001   8.654  0.4597  0.0630  0.0893
  184SLPC  H18R21165   3.519   3.946   8.562 -0.7301  1.1494 -0.9575
  184SLPC  H18S21166   3.393   4.051   8.636 -0.7512 -0.9235  3.2047
  184SLPC  H18T21167   3.485   3.936   8.745  0.9851 -1.0510 -0.6526
  184SLPC   C3321168   3.594   4.556  10.031 -0.2692  0.5109 -0.2833
  184SLPC   H3X21169   3.520   4.476  10.010 -0.8992  0.9363  0.2240
  184SLPC   H3Y21170   3.689   4.506  10.059 -1.0603 -0.4033  0.9000
  184SLPC   C3421171   3.609   4.623   9.898 -0.1471  0.4023 -0.0270
  184SLPC   H4X21172   3.664   4.718   9.914  3.0884 -1.7269  2.7889
  184SLPC   H4Y21173   3.506   4.641   9.859 -0.5642  1.7484  1.5314
  184SLPC   C3521174   3.687   4.531   9.805 -0.0525 -0.5330 -0.0563
  184SLPC   H5X21175   3.742   4.451   9.859  1.9017  1.9290  1.8716
  184SLPC   H5Y21176   3.767   4.593   9.759 -0.2261 -0.2007  0.0918
  184SLPC   C3621177   3.595   4.491   9.687 -0.7591  0.0846 -0.6527
  184SLPC   H6X21178   3.489   4.471   9.715 -0.4124 -0.3252  0.3995
  184SLPC   H6Y21179   3.644   4.402   9.641  1.1795  1.3126 -1.0609
  184SLPC   C3721180   3.601   4.602   9.576  0.5862  0.1383 -0.4963
  184SLPC   H7X21181   3.700   4.653   9.583 -0.1544  1.4004  2.5857
  184SLPC   H7Y21182   3.539   4.688   9.609  3.7652  2.1668  0.6975
  184SLPC   C3821183   3.554   4.562   9.431  0.6752 -0.5513 -0.4567
  184SLPC   H8X21184   3.453   4.518   9.429  0.7203 -0.7489  0.7987
  184SLPC   H8Y21185   3.631   4.490   9.397 -0.2949 -2.5880  1.4165
  184SLPC   C3921186   3.542   4.676   9.330 -0.3009  0.3275 -0.1194
  184SLPC   H9X21187   3.517   4.641   9.227 -0.8757  3.0242 -0.9844
  184SLPC   H9Y21188   3.632   4.739   9.317  1.7176 -2.4828 -0.7201
  184SLPC  C31021189   3.426   4.773   9.370 -0.2746 -0.1980  0.6858
  184SLPC  H10X21190   3.454   4.823   9.465  0.1878 -0.9259  0.9453
  184SLPC  H10Y21191   3.327   4.723   9.376 -1.1326  1.3814  0.2060
  184SLPC  C31121192   3.421   4.878   9.260 -0.3050  0.0209 -0.2283
  184SLPC  H11X21193   3.406   4.817   9.168  1.6545 -0.7126 -0.1233
  184SLPC  H11Y21194   3.515   4.937   9.259  0.3764 -0.9894  1.1043
  184SLPC  C31221195   3.309   4.975   9.286 -0.0691  0.5804 -0.2508
  184SLPC  H12X21196   3.300   5.006   9.392 -1.9315  0.2117 -0.2673
  184SLPC  H12Y21197   3.210   4.928   9.269 -1.1186  1.3016  3.1814
  184SLPC  C31321198   3.322   5.097   9.190 -0.3977 -0.4360 -0.0473
  184SLPC  H13X21199   3.327   5.074   9.082  2.4514  0.7226 -0.2402
  184SLPC  H13Y21200   3.416   5.149   9.219  0.3512 -1.4739 -0.5649
  184SLPC  C31421201   3.201   5.188   9.216  0.2798 -0.1414 -0.2487
  184SLPC  H14X21202   3.196   5.214   9.324  0.9638  1.4215 -0.5717
  184SLPC  H14Y21203   3.112   5.122   9.202  0.4678 -0.5858  0.5645
  184SLPC  C31521204   3.203   5.310   9.124  0.7349  0.8335 -0.7654
  184SLPC  H15X21205   3.101   5.353   9.117  1.8412  3.6706 -0.9765
  184SLPC  H15Y21206   3.228   5.274   9.022 -1.1197 -0.5696 -0.7805
  184SLPC  C31621207   3.296   5.421   9.177  0.2879  0.6412 -0.1535
  184SLPC  H16X21208   3.396   5.382   9.203  0.2184  1.7386  1.9830
  184SLPC  H16Y21209   3.270   5.457   9.278  1.9803  1.0868  0.1526
  184SLPC  C31721210   3.311   5.556   9.102  0.2971  0.3428  0.7853
  184SLPC  H17X21211   3.379   5.551   9.015  0.6716  0.5708  1.0617
  184SLPC  H17Y21212   3.354   5.630   9.174  1.7105  1.9483 -1.5760
  184SLPC  C31821213   3.179   5.616   9.045  0.6122 -0.1140 -0.4236
  184SLPC  H18X21214   3.195   5.707   8.984  1.9321 -1.1253 -1.6441
  184SLPC  H18Y21215   3.113   5.649   9.128  2.6053  0.9045  0.8284
  184SLPC  H18Z21216   3.128   5.541   8.980 -0.8427  0.0301  0.4919
  185SLPC     N21217   5.532   0.566   6.108 -0.1047  0.0869 -0.0837
  185SLPC   C1321218   5.523   0.428   6.049  0.3576  0.1548  0.0117
  185SLPC  H13A21219   5.460   0.373   6.117 -1.9940  1.2907 -1.1476
  185SLPC  H13B21220   5.479   0.427   5.950 -0.1609 -1.1450  0.2327
  185SLPC  H13C21221   5.619   0.382   6.028  0.6690  0.9897 -0.4457
  185SLPC   C1421222   5.405   0.638   6.094  0.4389  0.0442  0.9273
  185SLPC  H14A21223   5.424   0.738   6.129  0.7597 -0.2075  1.5035
  185SLPC  H14B21224   5.371   0.643   5.992  1.4827 -0.4478  0.5400
  185SLPC  H14C21225   5.323   0.593   6.148 -0.7337  2.9526  1.7605
  185SLPC   C1521226   5.631   0.643   6.028 -0.0075 -0.4300  0.4629
  185SLPC  H15A21227   5.722   0.588   6.010  0.1911  0.0803 -0.1331
  185SLPC  H15B21228   5.588   0.668   5.931  0.7232  1.9588  0.6876
  185SLPC  H15C21229   5.638   0.743   6.069 -1.3589 -0.9085  1.9488
  185SLPC   C1221230   5.566   0.559   6.253 -0.1901  0.0184  0.0485
  185SLPC  H12A21231   5.647   0.489   6.268 -1.7141 -1.8884 -0.3326
  185SLPC  H12B21232   5.483   0.506   6.295  1.4920 -2.3343  0.6001
  185SLPC   C1121233   5.593   0.698   6.324 -0.2440  0.0310 -0.1969
  185SLPC  H11A21234   5.598   0.683   6.434 -0.5884 -0.6023 -0.2629
  185SLPC  H11B21235   5.503   0.761   6.306 -1.0796 -0.3931  2.0830
  185SLPC     P21236   5.746   0.911   6.303  0.5033 -0.2301 -0.0889
  185SLPC   O1321237   5.860   0.948   6.211 -0.2019  0.3569 -0.9028
  185SLPC   O1421238   5.623   0.994   6.284 -0.0572 -0.2767  0.4544
  185SLPC   O1221239   5.712   0.760   6.280  0.0839 -0.0708 -0.1530
  185SLPC   O1121240   5.787   0.922   6.456  0.5592 -0.5381 -0.7650
  185SLPC    C121241   5.871   0.811   6.502 -0.3668 -0.3608  0.0089
  185SLPC    HA21242   5.807   0.735   6.549 -3.1458  0.9261 -1.4543
  185SLPC    HB21243   5.922   0.769   6.413  0.1546  1.3284 -0.5479
  185SLPC    C221244   5.981   0.870   6.596  0.0842  0.6401 -0.8094
  185SLPC    HS21245   6.044   0.785   6.628 -0.0712  0.8753  0.1471
  185SLPC   O2121246   5.936   0.935   6.720 -0.7331 -0.1385 -0.4115
  185SLPC   C2121247   5.870   0.858   6.794  0.9316 -0.3231 -0.1975
  185SLPC   O2221248   5.871   0.738   6.807  0.2033 -0.3985  0.1116
  185SLPC   C2221249   5.762   0.944   6.858 -0.3197  0.1489 -1.0401
  185SLPC   H2R21250   5.777   1.051   6.834 -1.7008  0.9826  1.4521
  185SLPC   H2S21251   5.675   0.910   6.797  0.4133  0.2529 -2.1841
  185SLPC    C321252   6.065   0.972   6.516 -0.0409  0.7669  0.2182
  185SLPC    HX21253   6.023   1.074   6.528  1.6546  1.6049 -0.6610
  185SLPC    HY21254   6.057   0.962   6.406 -0.5089  0.1937  0.3023
  185SLPC   O3121255   6.204   0.974   6.566 -0.2768 -0.5018 -0.2873
  185SLPC   C3121256   6.278   0.882   6.511  0.5161 -0.0915  0.5156
  185SLPC   O3221257   6.230   0.799   6.431  0.1018 -0.1839 -0.6282
  185SLPC   C3221258   6.421   0.892   6.554 -0.0410  0.2813 -0.2426
  185SLPC   H2X21259   6.451   0.998   6.569  0.7166 -0.0524  0.6691
  185SLPC   H2Y21260   6.478   0.855   6.466 -1.1112  0.2225 -0.9300
  185SLPC   C2321261   5.736   0.931   7.010 -0.9385 -0.4062  0.0194
  185SLPC   H3R21262   5.727   0.825   7.042 -0.1321 -0.6918 -0.6639
  185SLPC   H3S21263   5.658   1.002   7.044 -0.4266 -0.5679  1.6179
  185SLPC   C2421264   5.861   0.979   7.084  0.2960 -0.0520  0.1762
  185SLPC   H4R21265   5.881   1.085   7.059  1.1526 -0.1477  0.4097
  185SLPC   H4S21266   5.956   0.928   7.057  0.4371  1.1363 -1.7461
  185SLPC   C2521267   5.839   0.982   7.231 -0.3771 -0.8816  0.6325
  185SLPC   H5R21268   5.804   0.883   7.265 -0.4188 -0.2118  2.6707
  185SLPC   H5S21269   5.757   1.055   7.250  0.1415 -0.2424  0.4577
  185SLPC   C2621270   5.970   1.020   7.311 -0.3655  0.1631  0.5000
  185SLPC   H6R21271   6.059   0.997   7.249 -0.1427 -1.3947  1.3586
  185SLPC   H6S21272   5.964   0.947   7.395 -0.5965 -0.7414 -0.2901
  185SLPC   C2721273   5.977   1.167   7.352 -0.1257 -0.1237 -0.1754
  185SLPC   H7R21274   5.881   1.212   7.386  0.4638  1.3487 -0.3924
  185SLPC   H7S21275   6.005   1.217   7.257  1.0070 -0.2803  0.0653
  185SLPC   C2821276   6.074   1.184   7.472  0.0407 -0.2467  0.3606
  185SLPC   H8R21277   6.174   1.180   7.425  0.1660  2.1678  0.2779
  185SLPC   H8S21278   6.055   1.102   7.544 -0.4178 -2.9772 -2.6394
  185SLPC   C2921279   6.072   1.322   7.544 -0.0522  0.1646 -0.0033
  185SLPC   H9R21280   6.100   1.411   7.485  1.0638  0.1680  0.5272
  185SLPC  C21021281   6.043   1.332   7.680  0.9955 -0.3497  0.5125
  185SLPC  H10R21282   6.029   1.434   7.720 -1.6712 -0.6728  0.5451
  185SLPC  C21121283   6.009   1.217   7.769  0.1796  0.3687  0.2310
  185SLPC  H11R21284   6.035   1.262   7.867 -1.1445  1.4901  0.1038
  185SLPC  H11S21285   6.080   1.131   7.765  0.2851  0.4554  0.2528
  185SLPC  C21221286   5.865   1.171   7.746  0.0582  0.2178 -0.1453
  185SLPC  H12R21287   5.838   1.136   7.646 -0.3365  0.5797 -0.1697
  185SLPC  C21321288   5.761   1.163   7.836  0.7164 -0.1326  0.6309
  185SLPC  H13R21289   5.662   1.132   7.800  0.1684  2.2647 -0.1125
  185SLPC  C21421290   5.777   1.197   7.983 -0.4332 -0.9270 -0.1181
  185SLPC  H14R21291   5.718   1.289   8.004 -1.1474 -1.3564 -0.2273
  185SLPC  H14S21292   5.883   1.217   8.012 -1.2409  0.6824  1.9681
  185SLPC  C21521293   5.709   1.084   8.067  0.1794  0.2128  0.1593
  185SLPC  H15R21294   5.606   1.072   8.028  1.1941 -3.6784 -1.8174
  185SLPC  H15S21295   5.706   1.129   8.168 -2.5441  2.7643 -0.9257
  185SLPC  C21621296   5.791   0.955   8.066  0.1311  0.2897 -0.1293
  185SLPC  H16R21297   5.899   0.980   8.067  0.5773 -1.4123 -0.9753
  185SLPC  H16S21298   5.776   0.898   7.972  0.0720 -0.4603  0.3259
  185SLPC  C21721299   5.760   0.874   8.198 -0.0644 -0.0311 -0.0174
  185SLPC  H17R21300   5.651   0.856   8.208 -0.3226  2.3185  2.7279
  185SLPC  H17S21301   5.787   0.941   8.283  0.3271  0.2210 -0.3360
  185SLPC  C21821302   5.834   0.743   8.205 -0.6063 -0.0955  0.7943
  185SLPC  H18R21303   5.944   0.751   8.188 -0.8732 -0.1768 -1.3370
  185SLPC  H18S21304   5.793   0.672   8.130 -0.3679  1.0377 -0.4375
  185SLPC  H18T21305   5.819   0.700   8.306  1.2156 -1.4433  0.5524
  185SLPC   C3321306   6.447   0.809   6.686  0.3165 -0.7291 -0.0424
  185SLPC   H3X21307   6.555   0.821   6.710  0.0709  0.7512  0.4271
  185SLPC   H3Y21308   6.421   0.703   6.668 -2.9417 -0.1118  0.5076
  185SLPC   C3421309   6.366   0.853   6.806 -0.3867 -0.1148 -1.1558
  185SLPC   H4X21310   6.257   0.835   6.800 -0.5453 -0.0798  0.8687
  185SLPC   H4Y21311   6.370   0.964   6.813 -0.3967 -0.0219 -2.5002
  185SLPC   C3521312   6.403   0.777   6.933  0.2123  0.3300 -0.0740
  185SLPC   H5X21313   6.512   0.767   6.953 -0.2038  0.3772  2.6369
  185SLPC   H5Y21314   6.368   0.675   6.908  2.5136  0.0896 -2.7099
  185SLPC   C3621315   6.324   0.833   7.048 -0.0834  0.1112  0.6940
  185SLPC   H6X21316   6.219   0.854   7.016 -0.0287 -0.5866  0.0344
  185SLPC   H6Y21317   6.367   0.934   7.069  0.4310  0.2770 -1.0405
  185SLPC   C3721318   6.332   0.743   7.173 -0.2456 -0.4989 -1.0719
  185SLPC   H7X21319   6.436   0.718   7.203 -0.0799 -1.2572 -2.2369
  185SLPC   H7Y21320   6.281   0.648   7.146  0.2870 -1.0231 -0.2788
  185SLPC   C3821321   6.271   0.815   7.292  0.2210  0.4101  0.3880
  185SLPC   H8X21322   6.162   0.819   7.272  0.3367  1.9461 -0.0392
  185SLPC   H8Y21323   6.320   0.914   7.305 -2.0544  1.7793 -0.8130
  185SLPC   C3921324   6.273   0.738   7.428 -0.7576 -0.2167 -1.0589
  185SLPC   H9X21325   6.378   0.721   7.462 -0.5166  0.7627 -1.2943
  185SLPC   H9Y21326   6.228   0.637   7.416  2.0255 -1.9003  1.2166
  185SLPC  C31021327   6.208   0.808   7.543 -0.2122  0.2525  0.3971
  185SLPC  H10X21328   6.101   0.831   7.524  0.3573  2.9975  0.1901
  185SLPC  H10Y21329   6.254   0.908   7.557  0.1797 -0.2457  3.3439
  185SLPC  C31121330   6.234   0.741   7.676 -0.2115  0.3964  0.2680
  185SLPC  H11X21331   6.340   0.752   7.705  0.2287 -2.4046  0.0404
  185SLPC  H11Y21332   6.213   0.634   7.653  1.0870  0.5518 -1.9062
  185SLPC  C31221333   6.142   0.798   7.786  0.1530 -0.2180  0.1872
  185SLPC  H12X21334   6.036   0.795   7.756 -0.2688  1.3609  1.3373
  185SLPC  H12Y21335   6.157   0.908   7.794 -0.0252 -0.2795  1.9000
  185SLPC  C31321336   6.166   0.727   7.918  0.5991  0.2562  0.1440
  185SLPC  H13X21337   6.133   0.623   7.901 -1.4046  0.3677  2.7271
  185SLPC  H13Y21338   6.099   0.772   7.994  1.5064  1.5540  0.2224
  185SLPC  C31421339   6.305   0.732   7.988 -0.0152 -0.5042  0.4251
  185SLPC  H14X21340   6.371   0.658   7.937  0.5932 -0.8382  1.6766
  185SLPC  H14Y21341   6.310   0.687   8.089  2.5908 -0.6368  0.2902
  185SLPC  C31521342   6.368   0.865   7.983 -0.0202 -0.6881 -0.9013
  185SLPC  H15X21343   6.367   0.907   7.880 -1.7131  2.1263  0.1415
  185SLPC  H15Y21344   6.472   0.863   8.022 -0.4382  0.8683  0.3859
  185SLPC  C31621345   6.297   0.975   8.066  0.7289 -0.3516  0.1457
  185SLPC  H16X21346   6.269   0.944   8.169  1.8178 -2.1960 -0.0624
  185SLPC  H16Y21347   6.199   1.001   8.022  0.2682 -1.5282  0.4466
  185SLPC  C31721348   6.376   1.109   8.071  0.2873  0.9893  0.0962
  185SLPC  H17X21349   6.399   1.135   7.965 -1.5432  0.6958 -0.4052
  185SLPC  H17Y21350   6.476   1.100   8.119  0.4878  1.5012 -0.2239
  185SLPC  C31821351   6.304   1.233   8.126 -0.0448  0.2950 -0.6822
  185SLPC  H18X21352   6.338   1.328   8.080 -0.9693  2.9864  3.6463
  185SLPC  H18Y21353   6.326   1.230   8.235  0.1300 -1.6512 -0.7376
  185SLPC  H18Z21354   6.194   1.222   8.114 -0.1095 -0.5520  0.5180
  186SLPC     N21355   1.245   1.075   6.016 -0.3142  0.0612 -0.4339
  186SLPC   C1321356   1.274   0.952   5.932  0.3207  0.0751 -0.3856
  186SLPC  H13A21357   1.231   0.860   5.968  0.5113 -0.7683 -2.1912
  186SLPC  H13B21358   1.241   0.972   5.831  1.2764 -1.6088 -1.0814
  186SLPC  H13C21359   1.381   0.935   5.934  0.0723 -1.5627 -0.3555
  186SLPC   C1421360   1.102   1.108   6.010 -0.1392 -0.6796  1.0594
  186SLPC  H14A21361   1.080   1.202   6.058  1.4779  0.1149  0.3456
  186SLPC  H14B21362   1.077   1.125   5.906  1.0308 -2.0828  0.5164
  186SLPC  H14C21363   1.036   1.036   6.055 -2.9751  2.0148  1.5099
  186SLPC   C1521364   1.327   1.185   5.951 -0.6863  0.0985  0.2765
  186SLPC  H15A21365   1.318   1.287   5.984  2.3621  0.3653  0.5066
  186SLPC  H15B21366   1.432   1.171   5.971 -0.5771  0.3057 -0.1390
  186SLPC  H15C21367   1.304   1.190   5.845 -0.0674  0.2483  0.1501
  186SLPC   C1221368   1.301   1.046   6.149  0.2159  0.2549 -0.1913
  186SLPC  H12A21369   1.276   0.948   6.184  1.8075 -0.0807  0.0965
  186SLPC  H12B21370   1.265   1.123   6.215 -0.3846  1.3554 -1.7227
  186SLPC   C1121371   1.458   1.041   6.173  0.0136  0.4516  0.1333
  186SLPC  H11A21372   1.513   0.982   6.097 -2.1546 -1.8424  0.2337
  186SLPC  H11B21373   1.470   0.992   6.272  1.0332  0.4963  0.0450
  186SLPC     P21374   1.476   1.293   6.283  0.0059  0.0754  0.4498
  186SLPC   O1321375   1.569   1.285   6.397  0.2086  0.0043 -0.2236
  186SLPC   O1421376   1.463   1.427   6.213 -0.2356 -0.1764 -0.0403
  186SLPC   O1221377   1.507   1.171   6.182 -0.4471  0.3729  0.4101
  186SLPC   O1121378   1.332   1.258   6.334  0.2508 -0.3291  0.2319
  186SLPC    C121379   1.234   1.363   6.359  0.9057  0.0743 -0.3755
  186SLPC    HA21380   1.270   1.468   6.360  0.0325  0.4054 -1.6504
  186SLPC    HB21381   1.167   1.348   6.272 -0.1865  0.1533  0.4279
  186SLPC    C221382   1.167   1.338   6.496 -0.2658 -0.4378  0.0801
  186SLPC    HS21383   1.084   1.408   6.521 -1.0633 -1.7177  1.1212
  186SLPC   O2121384   1.266   1.343   6.600  0.3989 -0.1366 -0.4444
  186SLPC   C2121385   1.310   1.461   6.631 -0.6245  0.8541 -0.3862
  186SLPC   O2221386   1.265   1.566   6.584 -0.3808  0.2090  0.0447
  186SLPC   C2221387   1.425   1.444   6.732  0.3012  0.4232 -0.0068
  186SLPC   H2R21388   1.417   1.347   6.784 -0.1690  1.2336  1.4814
  186SLPC   H2S21389   1.520   1.453   6.675  0.6408  0.8284  0.6165
  186SLPC    C321390   1.095   1.200   6.503 -0.0811  0.0170 -0.3099
  186SLPC    HX21391   1.161   1.118   6.470 -0.0580  0.4722 -1.4172
  186SLPC    HY21392   1.017   1.185   6.426 -0.4332 -0.7875  0.1887
  186SLPC   O3121393   1.034   1.184   6.638  0.1700  0.1283 -0.1031
  186SLPC   C3121394   1.043   1.062   6.698  0.0357  0.4464 -0.5041
  186SLPC   O3221395   1.070   0.955   6.646 -0.4259 -0.3155  0.1614
  186SLPC   C3221396   0.993   1.078   6.843 -0.0937  0.4369 -0.4274
  186SLPC   H2X21397   0.959   0.976   6.872 -2.7304  1.4372  0.3180
  186SLPC   H2Y21398   0.903   1.140   6.825 -0.3637 -0.2828 -1.7362
  186SLPC   C2321399   1.425   1.544   6.852 -0.2982  0.1797  0.2747
  186SLPC   H3R21400   1.331   1.528   6.908 -1.0349 -0.6451 -1.1381
  186SLPC   H3S21401   1.443   1.648   6.818  1.1416 -0.1855 -0.1556
  186SLPC   C2421402   1.544   1.506   6.952  0.0925 -0.6013  0.3877
  186SLPC   H4R21403   1.634   1.492   6.888  0.6391  0.3736  0.9176
  186SLPC   H4S21404   1.524   1.408   7.000  2.6098 -1.4918 -0.2164
  186SLPC   C2521405   1.575   1.612   7.067 -0.4407  0.2530 -0.4040
  186SLPC   H5R21406   1.479   1.622   7.121  0.3208 -2.1145  1.5676
  186SLPC   H5S21407   1.615   1.701   7.014  2.1205  0.2299  1.2653
  186SLPC   C2621408   1.681   1.584   7.168 -0.1924 -0.1749  0.4405
  186SLPC   H6R21409   1.781   1.595   7.120 -0.5205  2.3407  0.2293
  186SLPC   H6S21410   1.674   1.480   7.207 -1.3373  0.1177  1.0585
  186SLPC   C2721411   1.686   1.678   7.288  0.0847  0.1079  1.1751
  186SLPC   H7R21412   1.588   1.698   7.335 -0.6973  2.9604 -1.3608
  186SLPC   H7S21413   1.720   1.777   7.252  1.3264  0.0432  2.1283
  186SLPC   C2821414   1.791   1.628   7.396  0.4741 -0.1191  0.3084
  186SLPC   H8R21415   1.884   1.625   7.336 -0.0331  0.0395 -0.4994
  186SLPC   H8S21416   1.760   1.523   7.414 -2.7561  0.5913 -0.5683
  186SLPC   C2921417   1.798   1.730   7.510  0.4896  0.7297 -0.2685
  186SLPC   H9R21418   1.789   1.834   7.476  2.0311  1.0812  0.3417
  186SLPC  C21021419   1.789   1.702   7.642  0.2806 -0.3916 -0.4578
  186SLPC  H10R21420   1.776   1.790   7.707 -0.8833 -0.1051 -1.0493
  186SLPC  C21121421   1.762   1.575   7.717 -0.0987 -0.7973 -0.2625
  186SLPC  H11R21422   1.855   1.514   7.703 -0.0990 -0.5588 -1.4121
  186SLPC  H11S21423   1.688   1.519   7.656 -1.7664  0.6120  0.3994
  186SLPC  C21221424   1.707   1.563   7.856 -0.0750  0.0777  0.6678
  186SLPC  H12R21425   1.603   1.596   7.869 -0.2635 -0.1440 -0.2428
  186SLPC  C21321426   1.771   1.522   7.971  0.6508 -0.0919 -1.0721
  186SLPC  H13R21427   1.717   1.514   8.066 -0.2278  0.8005 -1.4881
  186SLPC  C21421428   1.916   1.474   7.984  0.3550 -0.7779  0.6839
  186SLPC  H14R21429   1.957   1.422   7.895  1.4842 -0.5254  1.0386
  186SLPC  H14S21430   1.936   1.401   8.065 -1.1562 -1.0614  0.8346
  186SLPC  C21521431   2.009   1.600   8.006  0.9496  0.0766  0.3353
  186SLPC  H15R21432   1.982   1.642   8.105 -1.6022  2.8339 -1.3143
  186SLPC  H15S21433   1.979   1.683   7.937  0.3177 -1.8730 -1.8765
  186SLPC  C21621434   2.160   1.580   7.999 -0.1065  0.2347  0.8873
  186SLPC  H16R21435   2.169   1.554   7.891 -1.1195  1.3178  0.5213
  186SLPC  H16S21436   2.182   1.486   8.053 -2.0147 -0.4305  0.5982
  186SLPC  C21721437   2.244   1.704   8.037  0.4768  0.1759 -0.1920
  186SLPC  H17R21438   2.349   1.670   8.034  0.6155  0.6493 -1.9537
  186SLPC  H17S21439   2.229   1.743   8.140 -2.1233  2.3802 -1.2737
  186SLPC  C21821440   2.238   1.811   7.922 -0.2710  0.4894 -0.6091
  186SLPC  H18R21441   2.232   1.757   7.826 -0.7709  0.1344 -0.3817
  186SLPC  H18S21442   2.332   1.871   7.916 -1.3788  2.5515  1.0522
  186SLPC  H18T21443   2.151   1.880   7.920  0.2564  1.2297  0.4711
  186SLPC   C3321444   1.078   1.152   6.948  0.3553  0.2463  0.1157
  186SLPC   H3X21445   1.095   1.253   6.904  0.4297  0.8409  1.4543
  186SLPC   H3Y21446   1.176   1.105   6.971  0.5778  0.3623 -0.5736
  186SLPC   C3421447   1.003   1.173   7.083  0.4194  0.2444  0.0452
  186SLPC   H4X21448   0.937   1.085   7.093 -0.6246  0.8753 -1.0439
  186SLPC   H4Y21449   0.948   1.269   7.079  1.0055  0.5722 -0.3766
  186SLPC   C3521450   1.086   1.177   7.213  0.2448  0.1524 -0.1988
  186SLPC   H5X21451   1.148   1.085   7.211 -0.7037 -0.4845 -1.9870
  186SLPC   H5Y21452   1.010   1.173   7.295 -0.4444 -0.0063 -0.8375
  186SLPC   C3621453   1.176   1.301   7.230  0.1322  0.1691  0.5334
  186SLPC   H6X21454   1.114   1.394   7.220 -0.4214 -0.3066 -0.7261
  186SLPC   H6Y21455   1.253   1.299   7.150  1.3687 -0.9688  1.7041
  186SLPC   C3721456   1.246   1.318   7.369 -0.5011 -0.1229  0.3711
  186SLPC   H7X21457   1.324   1.242   7.390 -1.2107 -1.4686 -1.5810
  186SLPC   H7Y21458   1.163   1.305   7.441 -0.8216  1.0590  0.2407
  186SLPC   C3821459   1.320   1.453   7.394 -0.2059 -0.0176  0.3696
  186SLPC   H8X21460   1.251   1.539   7.407  1.3140  1.2217  0.4326
  186SLPC   H8Y21461   1.392   1.468   7.310  0.2679 -2.2495  0.2964
  186SLPC   C3921462   1.398   1.452   7.528 -0.0615  0.6084  0.5734
  186SLPC   H9X21463   1.441   1.550   7.560 -0.1118  0.8310 -0.0233
  186SLPC   H9Y21464   1.480   1.378   7.522  0.0000  0.4387  2.6658
  186SLPC  C31021465   1.318   1.407   7.657  1.3160 -0.4491  0.4519
  186SLPC  H10X21466   1.286   1.301   7.647 -0.4349  0.1640 -1.1070
  186SLPC  H10Y21467   1.233   1.477   7.668  0.0982 -2.0361  1.4581
  186SLPC  C31121468   1.394   1.406   7.787 -0.8425 -0.0955  0.3955
  186SLPC  H11X21469   1.434   1.507   7.810  0.4689  0.1614 -2.5468
  186SLPC  H11Y21470   1.479   1.338   7.766 -0.7393 -0.3211  1.4514
  186SLPC  C31221471   1.318   1.357   7.909 -0.4099 -0.0159  0.1929
  186SLPC  H12X21472   1.385   1.359   7.998 -1.9357  3.7344  1.4712
  186SLPC  H12Y21473   1.282   1.253   7.892 -0.2428  0.1828 -1.5079
  186SLPC  C31321474   1.201   1.450   7.959 -0.1694  0.0164 -1.5660
  186SLPC  H13X21475   1.122   1.475   7.885  1.4828 -0.8232 -3.7287
  186SLPC  H13Y21476   1.255   1.545   7.978 -3.2054  1.6789 -0.5397
  186SLPC  C31421477   1.118   1.400   8.082 -0.7863 -0.1150 -0.2380
  186SLPC  H14X21478   1.184   1.412   8.170 -0.8552 -0.1460 -0.1815
  186SLPC  H14Y21479   1.113   1.289   8.074  0.9617 -0.2229 -0.2156
  186SLPC  C31521480   0.981   1.462   8.110 -1.0707 -0.0217 -0.2603
  186SLPC  H15X21481   0.902   1.453   8.033 -0.8226 -2.0573 -0.3150
  186SLPC  H15Y21482   1.002   1.571   8.123  1.7979 -0.3020 -1.6831
  186SLPC  C31621483   0.923   1.417   8.241  0.4021  0.5269 -0.8152
  186SLPC  H16X21484   0.990   1.433   8.328  0.7796 -0.2045 -0.9607
  186SLPC  H16Y21485   0.903   1.309   8.221  0.1773  0.3693  0.2358
  186SLPC  C31721486   0.784   1.494   8.272 -0.7714 -0.4330 -0.0833
  186SLPC  H17X21487   0.723   1.475   8.181 -0.0392 -0.0647 -0.6708
  186SLPC  H17Y21488   0.803   1.604   8.272 -0.6717 -0.4465 -0.8083
  186SLPC  C31821489   0.729   1.453   8.403 -0.2687 -0.1712  0.6812
  186SLPC  H18X21490   0.632   1.506   8.409 -0.8239 -1.2533  1.5588
  186SLPC  H18Y21491   0.779   1.484   8.497 -1.2495 -0.2123  1.2270
  186SLPC  H18Z21492   0.709   1.344   8.392 -0.1894  0.0173 -2.0731
  187SLPC     N21493   2.242   6.355   6.415 -0.5865  0.2194 -0.7237
  187SLPC   C1321494   2.305   6.272   6.526 -0.0933  0.0373 -0.2580
  187SLPC  H13A21495   2.273   6.305   6.624 -0.2665  0.6018 -0.5043
  187SLPC  H13B21496   2.304   6.164   6.516  0.6116 -0.1700  1.5865
  187SLPC  H13C21497   2.409   6.300   6.523 -0.1641  0.2615 -0.6076
  187SLPC   C1421498   2.312   6.346   6.281  0.2204  0.3783 -0.2017
  187SLPC  H14A21499   2.270   6.408   6.204  1.1075  0.2414 -0.8149
  187SLPC  H14B21500   2.416   6.375   6.292  0.3958 -0.2313 -0.2131
  187SLPC  H14C21501   2.309   6.242   6.251 -1.1343  0.0080  1.1133
  187SLPC   C1521502   2.251   6.497   6.459  0.2130 -0.5014  0.1108
  187SLPC  H15A21503   2.357   6.515   6.471  0.7489 -1.2387 -2.7375
  187SLPC  H15B21504   2.221   6.560   6.377 -0.7690  1.5815  1.9712
  187SLPC  H15C21505   2.195   6.515   6.549 -0.1400 -1.3443  0.0703
  187SLPC   C1221506   2.096   6.313   6.391 -0.0756 -0.3782  0.4985
  187SLPC  H12A21507   2.052   6.373   6.313  0.0700  2.1129  2.2103
  187SLPC  H12B21508   2.045   6.325   6.486 -2.7549  3.7158 -1.1860
  187SLPC   C1121509   2.070   6.169   6.348  0.6789  0.1995 -0.3810
  187SLPC  H11A21510   2.118   6.141   6.252 -0.0620 -0.0471 -0.6860
  187SLPC  H11B21511   1.962   6.162   6.325  0.0069  1.0447  2.2173
  187SLPC     P21512   1.996   6.020   6.552  0.1386  0.3395 -0.0897
  187SLPC   O1321513   1.875   5.958   6.490  0.2140  0.0607 -0.4564
  187SLPC   O1421514   2.067   5.941   6.658  0.2147  0.2809  0.1007
  187SLPC   O1221515   2.101   6.055   6.436 -0.3207  0.1041 -0.5857
  187SLPC   O1121516   1.955   6.154   6.617  0.7505 -0.0670  0.0788
  187SLPC    C121517   1.831   6.217   6.623  0.7049 -0.2938  0.4670
  187SLPC    HA21518   1.781   6.214   6.524  2.7858 -0.0901 -0.6285
  187SLPC    HB21519   1.763   6.167   6.695  0.3910 -0.2170  0.2269
  187SLPC    C221520   1.859   6.363   6.669 -0.0009 -0.0837  0.6071
  187SLPC    HS21521   1.931   6.398   6.592 -1.5150  1.6673 -0.0944
  187SLPC   O2121522   1.907   6.365   6.803  0.2516 -0.0930  0.1961
  187SLPC   C2121523   2.030   6.406   6.821 -0.4989  0.3091 -0.1509
  187SLPC   O2221524   2.100   6.461   6.733 -0.2013  0.2582 -0.5437
  187SLPC   C2221525   2.061   6.395   6.966 -0.7810  0.4448  0.4877
  187SLPC   H2R21526   2.082   6.292   7.004 -2.5454  0.4375  1.5669
  187SLPC   H2S21527   2.143   6.468   6.984 -0.4088 -0.2875  1.8783
  187SLPC    C321528   1.737   6.455   6.659 -0.0764 -0.5239  0.2701
  187SLPC    HX21529   1.659   6.426   6.734 -1.4660 -0.0671 -0.9445
  187SLPC    HY21530   1.684   6.437   6.563 -1.1767  0.2216  0.7130
  187SLPC   O3121531   1.766   6.596   6.684  0.1728 -0.0616 -0.5658
  187SLPC   C3121532   1.802   6.659   6.573  0.1209 -0.5030 -0.3513
  187SLPC   O3221533   1.815   6.612   6.463  0.1169  0.5268  0.1313
  187SLPC   C3221534   1.832   6.805   6.602 -0.5466  1.1019 -0.1188
  187SLPC   H2X21535   1.734   6.857   6.607 -0.4023  1.3748 -0.0935
  187SLPC   H2Y21536   1.879   6.849   6.511  1.9421 -1.4537 -0.2312
  187SLPC   C2321537   1.951   6.458   7.058  0.3059  0.4027 -0.1293
  187SLPC   H3R21538   1.856   6.399   7.053  0.4121  0.3040 -1.5507
  187SLPC   H3S21539   1.932   6.562   7.024 -0.1727  0.4821  0.3741
  187SLPC   C2421540   2.010   6.465   7.195  0.1971  0.0243 -1.2928
  187SLPC   H4R21541   2.093   6.537   7.202 -0.4747  0.6869  0.7035
  187SLPC   H4S21542   2.035   6.370   7.249  1.7288  2.1529  2.1044
  187SLPC   C2521543   1.900   6.509   7.294 -0.3828 -0.0756  0.0560
  187SLPC   H5R21544   1.816   6.437   7.285  0.1785 -0.6503 -0.7555
  187SLPC   H5S21545   1.850   6.607   7.277 -2.9642 -1.6434 -2.1407
  187SLPC   C2621546   1.947   6.494   7.444  0.2882 -0.0980 -0.6187
  187SLPC   H6R21547   2.007   6.585   7.465  1.3931 -1.1161  0.8616
  187SLPC   H6S21548   2.012   6.404   7.449 -1.8022 -1.6333  0.5545
  187SLPC   C2721549   1.835   6.471   7.544 -0.9861 -0.0879  0.8622
  187SLPC   H7R21550   1.773   6.392   7.498  1.0536 -1.2673  0.0213
  187SLPC   H7S21551   1.778   6.565   7.561 -1.9515  0.0018 -2.2502
  187SLPC   C2821552   1.888   6.421   7.678  0.4524  0.4616 -0.6069
  187SLPC   H8R21553   1.984   6.474   7.695  0.1526  0.7179  0.3137
  187SLPC   H8S21554   1.912   6.315   7.653  2.1317  0.7863 -0.4890
  187SLPC   C2921555   1.797   6.426   7.802 -0.3092 -0.2261  0.1886
  187SLPC   H9R21556   1.720   6.348   7.807 -1.5019  0.9837  1.5526
  187SLPC  C21021557   1.805   6.509   7.908 -0.1658  1.0329  0.2154
  187SLPC  H10R21558   1.728   6.497   7.986  0.2946  2.2059  0.8788
  187SLPC  C21121559   1.898   6.623   7.918  0.0262  0.4997 -0.0903
  187SLPC  H11R21560   1.868   6.706   7.851 -0.2753 -1.3016 -2.3180
  187SLPC  H11S21561   1.993   6.589   7.872  0.8439  1.5665  0.7747
  187SLPC  C21221562   1.901   6.677   8.054 -0.3986  0.0075 -0.0774
  187SLPC  H12R21563   1.805   6.710   8.096 -0.2026 -0.7148  0.9889
  187SLPC  C21321564   2.009   6.687   8.136  0.1806 -0.4706 -0.2082
  187SLPC  H13R21565   1.991   6.736   8.233 -1.3315  2.0064 -1.6644
  187SLPC  C21421566   2.159   6.653   8.109 -0.4393  0.2981 -0.3918
  187SLPC  H14R21567   2.179   6.646   8.000  0.2831  1.9514 -0.4008
  187SLPC  H14S21568   2.172   6.553   8.154 -2.4029 -0.0399 -0.4769
  187SLPC  C21521569   2.256   6.757   8.168  0.4730 -0.8031 -0.1893
  187SLPC  H15R21570   2.359   6.717   8.161  2.4094  3.5479  0.4447
  187SLPC  H15S21571   2.234   6.774   8.275  0.0144  1.9520 -0.6578
  187SLPC  C21621572   2.260   6.896   8.099  0.0346  0.1406  0.1893
  187SLPC  H16R21573   2.159   6.924   8.062 -0.9817 -1.7444  1.4124
  187SLPC  H16S21574   2.325   6.880   8.011 -0.6356  0.4796 -0.3727
  187SLPC  C21721575   2.327   7.014   8.172 -0.2481  0.1978  0.2983
  187SLPC  H17R21576   2.337   7.096   8.098 -2.6203 -0.3399 -0.6855
  187SLPC  H17S21577   2.433   6.992   8.199  0.3895 -1.0450 -2.7884
  187SLPC  C21821578   2.248   7.062   8.287  0.1066 -0.0871 -0.1595
  187SLPC  H18R21579   2.223   7.170   8.290 -1.0863 -0.3312 -0.4149
  187SLPC  H18S21580   2.303   7.044   8.381 -1.1976  2.6269  1.2338
  187SLPC  H18T21581   2.152   7.009   8.304  1.4451 -1.5805  3.7019
  187SLPC   C3321582   1.905   6.829   6.736 -0.4528 -0.2629  0.0608
  187SLPC   H3X21583   1.857   6.766   6.814 -2.0208  0.6538 -0.1451
  187SLPC   H3Y21584   1.905   6.936   6.765 -1.0327 -0.1663 -0.2908
  187SLPC   C3421585   2.059   6.800   6.713  0.5494  0.0544  1.0626
  187SLPC   H4X21586   2.089   6.826   6.609 -1.8022  0.2751  0.3725
  187SLPC   H4Y21587   2.083   6.693   6.728 -0.6195 -0.4851 -0.6419
  187SLPC   C3521588   2.145   6.867   6.825  0.0612 -0.7135 -0.1786
  187SLPC   H5X21589   2.130   6.976   6.811  3.0131 -0.1585  0.3379
  187SLPC   H5Y21590   2.253   6.848   6.808 -0.2253 -2.5852 -0.2303
  187SLPC   C3621591   2.096   6.815   6.960  0.3266  0.9973  0.6214
  187SLPC   H6X21592   2.099   6.704   6.966  2.0387  1.0475  1.1377
  187SLPC   H6Y21593   1.992   6.847   6.981 -0.6542 -3.0783  3.0341
  187SLPC   C3721594   2.174   6.861   7.084 -0.3035 -0.7589  0.4274
  187SLPC   H7X21595   2.260   6.791   7.085 -0.0141 -0.4097  0.2846
  187SLPC   H7Y21596   2.220   6.961   7.069  2.4394 -2.2450 -2.0461
  187SLPC   C3821597   2.107   6.854   7.223  0.4044 -0.9584  0.3963
  187SLPC   H8X21598   2.046   6.762   7.234 -0.7421 -0.1453  1.1024
  187SLPC   H8Y21599   2.028   6.929   7.243 -0.1791 -1.6044  0.5396
  187SLPC   C3921600   2.214   6.878   7.329  0.4198 -0.5206 -0.6077
  187SLPC   H9X21601   2.278   6.962   7.297  0.2656 -0.1344  0.0689
  187SLPC   H9Y21602   2.277   6.787   7.337 -0.4850 -1.0899  0.3928
  187SLPC  C31021603   2.151   6.924   7.470  0.0622  0.0452 -0.3239
  187SLPC  H10X21604   2.069   6.855   7.502  0.6971 -0.7734 -0.4128
  187SLPC  H10Y21605   2.107   7.024   7.454  1.0582  0.5507  0.0186
  187SLPC  C31121606   2.261   6.936   7.581 -0.3467  0.0810  0.3157
  187SLPC  H11X21607   2.298   6.834   7.600  0.3135  0.4207  0.8892
  187SLPC  H11Y21608   2.230   6.961   7.685 -1.3846 -2.2608  0.6275
  187SLPC  C31221609   2.365   7.037   7.534  0.0791  0.2062 -0.1140
  187SLPC  H12X21610   2.307   7.125   7.501 -1.0860  0.1514  1.6890
  187SLPC  H12Y21611   2.415   6.992   7.445  0.0903 -1.7008  0.7929
  187SLPC  C31321612   2.466   7.087   7.638 -0.1088  0.4412 -0.0398
  187SLPC  H13X21613   2.545   7.146   7.589 -0.2996 -1.1535 -2.4504
  187SLPC  H13Y21614   2.521   6.996   7.670  2.0422  1.7630  0.2206
  187SLPC  C31421615   2.404   7.156   7.758 -0.0623  0.5691  0.6386
  187SLPC  H14X21616   2.351   7.079   7.818  1.8409 -1.2091  0.1088
  187SLPC  H14Y21617   2.320   7.224   7.729 -0.7108 -1.1943 -1.8716
  187SLPC  C31521618   2.515   7.235   7.831 -0.0222 -0.3351 -0.0210
  187SLPC  H15X21619   2.579   7.269   7.747 -1.3874 -0.6449 -1.2140
  187SLPC  H15Y21620   2.581   7.169   7.891 -0.1578 -2.1962 -1.7967
  187SLPC  C31621621   2.468   7.347   7.917  0.5842 -0.1913 -0.2224
  187SLPC  H16X21622   2.398   7.314   7.997  1.9840 -2.9569 -0.0060
  187SLPC  H16Y21623   2.421   7.425   7.853 -0.8935 -1.0508 -0.2160
  187SLPC  C31721624   2.594   7.409   7.985  0.2272 -0.7657  0.0034
  187SLPC  H17X21625   2.638   7.477   7.909 -2.0421  1.4424  0.5413
  187SLPC  H17Y21626   2.668   7.333   8.016 -0.8575 -1.9986 -0.3389
  187SLPC  C31821627   2.555   7.488   8.110 -0.6138  0.5412 -0.2416
  187SLPC  H18X21628   2.642   7.551   8.139 -1.2163  0.5021  1.8718
  187SLPC  H18Y21629   2.539   7.417   8.194  0.3516  0.1177 -0.4138
  187SLPC  H18Z21630   2.471   7.560   8.098 -1.2299 -0.0363  0.5082
  188SLPC     N21631   4.151   0.389   6.475 -0.3330  0.3209 -0.5405
  188SLPC   C1321632   4.167   0.409   6.332  0.7310  0.0316 -0.0593
  188SLPC  H13A21633   4.204   0.324   6.277 -1.3609  0.0608 -1.6245
  188SLPC  H13B21634   4.074   0.429   6.282  2.1262  3.4741 -1.6588
  188SLPC  H13C21635   4.232   0.492   6.308  0.6547 -0.3029 -1.4748
  188SLPC   C1421636   4.275   0.356   6.551  0.0330 -0.8444  0.1554
  188SLPC  H14A21637   4.255   0.314   6.648 -3.1568  0.8003  0.3302
  188SLPC  H14B21638   4.323   0.278   6.494 -0.7775 -2.4505  1.5682
  188SLPC  H14C21639   4.342   0.441   6.551  0.8548 -1.4544  1.3134
  188SLPC   C1521640   4.062   0.268   6.498  0.1758  0.2042 -0.4564
  188SLPC  H15A21641   3.989   0.275   6.418 -0.5348  1.2419  0.2684
  188SLPC  H15B21642   4.103   0.168   6.493  0.4291  0.2078  1.1732
  188SLPC  H15C21643   4.004   0.265   6.589  1.2637  1.4488  0.2972
  188SLPC   C1221644   4.082   0.516   6.531 -0.3440 -0.0946 -1.0010
  188SLPC  H12A21645   4.142   0.598   6.497  1.2005 -0.6341  0.3056
  188SLPC  H12B21646   4.077   0.518   6.639 -1.5332  1.2688 -1.0487
  188SLPC   C1121647   3.937   0.540   6.496  0.2701  0.0448  0.0318
  188SLPC  H11A21648   3.895   0.622   6.558 -0.6741  0.2589 -0.8550
  188SLPC  H11B21649   3.882   0.447   6.524 -1.4527  1.4805  1.6653
  188SLPC     P21650   3.963   0.717   6.301  0.2179  0.4208 -0.4081
  188SLPC   O1321651   4.109   0.730   6.316  0.4318 -0.3326 -0.2350
  188SLPC   O1421652   3.899   0.742   6.173  0.1587 -0.2863 -0.3867
  188SLPC   O1221653   3.919   0.572   6.359 -0.0258 -0.0532  0.1669
  188SLPC   O1121654   3.899   0.822   6.399 -0.2294  0.6899  0.0190
  188SLPC    C121655   3.759   0.823   6.430 -0.0148 -0.3476  0.1525
  188SLPC    HA21656   3.700   0.858   6.342  0.5440 -1.9088 -0.8833
  188SLPC    HB21657   3.727   0.718   6.447 -1.8561  0.1531  0.0325
  188SLPC    C221658   3.733   0.909   6.549  0.8473  0.1288 -0.3073
  188SLPC    HS21659   3.754   1.017   6.533 -0.6434  0.2333 -1.8206
  188SLPC   O2121660   3.799   0.854   6.662 -0.5548 -0.4310  0.2835
  188SLPC   C2121661   3.855   0.935   6.753  0.1577 -0.5448  0.0897
  188SLPC   O2221662   3.872   1.056   6.737  0.1696  0.5401 -0.5034
  188SLPC   C2221663   3.887   0.862   6.878 -0.0872  0.2229 -0.8324
  188SLPC   H2R21664   3.787   0.833   6.915 -0.7062  2.2091 -0.8100
  188SLPC   H2S21665   3.946   0.769   6.863  0.0724 -0.5691  3.4969
  188SLPC    C321666   3.577   0.899   6.574  0.8906  0.4262  0.1964
  188SLPC    HX21667   3.562   0.789   6.581 -1.9214  0.5772 -1.6674
  188SLPC    HY21668   3.532   0.932   6.478  2.1287  1.2771 -0.1126
  188SLPC   O3121669   3.530   0.967   6.689  0.1371 -0.3506  0.1419
  188SLPC   C3121670   3.395   0.968   6.697 -0.5615 -0.5507  0.3254
  188SLPC   O3221671   3.326   0.912   6.620  0.0115  0.1278  0.0517
  188SLPC   C3221672   3.351   1.048   6.818  0.1418 -0.5673 -0.5167
  188SLPC   H2X21673   3.282   0.992   6.884  0.9139  1.5838  2.3422
  188SLPC   H2Y21674   3.285   1.131   6.783  1.1295  0.6793  0.4565
  188SLPC   C2321675   3.955   0.953   6.988 -0.3044 -0.1412  0.0282
  188SLPC   H3R21676   3.887   1.019   7.047  1.0488  0.5210  0.9090
  188SLPC   H3S21677   4.023   1.016   6.928 -0.3569 -0.8752 -0.8176
  188SLPC   C2421678   4.039   0.880   7.084  0.3388  0.9408 -0.3080
  188SLPC   H4R21679   4.114   0.948   7.130  0.7838 -0.1389  0.6301
  188SLPC   H4S21680   4.106   0.807   7.033 -0.9736 -1.6409  1.4344
  188SLPC   C2521681   3.945   0.796   7.183 -0.8453  0.0231  0.1827
  188SLPC   H5R21682   3.869   0.745   7.120 -1.5056  1.9649 -0.6748
  188SLPC   H5S21683   3.883   0.856   7.253 -1.4122  1.6054 -1.5762
  188SLPC   C2621684   4.036   0.705   7.270 -0.3719  0.2987  0.8095
  188SLPC   H6R21685   4.093   0.766   7.343 -0.2687  1.3788 -0.1532
  188SLPC   H6S21686   4.120   0.674   7.204 -0.4493  0.7182  0.5095
  188SLPC   C2721687   3.962   0.592   7.344  0.7969  0.9394  0.5189
  188SLPC   H7R21688   3.886   0.553   7.273  1.5430  2.0502 -0.9799
  188SLPC   H7S21689   3.899   0.639   7.422  0.7370  0.4012  0.7992
  188SLPC   C2821690   4.053   0.480   7.406 -0.2095  0.0335 -0.0963
  188SLPC   H8R21691   4.157   0.511   7.432 -0.9118  0.9868  1.8272
  188SLPC   H8S21692   4.071   0.412   7.321 -0.2793  1.1302 -1.0101
  188SLPC   C2921693   3.994   0.421   7.532 -0.5648 -0.1808 -0.2176
  188SLPC   H9R21694   3.930   0.333   7.519 -0.1496 -0.4453 -0.4908
  188SLPC  C21021695   4.003   0.462   7.658  0.4553 -0.1222 -0.0785
  188SLPC  H10R21696   3.954   0.399   7.734 -0.8679  2.9356  1.8393
  188SLPC  C21121697   4.087   0.580   7.709  0.5465 -0.1763 -0.4526
  188SLPC  H11R21698   4.111   0.648   7.624  0.6793  1.7099  1.0319
  188SLPC  H11S21699   4.184   0.539   7.744  0.5512  0.9644  0.9346
  188SLPC  C21221700   4.024   0.647   7.831 -0.0323 -0.4462  0.9580
  188SLPC  H12R21701   4.054   0.602   7.927 -2.0550 -0.9733  1.3888
  188SLPC  C21321702   3.931   0.751   7.844 -0.1024  0.0446  0.4764
  188SLPC  H13R21703   3.895   0.776   7.945 -1.3926  0.6857 -0.1213
  188SLPC  C21421704   3.876   0.831   7.730  0.5138  0.1274  0.2117
  188SLPC  H14R21705   3.883   0.771   7.637 -3.3560 -0.8779  0.3937
  188SLPC  H14S21706   3.931   0.923   7.703  0.1016  0.0605 -0.8867
  188SLPC  C21521707   3.725   0.867   7.727  0.3532 -0.3572 -0.1420
  188SLPC  H15R21708   3.681   0.791   7.795  0.8960 -1.2663 -0.7727
  188SLPC  H15S21709   3.698   0.842   7.622  1.8663 -3.2836  0.0491
  188SLPC  C21621710   3.704   1.016   7.771 -0.5834  0.0054  0.5486
  188SLPC  H16R21711   3.601   1.051   7.750  0.0449  2.3833  1.0078
  188SLPC  H16S21712   3.782   1.076   7.718 -0.4585  0.1729  0.9147
  188SLPC  C21721713   3.703   1.048   7.919 -0.4821 -0.0187  0.3436
  188SLPC  H17R21714   3.799   1.025   7.970 -0.4517  1.3402  0.9606
  188SLPC  H17S21715   3.630   0.975   7.960  1.3604 -1.3578  1.3945
  188SLPC  C21821716   3.673   1.196   7.956  0.5103  1.0434  0.2629
  188SLPC  H18R21717   3.757   1.262   7.927 -0.3208  2.1680  0.3184
  188SLPC  H18S21718   3.655   1.200   8.065 -1.9169  0.9390 -0.0600
  188SLPC  H18T21719   3.582   1.222   7.897 -0.2806 -1.5259  0.2131
  188SLPC   C3321720   3.450   1.119   6.916  0.0949 -0.0226 -0.2737
  188SLPC   H3X21721   3.388   1.195   6.967 -3.5835 -2.2276 -1.1373
  188SLPC   H3Y21722   3.530   1.175   6.862  1.2134 -0.0955  1.2415
  188SLPC   C3421723   3.522   1.024   7.012 -0.1424  0.0370 -0.5920
  188SLPC   H4X21724   3.600   0.960   6.965  2.0565  0.4546  2.2137
  188SLPC   H4Y21725   3.442   0.962   7.058 -0.1704 -0.8128 -1.7477
  188SLPC   C3521726   3.613   1.097   7.112  0.3317 -0.4760 -0.0873
  188SLPC   H5X21727   3.677   1.171   7.058  2.3196 -0.2036  2.4290
  188SLPC   H5Y21728   3.677   1.026   7.169 -1.2979 -2.1449 -0.2665
  188SLPC   C3621729   3.521   1.181   7.199  0.2703 -0.4121 -0.2097
  188SLPC   H6X21730   3.438   1.125   7.246 -1.8994  2.2746 -0.5640
  188SLPC   H6Y21731   3.475   1.257   7.132  1.1204 -1.0823 -1.6029
  188SLPC   C3721732   3.589   1.263   7.310  0.4507 -0.4593  0.8662
  188SLPC   H7X21733   3.635   1.351   7.261  0.2785  0.0544  1.6105
  188SLPC   H7Y21734   3.670   1.204   7.358  0.0465 -1.6670  0.1249
  188SLPC   C3821735   3.505   1.305   7.431 -0.2560  0.0813 -0.4628
  188SLPC   H8X21736   3.476   1.209   7.479  1.8926 -0.7346 -0.7069
  188SLPC   H8Y21737   3.412   1.357   7.399  0.6539  0.6115 -2.3651
  188SLPC   C3921738   3.581   1.382   7.540  0.1101  0.1990  0.4247
  188SLPC   H9X21739   3.601   1.481   7.492 -0.4572  0.4354  0.6677
  188SLPC   H9Y21740   3.682   1.346   7.569  0.6825  0.3493 -1.2282
  188SLPC  C31021741   3.499   1.403   7.663  0.0543 -0.2458  0.4197
  188SLPC  H10X21742   3.503   1.316   7.732  2.1943  1.2977  2.4483
  188SLPC  H10Y21743   3.396   1.420   7.627  0.1684  3.3551  1.3863
  188SLPC  C31121744   3.551   1.533   7.734 -0.0087  0.0655 -0.0931
  188SLPC  H11X21745   3.536   1.626   7.675 -0.2253  0.0299 -0.0958
  188SLPC  H11Y21746   3.662   1.532   7.736 -0.0205 -0.4453  1.0987
  188SLPC  C31221747   3.511   1.550   7.879  0.5400  0.4223  0.5287
  188SLPC  H12X21748   3.579   1.501   7.952 -0.5848 -3.7866 -0.9714
  188SLPC  H12Y21749   3.417   1.492   7.895 -0.0212  0.3897 -2.3835
  188SLPC  C31321750   3.494   1.699   7.909 -0.0022 -0.6035 -0.5387
  188SLPC  H13X21751   3.394   1.728   7.871 -0.4010 -1.0062  0.1884
  188SLPC  H13Y21752   3.559   1.770   7.853  2.0510 -1.7099  0.3147
  188SLPC  C31421753   3.519   1.743   8.057 -0.4153 -0.2436 -0.8091
  188SLPC  H14X21754   3.517   1.854   8.050 -2.7578 -0.3135 -2.7835
  188SLPC  H14Y21755   3.619   1.708   8.090 -0.7803  1.4872  2.6271
  188SLPC  C31521756   3.404   1.704   8.152 -0.5036  0.0258  0.7088
  188SLPC  H15X21757   3.305   1.730   8.108 -0.0098 -0.8148 -1.0170
  188SLPC  H15Y21758   3.417   1.768   8.242 -2.8502 -0.2532  1.3216
  188SLPC  C31621759   3.406   1.556   8.188 -0.3132 -0.4928 -0.1930
  188SLPC  H16X21760   3.373   1.495   8.101  1.4185 -1.7700  0.0070
  188SLPC  H16Y21761   3.323   1.544   8.261 -0.9871  1.2191 -0.6361
  188SLPC  C31721762   3.533   1.497   8.235 -0.1962 -0.0127  0.4205
  188SLPC  H17X21763   3.576   1.562   8.314 -0.0076 -0.3226  0.5732
  188SLPC  H17Y21764   3.598   1.504   8.146 -0.8052 -1.6415 -0.1846
  188SLPC  C31821765   3.523   1.348   8.263 -0.4117 -0.3609 -0.3151
  188SLPC  H18X21766   3.491   1.281   8.181  0.8098 -0.3775 -0.8078
  188SLPC  H18Y21767   3.448   1.333   8.343  0.1854 -0.2955  0.2716
  188SLPC  H18Z21768   3.623   1.308   8.291 -0.7145 -2.8472 -2.4163
  189SLPC     N21769   3.213   1.003   6.165  0.3920 -0.2781 -0.2530
  189SLPC   C1321770   3.253   0.861   6.140 -0.0207  0.3429 -0.4372
  189SLPC  H13A21771   3.356   0.855   6.106 -0.9795 -0.8693 -3.4364
  189SLPC  H13B21772   3.237   0.809   6.233 -0.7703  3.7568  1.5196
  189SLPC  H13C21773   3.195   0.809   6.067 -1.0083  2.6879 -1.4303
  189SLPC   C1421774   3.249   1.084   6.040  0.1814 -0.0147 -0.4123
  189SLPC  H14A21775   3.212   1.185   6.051 -1.2623 -0.4345 -1.1917
  189SLPC  H14B21776   3.356   1.088   6.024  0.0080 -0.2616 -1.6717
  189SLPC  H14C21777   3.205   1.031   5.957  0.9236 -0.8957 -0.2629
  189SLPC   C1521778   3.313   1.046   6.268  0.6066 -0.7218  0.2487
  189SLPC  H15A21779   3.285   0.994   6.359 -0.9024 -1.4380 -0.5921
  189SLPC  H15B21780   3.408   1.001   6.244 -0.2655 -2.5125 -0.0476
  189SLPC  H15C21781   3.316   1.152   6.290  1.1807 -0.9534  1.3833
  189SLPC   C1221782   3.064   1.009   6.213  0.2289 -0.4404 -0.4737
  189SLPC  H12A21783   3.049   0.933   6.288  0.0737  2.4506  2.6458
  189SLPC  H12B21784   3.000   0.975   6.133 -0.2422 -0.6557 -0.0045
  189SLPC   C1121785   3.008   1.140   6.276  0.1697 -0.2411  0.0829
  189SLPC  H11A21786   3.067   1.175   6.364 -0.4553 -2.8403  1.6308
  189SLPC  H11B21787   2.903   1.123   6.308 -0.3118  1.7641 -0.2963
  189SLPC     P21788   2.878   1.289   6.103 -0.1123 -0.2747 -0.2630
  189SLPC   O1321789   2.934   1.391   6.009  0.1331  0.2524  0.2331
  189SLPC   O1421790   2.804   1.172   6.057 -0.1668 -0.2628  0.0847
  189SLPC   O1221791   3.004   1.239   6.177 -0.3582 -0.1158 -0.4240
  189SLPC   O1121792   2.798   1.369   6.209  0.0797  0.8050  0.0556
  189SLPC    C121793   2.864   1.452   6.306  0.4617  0.5965  0.9534
  189SLPC    HA21794   2.969   1.474   6.277  0.6523 -2.0548 -0.6964
  189SLPC    HB21795   2.804   1.546   6.307 -0.5949 -0.0417 -0.3835
  189SLPC    C221796   2.855   1.389   6.445  0.0406  0.1522  0.0647
  189SLPC    HS21797   2.887   1.283   6.437  0.7337  0.3566  0.0912
  189SLPC   O2121798   2.722   1.388   6.493  0.2693  0.0743 -0.0779
  189SLPC   C2121799   2.650   1.282   6.485 -0.3958  0.6694  0.4824
  189SLPC   O2221800   2.694   1.173   6.454  0.1663 -0.1431 -0.3502
  189SLPC   C2221801   2.508   1.314   6.525  0.3159  0.3141  0.2337
  189SLPC   H2R21802   2.483   1.422   6.518  0.4947  0.5170  2.1031
  189SLPC   H2S21803   2.445   1.265   6.448 -0.5595  1.5457  0.1338
  189SLPC    C321804   2.951   1.459   6.548 -0.5459  0.7748 -0.2564
  189SLPC    HX21805   2.928   1.568   6.544  0.5335  1.0269  0.1316
  189SLPC    HY21806   3.055   1.455   6.510 -1.0557 -1.7841 -1.5459
  189SLPC   O3121807   2.947   1.405   6.681  0.1200  0.1588  0.6222
  189SLPC   C3121808   2.986   1.284   6.707 -0.0573 -0.1445 -0.7106
  189SLPC   O3221809   3.044   1.210   6.634  0.8417 -0.2447  0.1467
  189SLPC   C3221810   2.955   1.256   6.852  0.9409  0.3262 -0.4953
  189SLPC   H2X21811   2.888   1.333   6.896  1.1976 -0.2333  0.9503
  189SLPC   H2Y21812   3.050   1.268   6.909  0.3104  1.6715  0.3263
  189SLPC   C2321813   2.471   1.256   6.660 -0.3075 -0.3952  0.9071
  189SLPC   H3R21814   2.499   1.148   6.662 -1.2292 -0.7373 -1.3316
  189SLPC   H3S21815   2.362   1.251   6.681 -0.5701 -2.1750 -0.5696
  189SLPC   C2421816   2.550   1.317   6.781  0.5689  0.4608  0.3001
  189SLPC   H4R21817   2.522   1.421   6.808 -1.3787 -0.2832  1.3341
  189SLPC   H4S21818   2.658   1.321   6.755 -0.1260 -1.4558 -3.7786
  189SLPC   C2521819   2.509   1.231   6.905 -0.0859 -0.4867  0.0626
  189SLPC   H5R21820   2.573   1.141   6.914  0.9225  0.3723  2.0523
  189SLPC   H5S21821   2.409   1.189   6.883 -0.4599 -0.3158  1.3190
  189SLPC   C2621822   2.532   1.313   7.030 -0.8353 -0.3707 -0.6202
  189SLPC   H6R21823   2.452   1.389   7.042 -0.2433 -0.0250  1.6278
  189SLPC   H6S21824   2.627   1.367   7.007 -0.4295 -0.3919  0.9136
  189SLPC   C2721825   2.536   1.230   7.151 -0.0887  0.4653  0.8847
  189SLPC   H7R21826   2.619   1.161   7.124 -1.7461 -1.1012 -0.4056
  189SLPC   H7S21827   2.444   1.171   7.170 -1.1076  1.2435 -1.3151
  189SLPC   C2821828   2.588   1.308   7.276 -0.5334  0.7433 -0.3150
  189SLPC   H8R21829   2.688   1.344   7.244 -0.8080  2.6807  0.8306
  189SLPC   H8S21830   2.604   1.233   7.357 -3.2776 -2.1595 -2.2758
  189SLPC   C2921831   2.509   1.427   7.317 -0.2585  0.3807  0.3817
  189SLPC   H9R21832   2.526   1.519   7.261 -2.1205  2.6532  3.2362
  189SLPC  C21021833   2.419   1.420   7.418 -0.5488 -0.1129  0.0200
  189SLPC  H10R21834   2.346   1.497   7.445 -1.6620 -1.9781  2.7991
  189SLPC  C21121835   2.401   1.295   7.504  1.1857 -0.0163 -0.1345
  189SLPC  H11R21836   2.494   1.276   7.563  1.5545 -2.2412 -1.3219
  189SLPC  H11S21837   2.368   1.209   7.441 -1.7946  1.6247 -0.9791
  189SLPC  C21221838   2.286   1.322   7.608 -0.3030  0.4039  0.2481
  189SLPC  H12R21839   2.189   1.353   7.567 -1.0156  0.2725  1.7654
  189SLPC  C21321840   2.287   1.286   7.739 -0.1047  0.1984 -0.6060
  189SLPC  H13R21841   2.203   1.309   7.807  1.6394  2.1356  1.0449
  189SLPC  C21421842   2.408   1.223   7.804 -0.2014  0.0274 -0.6065
  189SLPC  H14R21843   2.485   1.196   7.729 -0.5699  0.3672 -1.1140
  189SLPC  H14S21844   2.375   1.124   7.842  1.2963 -0.1149  0.3798
  189SLPC  C21521845   2.469   1.319   7.904  0.3116  0.5722  0.4103
  189SLPC  H15R21846   2.395   1.323   7.986 -2.3525 -1.1465 -1.7216
  189SLPC  H15S21847   2.478   1.422   7.862  1.5625  0.6754  0.9000
  189SLPC  C21621848   2.609   1.280   7.945  0.3069  0.3383 -0.3082
  189SLPC  H16R21849   2.668   1.251   7.856  1.2993 -2.3787  1.1165
  189SLPC  H16S21850   2.601   1.186   8.004  1.4280  0.4007 -0.0330
  189SLPC  C21721851   2.668   1.385   8.038 -0.6155 -0.1681  0.3064
  189SLPC  H17R21852   2.647   1.488   8.002  0.3196 -0.5433 -1.4047
  189SLPC  H17S21853   2.778   1.378   8.036 -0.5813 -0.8686  2.4009
  189SLPC  C21821854   2.618   1.380   8.173 -0.3318  0.1663 -0.0598
  189SLPC  H18R21855   2.651   1.287   8.224  0.1738  2.6999  4.8027
  189SLPC  H18S21856   2.507   1.384   8.179 -0.4888 -1.6791 -0.8519
  189SLPC  H18T21857   2.657   1.465   8.232  0.4117 -0.3789  0.2596
  189SLPC   C3321858   2.919   1.113   6.876  0.0966  0.2407 -0.3650
  189SLPC   H3X21859   2.994   1.042   6.834  2.3554  0.5739  2.8070
  189SLPC   H3Y21860   2.816   1.099   6.835 -0.8630 -0.3526  2.0953
  189SLPC   C3421861   2.913   1.103   7.030  0.6636  0.2836  0.2779
  189SLPC   H4X21862   2.832   1.037   7.066 -1.2664  2.8721  0.9589
  189SLPC   H4Y21863   2.881   1.196   7.082 -1.2817  0.0091 -0.3677
  189SLPC   C3521864   3.046   1.054   7.088 -0.3831  0.6561  0.0742
  189SLPC   H5X21865   3.118   1.139   7.085 -0.6703  0.8837 -0.5102
  189SLPC   H5Y21866   3.100   0.981   7.023 -0.1571  1.7653 -1.0297
  189SLPC   C3621867   3.041   0.998   7.233 -0.0158 -0.0636 -0.2673
  189SLPC   H6X21868   2.974   0.914   7.258 -0.1445  0.4404  1.1842
  189SLPC   H6Y21869   3.005   1.077   7.302  0.7468 -0.5292  0.6787
  189SLPC   C3721870   3.181   0.970   7.292 -0.3679  0.6085  0.7177
  189SLPC   H7X21871   3.231   1.069   7.289 -0.5238  0.6708 -0.1286
  189SLPC   H7Y21872   3.237   0.893   7.235 -3.3168 -1.0420 -0.1316
  189SLPC   C3821873   3.168   0.932   7.439 -0.4838 -0.0049 -0.1373
  189SLPC   H8X21874   3.135   0.826   7.446 -0.5248  0.0607  0.8227
  189SLPC   H8Y21875   3.093   1.002   7.483  1.9537  0.5131  3.6547
  189SLPC   C3921876   3.296   0.948   7.519  0.3715  0.2087 -0.5057
  189SLPC   H9X21877   3.350   1.044   7.501 -0.6196  1.0133  0.6150
  189SLPC   H9Y21878   3.363   0.868   7.481  0.5084  0.5453 -0.9903
  189SLPC  C31021879   3.271   0.949   7.673 -0.3407  0.7819 -0.2851
  189SLPC  H10X21880   3.196   1.024   7.707  0.5105  0.3880  2.8508
  189SLPC  H10Y21881   3.364   0.976   7.727 -0.4632 -1.0725  0.9687
  189SLPC  C31121882   3.225   0.814   7.721  0.3945 -0.3032 -0.8854
  189SLPC  H11X21883   3.298   0.733   7.697 -0.8456 -1.3343 -1.2765
  189SLPC  H11Y21884   3.144   0.787   7.651 -0.2023 -0.1428 -0.2625
  189SLPC  C31221885   3.174   0.809   7.866  0.0667 -0.5607 -0.0220
  189SLPC  H12X21886   3.101   0.892   7.872  1.5400  0.8358 -0.7702
  189SLPC  H12Y21887   3.270   0.834   7.917  1.0893 -1.5345 -1.4026
  189SLPC  C31321888   3.111   0.669   7.901 -0.0424  0.0144  0.7440
  189SLPC  H13X21889   3.191   0.595   7.881  1.0082  1.2697  0.1576
  189SLPC  H13Y21890   3.032   0.643   7.827  0.7937  0.0754 -0.1897
  189SLPC  C31421891   3.067   0.661   8.046 -0.0278 -0.6581 -0.6455
  189SLPC  H14X21892   2.988   0.736   8.069  2.3592  2.0840 -0.8534
  189SLPC  H14Y21893   3.157   0.700   8.098 -1.4107  1.2168  0.4477
  189SLPC  C31521894   3.030   0.522   8.101  0.1985 -0.1710 -0.1439
  189SLPC  H15X21895   3.091   0.444   8.051 -3.7236 -1.8209 -2.9340
  189SLPC  H15Y21896   2.929   0.501   8.058 -0.0670  1.6416 -0.5020
  189SLPC  C31621897   3.037   0.520   8.254 -1.3837  0.1119 -0.2621
  189SLPC  H16X21898   3.134   0.530   8.308  0.3421 -1.0517 -2.9060
  189SLPC  H16Y21899   2.995   0.426   8.294  1.5607 -1.4398 -0.5412
  189SLPC  C31721900   2.946   0.631   8.305 -0.0427  0.3090 -0.0267
  189SLPC  H17X21901   2.846   0.619   8.259 -0.6192 -1.6402  1.5893
  189SLPC  H17Y21902   2.989   0.734   8.302  2.5819 -0.6699  1.2314
  189SLPC  C31821903   2.919   0.602   8.454 -0.4408 -0.5987 -0.1045
  189SLPC  H18X21904   2.847   0.678   8.492  0.7784  2.4408 -3.4104
  189SLPC  H18Y21905   3.015   0.600   8.509  0.3642 -2.5041 -1.4545
  189SLPC  H18Z21906   2.865   0.505   8.466  1.3519 -2.2792 -4.0905
  190SLPC     N21907   4.392   1.260   6.421 -0.1285 -0.4616 -0.2790
  190SLPC   C1321908   4.244   1.289   6.427 -0.3746  0.3569  0.1140
  190SLPC  H13A21909   4.187   1.198   6.412 -0.1608  0.4439 -1.4182
  190SLPC  H13B21910   4.228   1.331   6.525 -0.8388  0.7065 -0.1068
  190SLPC  H13C21911   4.210   1.359   6.352 -1.3143 -0.4672 -0.2596
  190SLPC   C1421912   4.454   1.386   6.462  0.0759 -0.7616 -0.0093
  190SLPC  H14A21913   4.442   1.409   6.567  2.1713  1.2084 -0.1147
  190SLPC  H14B21914   4.560   1.383   6.443  0.1778 -2.3022  0.6787
  190SLPC  H14C21915   4.413   1.466   6.403  0.6798 -1.3161 -1.2096
  190SLPC   C1521916   4.431   1.226   6.284  0.5156  0.0127  0.7674
  190SLPC  H15A21917   4.374   1.145   6.240  0.2871 -1.1389  3.0121
  190SLPC  H15B21918   4.409   1.316   6.229  2.1784  0.0784  0.1615
  190SLPC  H15C21919   4.537   1.205   6.284  0.5999  0.3812 -0.3239
  190SLPC   C1221920   4.426   1.146   6.517 -0.0050 -0.1144 -0.0012
  190SLPC  H12A21921   4.389   1.053   6.477  2.2854 -0.1077 -2.3981
  190SLPC  H12B21922   4.365   1.167   6.603 -0.5905  0.0671 -0.4475
  190SLPC   C1121923   4.579   1.118   6.543 -0.4951  0.6763 -0.0726
  190SLPC  H11A21924   4.578   1.046   6.627 -2.4287  1.6867  0.8492
  190SLPC  H11B21925   4.632   1.208   6.582  0.9264 -0.2846  0.3149
  190SLPC     P21926   4.633   0.935   6.347 -0.2568 -0.1113  0.5357
  190SLPC   O1321927   4.498   0.929   6.279 -0.4129 -0.1995 -0.3596
  190SLPC   O1421928   4.757   0.923   6.261 -0.3277  0.7181 -0.0750
  190SLPC   O1221929   4.651   1.065   6.436 -0.3350 -0.6236 -0.5806
  190SLPC   O1121930   4.642   0.823   6.465 -0.2118  0.2088 -0.6768
  190SLPC    C121931   4.766   0.803   6.534 -0.3266 -0.1123 -0.8461
  190SLPC    HA21932   4.819   0.718   6.486 -0.8896 -0.1200 -1.4736
  190SLPC    HB21933   4.836   0.889   6.527  0.8633 -0.9926 -0.1833
  190SLPC    C221934   4.765   0.762   6.684  0.1784  0.2462  0.3398
  190SLPC    HS21935   4.757   0.652   6.694  2.6028 -0.3422 -2.6808
  190SLPC   O2121936   4.667   0.834   6.762  0.1676 -0.3102 -0.2165
  190SLPC   C2121937   4.618   0.763   6.863  0.0226 -0.5622  0.2631
  190SLPC   O2221938   4.655   0.650   6.897  0.2129  0.2054  0.2608
  190SLPC   C2221939   4.502   0.833   6.932  0.9453  0.3435 -0.0943
  190SLPC   H2R21940   4.465   0.911   6.861 -0.3702 -0.2579 -0.1002
  190SLPC   H2S21941   4.407   0.776   6.939  2.0626 -2.2505 -3.4364
  190SLPC    C321942   4.909   0.803   6.739 -0.8709  0.1066  0.4692
  190SLPC    HX21943   4.929   0.912   6.732  0.5815 -0.1947 -0.3035
  190SLPC    HY21944   4.988   0.757   6.676 -1.2278 -0.4532  0.4238
  190SLPC   O3121945   4.923   0.773   6.883  0.2665  0.5317  0.3734
  190SLPC   C3121946   4.960   0.646   6.919 -1.1982 -0.1324  1.0089
  190SLPC   O3221947   4.998   0.555   6.840 -0.1193 -0.0379 -0.1117
  190SLPC   C3221948   4.955   0.631   7.071  0.1014  0.3699  0.1724
  190SLPC   H2X21949   4.849   0.651   7.099  0.6989  2.1613  1.3346
  190SLPC   H2Y21950   5.007   0.720   7.112  0.5013  0.3245 -0.2300
  190SLPC   C2321951   4.542   0.896   7.068 -0.2301 -0.1521  0.5191
  190SLPC   H3R21952   4.489   0.992   7.082 -0.2012  0.0293 -0.5253
  190SLPC   H3S21953   4.647   0.930   7.059 -0.6251  0.5140 -2.6197
  190SLPC   C2421954   4.525   0.807   7.185  0.7147 -0.3517  0.4288
  190SLPC   H4R21955   4.553   0.700   7.174 -1.4060 -0.8827 -0.1459
  190SLPC   H4S21956   4.416   0.814   7.203  0.5608 -2.0425  0.2821
  190SLPC   C2521957   4.597   0.856   7.310 -0.4326  0.4759 -0.5214
  190SLPC   H5R21958   4.569   0.961   7.333 -1.3921  0.8058 -2.9247
  190SLPC   H5S21959   4.706   0.857   7.288 -0.1411  1.8144  0.8321
  190SLPC   C2621960   4.582   0.750   7.423 -0.0163 -0.4328 -0.4918
  190SLPC   H6R21961   4.681   0.712   7.455  0.1290 -0.4106 -0.9091
  190SLPC   H6S21962   4.520   0.667   7.383 -0.3409  0.5037 -2.0164
  190SLPC   C2721963   4.509   0.803   7.540  0.8038  0.3250 -0.5248
  190SLPC   H7R21964   4.415   0.859   7.523  0.6079  0.2955  0.3680
  190SLPC   H7S21965   4.566   0.873   7.604 -1.2389  0.5596  1.1553
  190SLPC   C2821966   4.467   0.693   7.639 -0.1952 -0.3869 -0.0798
  190SLPC   H8R21967   4.400   0.630   7.577 -0.1294  1.4846 -2.1674
  190SLPC   H8S21968   4.409   0.758   7.708  0.5790  2.2604 -1.8214
  190SLPC   C2921969   4.567   0.616   7.718 -0.1828 -0.2225 -0.0490
  190SLPC   H9R21970   4.658   0.582   7.665  1.3786  0.7641  1.8736
  190SLPC  C21021971   4.566   0.593   7.849 -0.1883  0.4621  0.3344
  190SLPC  H10R21972   4.656   0.549   7.894 -0.9480 -0.6389  0.8211
  190SLPC  C21121973   4.463   0.635   7.947 -0.0749 -0.2218  0.5185
  190SLPC  H11R21974   4.370   0.675   7.900  0.7573 -1.9031 -2.8814
  190SLPC  H11S21975   4.496   0.727   8.000 -2.9076  0.5069  1.2052
  190SLPC  C21221976   4.439   0.515   8.028  0.6034 -0.3052 -0.7204
  190SLPC  H12R21977   4.339   0.471   8.012  0.3978 -1.0789  2.0951
  190SLPC  C21321978   4.510   0.486   8.140 -0.0936  0.1670 -0.1924
  190SLPC  H13R21979   4.471   0.410   8.210 -1.9244  2.9697  2.0957
  190SLPC  C21421980   4.627   0.560   8.203 -0.5792  0.4475 -0.7087
  190SLPC  H14R21981   4.587   0.580   8.305 -1.6917 -0.7147 -0.8886
  190SLPC  H14S21982   4.648   0.658   8.155 -1.0895  1.3363  0.8231
  190SLPC  C21521983   4.757   0.471   8.201  0.4083 -0.7031  0.8261
  190SLPC  H15R21984   4.842   0.533   8.236 -1.8755  2.9332  0.3909
  190SLPC  H15S21985   4.771   0.443   8.094  5.6649  0.1817  1.0226
  190SLPC  C21621986   4.752   0.346   8.291 -0.1691  0.2716  0.1647
  190SLPC  H16R21987   4.690   0.271   8.237 -2.6623  1.1710  1.6174
  190SLPC  H16S21988   4.689   0.368   8.380 -1.1404  0.0819 -0.4525
  190SLPC  C21721989   4.878   0.284   8.340  0.7685 -0.8905  0.2007
  190SLPC  H17R21990   4.933   0.354   8.407 -2.8958  0.8534  1.6527
  190SLPC  H17S21991   4.939   0.268   8.248 -1.2234 -0.9965 -1.1466
  190SLPC  C21821992   4.855   0.149   8.415 -0.2114 -0.1254 -0.1007
  190SLPC  H18R21993   4.796   0.165   8.508  1.0837  3.5117  0.2526
  190SLPC  H18S21994   4.951   0.105   8.450  0.3521 -0.0836 -1.5206
  190SLPC  H18T21995   4.798   0.083   8.347 -0.3333  0.1676 -0.2878
  190SLPC   C3321996   5.009   0.497   7.125 -0.4896 -0.7505  0.7011
  190SLPC   H3X21997   5.118   0.507   7.105 -0.5338 -0.9091  0.3865
  190SLPC   H3Y21998   4.966   0.424   7.053 -0.0707  1.2210 -1.6460
  190SLPC   C3421999   5.000   0.468   7.271  0.5513 -0.1161 -1.2632
  190SLPC   H4X22000   5.065   0.381   7.294 -3.6300 -3.4841 -0.9807
  190SLPC   H4Y22001   4.899   0.428   7.293  0.5978  1.2355  1.9528
  190SLPC   C3522002   5.014   0.592   7.354  0.1390 -0.6051  0.0616
  190SLPC   H5X22003   4.933   0.665   7.332 -0.3863 -0.7590  1.3856
  190SLPC   H5Y22004   5.109   0.644   7.328 -0.3599 -0.6023 -1.9324
  190SLPC   C3622005   5.016   0.566   7.508  0.4935  0.2653 -0.3687
  190SLPC   H6X22006   5.112   0.517   7.536  1.7757  2.7765 -0.0921
  190SLPC   H6Y22007   4.935   0.495   7.535  0.5743 -0.0829 -1.0361
  190SLPC   C3722008   4.995   0.695   7.582  0.4813 -0.4036 -0.0344
  190SLPC   H7X22009   4.911   0.750   7.533  0.9498 -0.6824 -1.1821
  190SLPC   H7Y22010   5.087   0.756   7.574 -0.0590  0.3407 -0.8068
  190SLPC   C3822011   4.979   0.679   7.734  0.0553  0.3402  0.4335
  190SLPC   H8X22012   5.078   0.647   7.773 -0.3083 -1.0144  0.3156
  190SLPC   H8Y22013   4.914   0.593   7.764 -0.1971  0.1765 -0.5438
  190SLPC   C3922014   4.935   0.799   7.804 -0.5624 -0.1101  0.0630
  190SLPC   H9X22015   4.836   0.820   7.759 -1.2911 -1.0018  1.1730
  190SLPC   H9Y22016   5.007   0.881   7.783 -0.4366 -0.3797 -0.5563
  190SLPC  C31022017   4.916   0.785   7.959  0.0039 -0.6163 -0.5225
  190SLPC  H10X22018   4.844   0.702   7.977  1.2496 -1.4652  0.7844
  190SLPC  H10Y22019   4.860   0.876   7.992  0.6056  0.0034 -1.1769
  190SLPC  C31122020   5.046   0.780   8.047 -0.9234 -0.0624 -1.1716
  190SLPC  H11X22021   5.104   0.873   8.032 -1.8584  0.6076 -0.7192
  190SLPC  H11Y22022   5.110   0.702   7.999  0.3058  0.6497 -0.7152
  190SLPC  C31222023   5.027   0.743   8.192  0.3401 -0.1458  0.1811
  190SLPC  H12X22024   5.019   0.632   8.192 -1.0904 -0.0657 -0.1232
  190SLPC  H12Y22025   4.925   0.780   8.216  0.3815  0.1687 -0.1175
  190SLPC  C31322026   5.135   0.788   8.295 -0.2973  0.1239  0.5355
  190SLPC  H13X22027   5.102   0.779   8.401 -0.7018  0.3007  0.4280
  190SLPC  H13Y22028   5.147   0.898   8.281 -1.3539  0.0381 -1.4626
  190SLPC  C31422029   5.267   0.718   8.267  0.8749 -0.2620  0.0505
  190SLPC  H14X22030   5.286   0.688   8.161  0.8408 -0.3101  0.0587
  190SLPC  H14Y22031   5.266   0.622   8.323  0.1764  1.0455  2.4048
  190SLPC  C31522032   5.386   0.801   8.294  0.0328 -0.3338 -0.1339
  190SLPC  H15X22033   5.381   0.886   8.222  1.7589 -1.3650 -1.5688
  190SLPC  H15Y22034   5.475   0.739   8.273  0.3106 -0.1179  0.3909
  190SLPC  C31622035   5.393   0.860   8.437 -0.0964 -0.1731 -0.6712
  190SLPC  H16X22036   5.389   0.774   8.507  1.1550  2.2629  2.6712
  190SLPC  H16Y22037   5.299   0.916   8.459 -0.8791 -2.0756  1.1329
  190SLPC  C31722038   5.512   0.951   8.460 -0.2590 -0.8977 -0.2022
  190SLPC  H17X22039   5.610   0.902   8.442  0.3208  0.7591 -2.0113
  190SLPC  H17Y22040   5.510   0.963   8.570  3.3689 -1.7904  0.0862
  190SLPC  C31822041   5.503   1.091   8.388 -0.8809  0.0186  0.0437
  190SLPC  H18X22042   5.449   1.082   8.291  2.9839  0.5782 -2.3936
  190SLPC  H18Y22043   5.598   1.147   8.372  0.4572 -2.6636 -2.5803
  190SLPC  H18Z22044   5.449   1.144   8.468  1.3342 -0.4608  1.9607
  191SLPC     N22045   4.886   3.489   5.766 -0.0487 -0.6988 -0.1586
  191SLPC   C1322046   5.017   3.527   5.835  0.0852 -0.5065 -0.4678
  191SLPC  H13A22047   5.031   3.622   5.884  1.9776 -1.1732  0.3616
  191SLPC  H13B22048   5.042   3.446   5.901  2.1036 -2.0472 -2.9587
  191SLPC  H13C22049   5.096   3.530   5.762  0.2018 -2.1717 -0.4442
  191SLPC   C1422050   4.912   3.367   5.688 -0.0279  0.0248 -0.1267
  191SLPC  H14A22051   4.822   3.324   5.647  0.2172  2.4379 -3.5890
  191SLPC  H14B22052   4.977   3.390   5.605  1.5804  2.7177  1.7254
  191SLPC  H14C22053   4.980   3.312   5.752 -0.7449 -0.0711  0.5587
  191SLPC   C1522054   4.840   3.596   5.678  0.2801  0.5167 -0.3101
  191SLPC  H15A22055   4.829   3.693   5.723 -0.7656  0.9714 -1.4751
  191SLPC  H15B22056   4.906   3.614   5.595 -0.8269  1.1309 -1.0857
  191SLPC  H15C22057   4.741   3.583   5.637  1.1299  0.0807 -2.3544
  191SLPC   C1222058   4.776   3.475   5.874 -0.6980  0.5726 -0.0592
  191SLPC  H12A22059   4.771   3.570   5.925  2.2757  0.6125  0.3491
  191SLPC  H12B22060   4.812   3.409   5.952  2.2722  0.5588 -1.2881
  191SLPC   C1122061   4.632   3.422   5.830 -0.4397 -0.4403  0.0346
  191SLPC  H11A22062   4.580   3.488   5.757 -4.0580 -0.2996  2.5213
  191SLPC  H11B22063   4.566   3.434   5.918  0.6732  1.2166  0.6895
  191SLPC     P22064   4.618   3.160   5.857  0.2952 -0.3705  0.2669
  191SLPC   O1322065   4.472   3.137   5.884 -0.0854 -0.3157  0.5013
  191SLPC   O1422066   4.684   3.049   5.780 -0.3046 -0.0510  0.1945
  191SLPC   O1222067   4.632   3.287   5.764 -0.2225  0.1215 -0.0114
  191SLPC   O1122068   4.687   3.198   5.989  0.3063  0.0117  0.1224
  191SLPC    C122069   4.830   3.177   6.007  0.4669 -0.2323 -0.2755
  191SLPC    HA22070   4.903   3.201   5.926  1.9611  1.5073  1.4717
  191SLPC    HB22071   4.855   3.254   6.084 -1.8064 -0.5003  0.8060
  191SLPC    C222072   4.864   3.035   6.067  0.4603 -0.5461  0.6345
  191SLPC    HS22073   4.844   2.965   5.984  1.2685  2.1702 -2.0324
  191SLPC   O2122074   4.769   3.008   6.171  0.4660  0.0838 -0.5999
  191SLPC   C2122075   4.748   2.870   6.200  0.3859 -0.3906  0.5461
  191SLPC   O2222076   4.814   2.782   6.149  0.1772 -0.1205  0.5100
  191SLPC   C2222077   4.619   2.851   6.279 -0.4717  0.6522 -0.2557
  191SLPC   H2R22078   4.567   2.946   6.306 -3.4684 -1.2781  1.4609
  191SLPC   H2S22079   4.553   2.793   6.211 -0.0958  1.0823 -0.9934
  191SLPC    C322080   5.008   3.037   6.114 -0.1655  0.1051 -0.2297
  191SLPC    HX22081   5.073   3.062   6.027  3.1818  1.2655  2.3551
  191SLPC    HY22082   5.048   2.936   6.136  0.7331  0.2130 -1.2802
  191SLPC   O3122083   5.041   3.132   6.222 -0.1246 -0.3322 -0.4988
  191SLPC   C3122084   4.998   3.099   6.349  0.0763 -0.2111  0.5078
  191SLPC   O3222085   4.967   2.988   6.384  0.6288  0.2308  0.9239
  191SLPC   C3222086   4.996   3.226   6.438  0.0664 -0.6472 -0.0659
  191SLPC   H2X22087   4.947   3.304   6.375 -1.0586 -2.8266 -2.0747
  191SLPC   H2Y22088   5.102   3.253   6.453 -0.2033 -0.0635  0.8813
  191SLPC   C2322089   4.639   2.787   6.418  0.1445 -0.1162 -0.2812
  191SLPC   H3R22090   4.550   2.819   6.477  0.5434  1.8910 -0.6954
  191SLPC   H3S22091   4.725   2.835   6.469  1.8283 -1.6360 -1.5380
  191SLPC   C2422092   4.665   2.636   6.419 -0.0761  0.2005 -0.2380
  191SLPC   H4R22093   4.722   2.603   6.329  0.7942 -1.6995  0.9616
  191SLPC   H4S22094   4.564   2.596   6.399 -1.0289  2.6775 -0.7121
  191SLPC   C2522095   4.729   2.579   6.540  0.3273  0.9847 -1.3457
  191SLPC   H5R22096   4.832   2.614   6.557 -0.0298  0.9867  1.2498
  191SLPC   H5S22097   4.733   2.468   6.528 -0.6175  0.7820 -0.0498
  191SLPC   C2622098   4.657   2.610   6.669 -0.0919  0.7166  0.4224
  191SLPC   H6R22099   4.557   2.562   6.679 -0.4726  1.7339  1.9925
  191SLPC   H6S22100   4.642   2.718   6.692  4.8950  1.2252  2.5007
  191SLPC   C2722101   4.745   2.579   6.790 -0.2505 -0.5118  0.0578
  191SLPC   H7R22102   4.844   2.627   6.782  0.0554 -1.2639 -0.7961
  191SLPC   H7S22103   4.756   2.469   6.795  0.3522 -0.5637 -1.7956
  191SLPC   C2822104   4.689   2.645   6.923 -0.2567  0.1501  0.0148
  191SLPC   H8R22105   4.697   2.754   6.906 -0.9978 -0.2355 -3.4767
  191SLPC   H8S22106   4.746   2.608   7.011 -1.2705  0.3048  0.7624
  191SLPC   C2922107   4.541   2.622   6.942 -0.0817  0.3208  0.6103
  191SLPC   H9R22108   4.483   2.687   6.875  2.0850 -0.0090 -1.7340
  191SLPC  C21022109   4.478   2.537   7.024 -0.4154  0.5234  0.6056
  191SLPC  H10R22110   4.369   2.528   7.013 -0.3002  0.7832 -1.0723
  191SLPC  C21122111   4.523   2.437   7.131 -0.4823 -0.2021 -0.2182
  191SLPC  H11R22112   4.627   2.460   7.163 -0.9497  0.3267  0.9844
  191SLPC  H11S22113   4.514   2.328   7.113 -0.3715 -0.1528 -0.5773
  191SLPC  C21222114   4.437   2.469   7.251  0.4761 -0.1217  0.1925
  191SLPC  H12R22115   4.393   2.570   7.249  0.7297 -0.0202 -1.5026
  191SLPC  C21322116   4.416   2.402   7.366 -0.8376 -0.1850 -0.6160
  191SLPC  H13R22117   4.367   2.444   7.455 -1.4091 -1.7423 -0.1530
  191SLPC  C21422118   4.486   2.271   7.392  0.2542 -0.2064 -0.2756
  191SLPC  H14R22119   4.594   2.287   7.371  0.1347 -0.9167 -1.5062
  191SLPC  H14S22120   4.440   2.196   7.324  0.3497  0.0401 -0.6180
  191SLPC  C21522121   4.458   2.235   7.540  0.0211 -0.9980 -0.2822
  191SLPC  H15R22122   4.348   2.225   7.540 -0.0896  0.0516 -0.8650
  191SLPC  H15S22123   4.494   2.310   7.614  0.3840 -1.5178  0.0762
  191SLPC  C21622124   4.517   2.099   7.583  0.7508 -0.1389 -0.0707
  191SLPC  H16R22125   4.624   2.103   7.556  0.7409 -2.4467 -0.6715
  191SLPC  H16S22126   4.458   2.023   7.527 -4.2891  3.8335 -0.9839
  191SLPC  C21722127   4.498   2.067   7.741 -0.0963 -0.0286  0.6620
  191SLPC  H17R22128   4.387   2.069   7.753 -0.1061  0.6983  0.5114
  191SLPC  H17S22129   4.546   2.154   7.791 -0.1673  1.6746 -2.0554
  191SLPC  C21822130   4.566   1.940   7.788 -0.7303 -0.1638  0.2996
  191SLPC  H18R22131   4.672   1.944   7.755 -0.3731  1.6400  1.5499
  191SLPC  H18S22132   4.503   1.866   7.735 -1.9858  2.2908 -1.8685
  191SLPC  H18T22133   4.562   1.947   7.899 -1.7056  1.1563  0.2147
  191SLPC   C3322134   4.928   3.212   6.574  0.7433 -0.0444 -0.2745
  191SLPC   H3X22135   4.946   3.305   6.631 -0.5016 -0.2342  0.4719
  191SLPC   H3Y22136   4.977   3.123   6.618  1.2685  0.0206 -0.7190
  191SLPC   C3422137   4.773   3.197   6.568 -0.4860 -0.1083  0.3860
  191SLPC   H4X22138   4.752   3.115   6.496  1.4221 -3.0611  2.9066
  191SLPC   H4Y22139   4.722   3.287   6.530 -2.1402 -0.1889  2.2285
  191SLPC   C3522140   4.714   3.182   6.710  0.4627 -0.3348  0.0296
  191SLPC   H5X22141   4.751   3.252   6.788  1.0478  0.1146 -0.6426
  191SLPC   H5Y22142   4.755   3.086   6.748  1.4802 -0.1442 -0.5657
  191SLPC   C3622143   4.566   3.178   6.716  0.5660 -0.6131  0.0548
  191SLPC   H6X22144   4.524   3.088   6.666  0.6896 -0.2294 -0.7472
  191SLPC   H6Y22145   4.521   3.269   6.670  1.5104  0.5516  1.3484
  191SLPC   C3722146   4.525   3.172   6.858  0.1643  0.3475 -0.1650
  191SLPC   H7X22147   4.521   3.270   6.911 -1.4133 -0.4950  1.3901
  191SLPC   H7Y22148   4.596   3.117   6.923  0.3787  1.2416  0.3821
  191SLPC   C3822149   4.395   3.099   6.872  0.1712  0.3023  0.1886
  191SLPC   H8X22150   4.380   3.008   6.810  0.4004  0.5200 -0.1971
  191SLPC   H8Y22151   4.322   3.174   6.834  1.5524  1.2947 -0.5933
  191SLPC   C3922152   4.368   3.056   7.018  0.3221  1.0983  0.1501
  191SLPC   H9X22153   4.411   3.129   7.089 -0.9872  1.1112  0.9487
  191SLPC   H9Y22154   4.420   2.962   7.047 -1.1062 -0.1677 -1.1959
  191SLPC  C31022155   4.222   3.019   7.047 -0.4462 -0.0298 -0.2471
  191SLPC  H10X22156   4.191   2.942   6.974  1.0327  1.2419 -2.3033
  191SLPC  H10Y22157   4.159   3.107   7.020  1.4899  1.6414  0.4051
  191SLPC  C31122158   4.200   2.988   7.198 -0.2716  0.6413  0.1637
  191SLPC  H11X22159   4.090   2.995   7.214 -0.7849  2.3879 -3.2426
  191SLPC  H11Y22160   4.236   3.076   7.255 -3.7280  2.4469 -0.1396
  191SLPC  C31222161   4.248   2.849   7.240 -0.1521 -0.4798  0.5683
  191SLPC  H12X22162   4.357   2.840   7.220 -0.3153  1.6412 -1.6900
  191SLPC  H12Y22163   4.195   2.773   7.179 -1.8865 -0.6704  2.2459
  191SLPC  C31322164   4.231   2.819   7.386  0.4985  0.2415 -0.0610
  191SLPC  H13X22165   4.279   2.721   7.404  0.3548  0.7376  3.8771
  191SLPC  H13Y22166   4.129   2.824   7.432  0.6717 -1.0051  0.5175
  191SLPC  C31422167   4.322   2.906   7.461 -0.2040 -0.1383  0.3161
  191SLPC  H14X22168   4.264   3.000   7.477  0.7522  0.4683  0.2635
  191SLPC  H14Y22169   4.410   2.934   7.400 -0.5701 -0.9689 -0.6134
  191SLPC  C31522170   4.377   2.849   7.600 -0.0819 -0.0721  0.7801
  191SLPC  H15X22171   4.437   2.758   7.582 -0.7603 -0.7702  1.8930
  191SLPC  H15Y22172   4.295   2.825   7.671 -0.5767 -2.1639 -0.4234
  191SLPC  C31622173   4.468   2.950   7.664 -0.2153 -0.1038  0.2106
  191SLPC  H16X22174   4.403   3.036   7.690  0.3879  0.4229  0.0159
  191SLPC  H16Y22175   4.547   2.987   7.594 -0.0675 -1.4124 -0.3377
  191SLPC  C31722176   4.557   2.898   7.781 -0.8074  0.1961  0.4452
  191SLPC  H17X22177   4.481   2.876   7.858 -0.6258 -1.3863  0.2056
  191SLPC  H17Y22178   4.618   2.983   7.818  1.0393 -0.9293  0.1166
  191SLPC  C31822179   4.650   2.780   7.756  0.8866 -0.7140 -0.5180
  191SLPC  H18X22180   4.755   2.815   7.744 -0.3649  4.7081  1.5254
  191SLPC  H18Y22181   4.622   2.728   7.662 -0.5964 -0.0338 -0.4738
  191SLPC  H18Z22182   4.642   2.710   7.841 -0.0468  1.3672  1.1868
  192SLPC     N22183   6.237   2.757   5.940  0.1925  0.0789 -0.1599
  192SLPC   C1322184   6.158   2.880   5.963  0.5241  0.3328  0.6615
  192SLPC  H13A22185   6.132   2.918   5.865 -0.5944 -0.2237  0.7359
  192SLPC  H13B22186   6.060   2.855   5.999  0.7671  0.8093  1.6982
  192SLPC  H13C22187   6.207   2.950   6.029  1.0224  2.8966 -2.1759
  192SLPC   C1422188   6.360   2.797   5.852  0.0609 -0.2302 -0.1104
  192SLPC  H14A22189   6.328   2.829   5.754 -1.5573 -2.1896 -0.2980
  192SLPC  H14B22190   6.414   2.876   5.902  1.1177 -1.6174  1.0413
  192SLPC  H14C22191   6.427   2.713   5.855 -1.3320 -1.5092 -1.9831
  192SLPC   C1522192   6.164   2.659   5.855 -0.3703  0.2161 -0.2418
  192SLPC  H15A22193   6.149   2.702   5.757 -2.3502  0.8272  0.2695
  192SLPC  H15B22194   6.213   2.563   5.849 -0.3861  0.2521 -1.0467
  192SLPC  H15C22195   6.064   2.633   5.888  0.8160 -1.6350  2.2383
  192SLPC   C1222196   6.271   2.690   6.073  0.3964  0.1674 -0.1617
  192SLPC  H12A22197   6.319   2.596   6.051 -0.7932 -1.2596  2.8191
  192SLPC  H12B22198   6.180   2.650   6.116  0.2991  3.2506  2.9268
  192SLPC   C1122199   6.343   2.768   6.192  0.7146 -0.8281 -1.5459
  192SLPC  H11A22200   6.440   2.805   6.150  2.1694  1.4242  3.1411
  192SLPC  H11B22201   6.356   2.702   6.280  1.5912  0.6882 -0.4810
  192SLPC     P22202   6.337   2.990   6.320  0.1415 -0.0453  0.0431
  192SLPC   O1322203   6.414   3.075   6.226 -1.0302 -0.2159 -0.7591
  192SLPC   O1422204   6.237   3.055   6.403  0.1699  0.0755 -0.8238
  192SLPC   O1222205   6.256   2.875   6.237 -0.5009 -0.1062 -0.4367
  192SLPC   O1122206   6.429   2.901   6.415 -0.7006  0.0726  0.0851
  192SLPC    C122207   6.405   2.868   6.549  0.7817  0.2349  0.2888
  192SLPC    HA22208   6.492   2.808   6.582  1.1739  1.2712  1.2178
  192SLPC    HB22209   6.400   2.959   6.613  0.5495  1.5299 -1.4787
  192SLPC    C222210   6.273   2.784   6.574  0.2588  0.3662  0.9690
  192SLPC    HS22211   6.243   2.748   6.473  0.6738 -0.1881  1.0383
  192SLPC   O2122212   6.169   2.870   6.637  0.1639  0.0955 -0.2698
  192SLPC   C2122213   6.051   2.819   6.612 -0.2416  0.0665 -0.0660
  192SLPC   O2222214   6.029   2.731   6.524  0.2131  0.3219  0.0444
  192SLPC   C2222215   5.940   2.887   6.691  0.3121  0.2213  0.1243
  192SLPC   H2R22216   5.972   2.962   6.767 -2.1639  0.2943  1.1989
  192SLPC   H2S22217   5.876   2.943   6.620  1.7506  0.4794 -1.0110
  192SLPC    C322218   6.305   2.656   6.658 -0.2453 -0.3082 -0.0448
  192SLPC    HX22219   6.402   2.619   6.618 -1.4759 -1.3151 -2.2962
  192SLPC    HY22220   6.235   2.571   6.643  1.0571 -1.3721 -0.2008
  192SLPC   O3122221   6.314   2.694   6.799 -0.6372  0.1641  0.4928
  192SLPC   C3122222   6.285   2.602   6.887 -0.1180  0.2036 -0.9165
  192SLPC   O3222223   6.265   2.486   6.863 -0.2515  0.2960  0.4083
  192SLPC   C3222224   6.282   2.664   7.027 -0.1887 -0.5117 -0.1567
  192SLPC   H2X22225   6.202   2.741   7.029  0.3467  0.0594 -0.3857
  192SLPC   H2Y22226   6.375   2.719   7.052  1.4404 -3.2189  0.1882
  192SLPC   C2322227   5.846   2.786   6.754  0.1348  0.1930 -0.7712
  192SLPC   H3R22228   5.823   2.698   6.690  2.1718 -0.4732 -0.6475
  192SLPC   H3S22229   5.754   2.843   6.778  2.1769  2.3362  2.7588
  192SLPC   C2422230   5.896   2.720   6.887 -0.1974  0.3834  0.4809
  192SLPC   H4R22231   6.005   2.704   6.870 -0.1594  2.1197 -1.4047
  192SLPC   H4S22232   5.838   2.627   6.905 -0.9561  0.2560 -2.1759
  192SLPC   C2522233   5.871   2.809   7.006 -0.3443 -0.1331  0.5494
  192SLPC   H5R22234   5.776   2.865   6.998 -0.5025 -0.3656  0.7941
  192SLPC   H5S22235   5.951   2.886   6.999 -0.0193 -0.3300  1.8764
  192SLPC   C2622236   5.885   2.722   7.132  1.0173 -0.3821  0.0609
  192SLPC   H6R22237   5.969   2.652   7.111 -0.0947 -1.6452 -0.2686
  192SLPC   H6S22238   5.787   2.678   7.159  1.9152 -1.8556  1.0680
  192SLPC   C2722239   5.927   2.812   7.247 -0.1748 -0.1768 -0.5612
  192SLPC   H7R22240   5.851   2.891   7.267  1.0134  1.2788 -1.5420
  192SLPC   H7S22241   6.021   2.852   7.203 -1.3520  0.8981 -2.2620
  192SLPC   C2822242   5.947   2.723   7.367 -0.3799  0.1608 -0.5015
  192SLPC   H8R22243   6.028   2.761   7.431 -0.1095  0.1783 -0.8491
  192SLPC   H8S22244   5.990   2.628   7.328 -0.2027  0.3026 -0.6502
  192SLPC   C2922245   5.818   2.709   7.439 -0.0934 -0.0265  0.1721
  192SLPC   H9R22246   5.752   2.634   7.392  0.8116 -0.9186  0.2974
  192SLPC  C21022247   5.773   2.778   7.546  0.2523  0.0169  0.5301
  192SLPC  H10R22248   5.668   2.757   7.572 -0.5870  3.6759  0.6151
  192SLPC  C21122249   5.853   2.892   7.612  0.6353 -0.3440  0.7914
  192SLPC  H11R22250   5.789   2.978   7.643  3.0274  1.7633  0.1662
  192SLPC  H11S22251   5.936   2.931   7.551  1.1127 -0.4786  1.3455
  192SLPC  C21222252   5.908   2.842   7.747 -0.6599 -0.3668 -0.0946
  192SLPC  H12R22253   5.993   2.775   7.724 -0.9562 -0.9105  0.3916
  192SLPC  C21322254   5.862   2.866   7.873  0.1874  0.1444 -0.1932
  192SLPC  H13R22255   5.912   2.804   7.949 -0.3974 -1.0820 -0.7769
  192SLPC  C21422256   5.739   2.948   7.910 -0.3010  0.7158  0.4795
  192SLPC  H14R22257   5.671   2.953   7.822 -1.1267  1.7335  1.1561
  192SLPC  H14S22258   5.765   3.054   7.929  2.0716  0.2268  0.2391
  192SLPC  C21522259   5.665   2.893   8.030  0.2927  0.4857 -0.2192
  192SLPC  H15R22260   5.656   2.782   8.033  1.0262  0.4077  2.6068
  192SLPC  H15S22261   5.568   2.947   8.027 -0.7790 -0.9761  3.2358
  192SLPC  C21622262   5.734   2.930   8.163 -0.1976 -0.0069 -0.0262
  192SLPC  H16R22263   5.745   3.040   8.168 -2.2434  0.2504 -0.1668
  192SLPC  H16S22264   5.835   2.883   8.167 -0.1803 -0.0494 -0.8990
  192SLPC  C21722265   5.655   2.891   8.291 -0.2879  0.2240 -0.2299
  192SLPC  H17R22266   5.566   2.956   8.303  0.9836  1.9045  0.4634
  192SLPC  H17S22267   5.628   2.785   8.274 -2.2658  0.7654 -0.7133
  192SLPC  C21822268   5.735   2.893   8.424 -0.4807  0.6792  0.5534
  192SLPC  H18R22269   5.818   2.966   8.426  0.5583 -0.3837 -1.2092
  192SLPC  H18S22270   5.768   2.789   8.448 -1.1538  0.3947  0.2948
  192SLPC  H18T22271   5.672   2.917   8.512 -4.2981 -0.5520 -1.5969
  192SLPC   C3322272   6.262   2.558   7.139 -0.4293 -0.5208  0.2144
  192SLPC   H3X22273   6.329   2.473   7.117 -1.4090 -1.3657  0.4254
  192SLPC   H3Y22274   6.158   2.519   7.135 -0.4227 -1.0285  2.7914
  192SLPC   C3422275   6.287   2.625   7.280  0.8087  0.1023  0.1712
  192SLPC   H4X22276   6.222   2.715   7.292  1.5384  0.4858  1.4543
  192SLPC   H4Y22277   6.391   2.662   7.269  1.8693 -2.8646 -0.5423
  192SLPC   C3522278   6.299   2.528   7.395 -0.1315 -0.0864 -0.0954
  192SLPC   H5X22279   6.383   2.459   7.374 -0.4725 -0.7383  0.6408
  192SLPC   H5Y22280   6.204   2.473   7.409 -1.0123  2.1081  4.0903
  192SLPC   C3622281   6.322   2.595   7.531 -0.6189  0.0283  0.4572
  192SLPC   H6X22282   6.233   2.646   7.573  1.4244  1.4306  3.4351
  192SLPC   H6Y22283   6.389   2.683   7.530 -2.0279  1.1457  0.6742
  192SLPC   C3722284   6.377   2.490   7.630  0.0431 -0.1667  0.8417
  192SLPC   H7X22285   6.394   2.544   7.725  3.5516  2.5306 -1.0783
  192SLPC   H7Y22286   6.475   2.448   7.598 -0.2534  0.4158 -0.9672
  192SLPC   C3822287   6.280   2.373   7.661  0.4685 -0.1075  0.0263
  192SLPC   H8X22288   6.317   2.304   7.582  2.2569  2.3114 -1.4156
  192SLPC   H8Y22289   6.179   2.401   7.624  1.0735 -1.2656 -2.7993
  192SLPC   C3922290   6.272   2.321   7.802  0.1910  0.2378  1.0797
  192SLPC   H9X22291   6.182   2.256   7.802  0.1337  0.1484 -2.0816
  192SLPC   H9Y22292   6.255   2.414   7.860 -1.6129 -0.3064  1.4900
  192SLPC  C31022293   6.404   2.247   7.846  0.7664 -0.4821  0.5628
  192SLPC  H10X22294   6.490   2.317   7.841  0.7921 -0.2240  3.1142
  192SLPC  H10Y22295   6.426   2.158   7.783  2.6384 -1.0182  1.8784
  192SLPC  C31122296   6.386   2.197   7.991 -0.6349  0.3539  0.2965
  192SLPC  H11X22297   6.302   2.125   7.999 -0.3145  0.0072  0.6040
  192SLPC  H11Y22298   6.366   2.279   8.063 -3.2052  1.4116 -1.4755
  192SLPC  C31222299   6.513   2.110   8.024  0.0989 -0.5718 -0.1358
  192SLPC  H12X22300   6.612   2.158   8.009  0.6652 -1.9079 -0.9103
  192SLPC  H12Y22301   6.516   2.026   7.952 -0.5892 -0.1535 -0.6592
  192SLPC  C31322302   6.531   2.067   8.168 -0.5485 -0.2413  0.5246
  192SLPC  H13X22303   6.448   1.994   8.181 -1.9567  1.4340  1.2747
  192SLPC  H13Y22304   6.504   2.146   8.241 -1.3048  0.2758 -0.2945
  192SLPC  C31422305   6.661   1.992   8.194 -0.5635  0.0376 -0.2909
  192SLPC  H14X22306   6.745   2.065   8.195 -0.3155 -0.1466 -2.2788
  192SLPC  H14Y22307   6.689   1.925   8.110 -0.8608 -1.7734  1.0136
  192SLPC  C31522308   6.657   1.922   8.324  0.2442  0.5681  0.3474
  192SLPC  H15X22309   6.586   1.836   8.318  0.7294  0.1858  0.0582
  192SLPC  H15Y22310   6.629   1.979   8.415  2.1867 -1.7408  2.5568
  192SLPC  C31622311   6.800   1.878   8.366  0.1239 -0.1636  0.3882
  192SLPC  H16X22312   6.875   1.955   8.393  0.1647  0.3531 -1.0801
  192SLPC  H16Y22313   6.846   1.823   8.281 -0.2746  1.4287 -0.9360
  192SLPC  C31722314   6.790   1.778   8.482 -0.3956  0.7249  0.4937
  192SLPC  H17X22315   6.886   1.724   8.498 -2.2224 -2.3595  1.9801
  192SLPC  H17Y22316   6.723   1.693   8.456  0.3640  0.5740 -1.1085
  192SLPC  C31822317   6.737   1.827   8.621 -0.1537 -0.1246  0.3290
  192SLPC  H18X22318   6.728   1.751   8.702 -1.9709  0.2285  0.5022
  192SLPC  H18Y22319   6.642   1.880   8.598  0.9984  1.7185 -0.3682
  192SLPC  H18Z22320   6.799   1.906   8.667  0.9080 -1.1226  0.6499
  193SOD    SOD22321   0.436   0.358   6.291  0.1900  0.2739  0.4810
  194SOD    SOD22322   4.222   5.342  14.469 -0.0569 -0.5006  0.3790
  195SOD    SOD22323   0.677   1.551  11.212  0.4903 -0.0995  0.7359
  196SOD    SOD22324   0.941   4.975   0.185 -0.0782  0.0794  0.0933
  197SOD    SOD22325   6.225   6.646  13.272  0.5425  0.2094 -0.0034
  198SOD    SOD22326   0.105   3.491   4.941 -0.1290  0.3306 -0.2316
  199SOD    SOD22327   4.069   6.560   1.348  0.2877 -0.1373  0.0178
  200SOD    SOD22328   6.673   3.609   5.614 -0.0495  0.1893  0.4562
  201SOD    SOD22329   1.891   0.673   2.961 -0.4564 -0.0447 -0.1582
  202SOD    SOD22330   3.526   3.002   3.444 -0.2143 -0.3141 -0.2688
  203SOD    SOD22331   2.884   0.412  15.598 -0.4963  0.4987 -0.4411
  204SOD    SOD22332   6.233   3.836  16.239  1.3330  0.6897  0.5315
  205SOD    SOD22333   6.598   0.564   4.054 -0.3057 -0.1807 -0.0390
  206SOD    SOD22334   1.348   1.222   5.068  0.0076 -0.0619  0.1086
  207SOD    SOD22335   3.389   5.503   5.691 -0.3562  0.6414 -0.4896
  208SOD    SOD22336   4.747   2.917  13.132  0.3635 -0.2306  0.3564
  209SOD    SOD22337   6.657   3.590  12.771  0.2489 -0.7246  0.0505
  210SOD    SOD22338   3.033   5.720  13.651  0.1170  0.0207  0.0020
  211SOD    SOD22339   4.058   1.835   2.962  0.0092 -0.2032 -0.3442
  212SOD    SOD22340   5.599   2.986   4.895  0.0152  0.0632  0.1839
  213SOD    SOD22341   0.176   2.019   3.688  0.5806 -0.2258 -0.1037
  214SOD    SOD22342   1.944   0.734  12.023  0.2974  0.4333  0.0468
  215SOD    SOD22343   2.972   0.303   6.341 -0.3428  0.2706  0.1014
  216SOD    SOD22344   5.358   0.380  11.483  0.0642  0.3482 -0.0119
  217SOD    SOD22345   0.682   5.919   4.431  0.1275  0.3543  0.1968
  218SOD    SOD22346   5.965   4.511   0.691 -0.0325  0.2961  0.0133
  219SOD    SOD22347   6.380   4.383  14.162  0.0690  0.2706  0.2599
  220SOD    SOD22348   2.398   5.849  14.960  0.0744  0.2561  0.3164
  221SOD    SOD22349   6.218   1.994   4.048 -0.4815  0.4160  0.5754
  222SOD    SOD22350   6.304   5.371   2.690  0.1307  0.4514 -0.1624
  223SOD    SOD22351   3.306   2.131   5.889  0.1878 -0.1290 -0.3707
  224SOD    SOD22352   0.655   2.968  11.170 -0.1438 -0.8215 -0.5701
  225SOD    SOD22353   3.852   1.604   0.510  0.1934 -0.1427  0.5518
  226SOD    SOD22354   2.495   5.041  10.778  0.1157  0.3241  0.2576
  227SOD    SOD22355   5.142   6.529  13.667  0.7273  0.2650  0.2461
  228SOD    SOD22356   2.281   6.420   2.280  0.4643 -0.0977  0.0692
  229SOD    SOD22357   3.525   2.898  10.723  0.1594  0.1168  0.2819
  230SOD    SOD22358   0.856   2.716  11.861 -0.4989 -0.3731 -0.0096
  231SOD    SOD22359   4.548   3.266  12.081 -0.7598  0.1278  0.3920
  232SOD    SOD22360   6.707   1.192   5.902 -0.1011  0.0849  0.1017
  233SOD    SOD22361   4.433   0.536  14.002  0.5030 -0.2233  0.6984
  234SOD    SOD22362   0.509   4.434  15.930  0.0150 -0.5816  0.2573
  235SOD    SOD22363   4.808   1.565  11.011  0.0503  0.5057  0.1350
  236SOD    SOD22364   4.901   1.717  14.540 -0.3918 -0.2426 -0.1216
  237SOD    SOD22365   5.691   1.771   5.881 -0.3090  0.1026 -0.2019
  238SOD    SOD22366   4.715   6.183   2.614 -0.4874  0.3485 -0.5799
  239SOD    SOD22367   2.872   3.596   6.180  0.1182  0.2572 -0.3766
  240SOD    SOD22368   3.692   2.603  12.767  0.3580 -0.4456  0.4925
  241SOD    SOD22369   2.084   6.733  10.347  0.2543  0.1990 -0.2575
  242SOD    SOD22370   5.200   2.613   5.935 -0.0651 -0.4268  0.2785
  243SOD    SOD22371   5.595   0.056   5.967  0.2092  0.1576  0.0146
  244SOD    SOD22372   6.850   5.558  12.773 -0.4240 -0.0846 -0.3265
  245SOD    SOD22373   4.015   6.079  11.222  0.1576  0.7103 -0.2681
  246SOD    SOD22374   3.978   3.253   6.059  0.2873  0.0271 -0.5565
  247SOD    SOD22375   1.885   4.431  14.958 -0.1277 -0.0171 -0.2103
  248SOD    SOD22376   2.779   4.665  12.159  0.9252  0.3605 -0.3552
  249SOD    SOD22377   0.101   4.384   1.899 -0.2466  0.2958  0.3792
  250SOD    SOD22378   2.274   5.937   1.630  0.0209  0.0402  0.0249
  251SOD    SOD22379   5.209   0.783   5.209 -0.1087 -0.6081  0.4716
  252SOD    SOD22380   5.058   2.183   1.687 -0.3547 -0.4659  0.1835
  253SOD    SOD22381   5.368   6.821   3.108 -0.3206  0.2430 -0.5528
  254SOD    SOD22382   2.973   2.959  15.156  0.9430 -0.3122  0.0695
  255SOD    SOD22383   6.642   2.086  14.762  0.2277  0.1049  0.3548
  256SOD    SOD22384   0.695   5.896  14.058 -0.5001  0.0180 -0.2157
  257SOD    SOD22385   0.708   1.576  16.116 -0.1038 -0.3079 -0.4090
  258SOD    SOD22386   4.306   1.789  11.660 -0.0096  0.3737 -0.1185
  259SOD    SOD22387   1.365   2.287   2.449 -0.0217  0.3717  0.2434
  260SOD    SOD22388   3.032   1.523  12.927 -0.4223  0.3819 -0.0409
  261SOD    SOD22389   0.595   6.588   4.352 -0.1912 -0.1176  0.3445
  262SOD    SOD22390   3.296   4.334  11.485 -0.4559 -0.4492 -0.2077
  263SOD    SOD22391   6.386   3.356   0.239 -0.2051  0.2768 -0.0530
  264SOD    SOD22392   2.363   2.910  13.130  0.0860  0.0714  0.2312
  265SOD    SOD22393   5.966   6.700   0.427 -0.3072  0.4042  0.5197
  266CLA    CLA22394   3.455   0.681   4.199  0.1221  0.1741  0.0845
  267CLA    CLA22395   3.765   6.699   3.317  0.0846  0.3617  0.1169
  268CLA    CLA22396   1.521   1.979  12.945 -0.3508  0.2463  0.0925
  269CLA    CLA22397   1.348   6.353   2.603 -0.1590 -0.3967 -0.1839
  270CLA    CLA22398   1.134   1.427  15.889  0.1623  0.0031  0.3016
  271CLA    CLA22399   5.799   5.867   5.460  0.5085  0.3502  0.3433
  272CLA    CLA22400   5.535   4.640  16.320 -0.1113 -0.0148 -0.4192
  273CLA    CLA22401   6.379   2.387   3.717 -0.0349 -0.4214 -0.4340
  274CLA    CLA22402   4.784   2.330   1.069  0.3749  0.4202 -0.1832
  275CLA    CLA22403   2.338   5.159  13.943  0.4458  0.1268 -0.0726
  276CLA    CLA22404   0.250   2.202   0.827 -0.1956  0.2984  0.1998
  277CLA    CLA22405   4.120   3.000  12.890 -0.0961  0.4185 -0.5505
  278CLA    CLA22406   6.745   0.507  13.807 -0.1032 -0.1816 -0.2468
  279CLA    CLA22407   5.789   4.107  15.815 -0.1083  0.0758 -0.1133
  280CLA    CLA22408   2.965   3.479  14.057 -0.0626 -0.2483 -0.2602
  281CLA    CLA22409   5.378   5.340   0.882  0.2399  0.0111  0.2034
  282CLA    CLA22410   0.672   6.134   4.926  0.2679 -0.2425 -0.2195
  283CLA    CLA22411   5.955   5.475   0.906 -0.3860  0.1345  0.0243
  284CLA    CLA22412   2.527   2.803   4.405  0.0747  0.3589  0.7512
  285CLA    CLA22413   3.820   4.301  13.078 -0.0786  0.0870  0.1712
  286CLA    CLA22414   2.601   0.403   4.388 -0.0096 -0.1815  0.4781
  287CLA    CLA22415   1.741   2.375  16.692 -0.2031  0.1674 -0.3795
  288CLA    CLA22416   2.366   6.114  14.985  0.0470 -0.1136  0.1479
  289CLA    CLA22417   5.093   6.145  14.133 -0.1721  0.0062  0.3078
  290CLA    CLA22418   4.875   0.981  13.795 -0.1821 -0.0973 -0.5630
  291CLA    CLA22419   5.600   4.351   4.227  0.0714 -0.0605 -0.1835
  292CLA    CLA22420   4.407   4.167  15.573 -0.1429  0.3603 -0.0878
  293CLA    CLA22421   4.011   1.841   0.577  0.2645  0.0928  0.5435
  294CLA    CLA22422   2.223   3.805  14.960  0.1176 -0.0372  0.1069
  295CLA    CLA22423   6.221   4.523  15.950 -0.3221 -0.4966  0.1107
  296CLA    CLA22424   0.505   2.457   1.924  0.5266 -0.0770  0.2522
  297CLA    CLA22425   4.525   4.606  13.630  0.2925 -0.3320  0.0220
  298CLA    CLA22426   6.467   3.498  14.617 -0.0034  0.2177 -0.0844
  299CLA    CLA22427   0.700   5.080   3.410  0.1812  0.3434  0.0649
  300CLA    CLA22428   4.312   1.359   4.841 -0.2706 -0.0355  0.1270
  301CLA    CLA22429   3.367   4.405   5.605 -0.3684  0.3879 -0.0536
  302CLA    CLA22430   2.612   3.947  15.768 -0.3571 -0.2954 -0.1833
  303CLA    CLA22431   1.251   0.667   5.680 -0.3284  0.2884  0.3059
  304CLA    CLA22432   0.835   3.263   3.915  0.1295  0.3234 -0.1488
  305CLA    CLA22433   1.828   1.982  12.022 -0.0481 -0.2503  0.0524
  306CLA    CLA22434   6.359   5.719   2.408 -0.2106  0.0206 -0.0999
  307CLA    CLA22435   4.986   6.219  13.076 -0.2688  0.1622  0.1343
  308CLA    CLA22436   0.111   5.924  15.719 -0.0085 -0.1037 -0.1829
  309CLA    CLA22437   6.449   4.709  15.107 -0.0996 -0.2147 -0.1171
  310CLA    CLA22438   1.286   2.225   0.179  0.6617  0.1567 -0.4555
  311CLA    CLA22439   6.035   0.833   2.868 -0.1217 -0.0508  0.3133
  312CLA    CLA22440   3.919   0.878  14.567  0.0983 -0.1831 -0.0952
  313CLA    CLA22441   0.438   2.020  12.216 -0.5054 -0.1058 -0.1930
  314CLA    CLA22442   0.640   0.674  13.391  0.2285 -0.1368  0.1473
  315CLA    CLA22443   4.090   2.088   2.537  0.1322 -0.4969 -0.5403
  316CLA    CLA22444   5.879   3.188  13.520 -0.0796  0.0984 -0.3884
  317CLA    CLA22445   2.306   1.384  11.540  0.1234 -0.1844  0.0498
  318CLA    CLA22446   0.208   3.947   2.164 -0.5588  0.3531  0.1768
  319TIP3   OH222447   4.725   1.573   0.082  0.2454  0.4102  0.5870
  319TIP3    H122448   4.672   1.495   0.091 -0.2469  0.7654  0.8078
  319TIP3    H222449   4.809   1.550   0.122  0.4775 -0.3463 -0.2905
  320TIP3   OH222450   1.008   0.188   2.885 -0.1768 -0.3756  0.4979
  320TIP3    H122451   1.089   0.225   2.850 -0.8406  0.1553 -0.5488
  320TIP3    H222452   1.016   0.197   2.980  0.9425 -0.2446  0.4072
  321TIP3   OH222453   3.345   5.840  10.465  0.3019  0.5329 -0.2075
  321TIP3    H122454   3.283   5.875  10.401  0.1745  2.5245  0.9171
  321TIP3    H222455   3.307   5.863  10.550  2.2365  1.2489  0.5279
  322TIP3   OH222456   4.056   5.041  16.146  0.4429 -0.1763  0.2599
  322TIP3    H122457   4.142   5.045  16.188  0.4217  0.0547  0.2876
  322TIP3    H222458   3.999   5.090  16.206  0.8146  1.9278 -0.9804
  323TIP3   OH222459   4.058   1.953   5.524  0.5720 -0.0789 -0.8036
  323TIP3    H122460   4.033   1.866   5.556 -0.5503  0.3816 -0.3830
  323TIP3    H222461   4.110   1.991   5.595 -1.0867  0.5595  0.1154
  324TIP3   OH222462   2.541   1.788  13.507  0.1908 -0.1802 -0.2072
  324TIP3    H122463   2.519   1.790  13.600  1.4141  0.2722  0.0763
  324TIP3    H222464   2.502   1.867  13.471  3.7364  2.2890  0.8823
  325TIP3   OH222465   5.320   1.743  10.727 -0.5098  0.3219  0.1848
  325TIP3    H122466   5.415   1.748  10.733 -0.5382  0.3247  0.6945
  325TIP3    H222467   5.289   1.809  10.789 -0.8418  0.4984 -0.1654
  326TIP3   OH222468   3.437   0.299   1.257  0.1748  0.2478  0.2777
  326TIP3    H122469   3.521   0.264   1.228 -0.2661 -2.8826  2.3066
  326TIP3    H222470   3.456   0.343   1.340 -0.2040 -1.0533  1.0889
  327TIP3   OH222471   3.981   0.790  16.697  0.2138  0.4063  0.6415
  327TIP3    H122472   3.986   0.752  16.784  2.1274 -1.2681 -0.1021
  327TIP3    H222473   3.894   0.768  16.665 -0.8534  1.8293  2.4042
  328TIP3   OH222474   4.670   6.716  11.301  0.2170  0.1328  0.2229
  328TIP3    H122475   4.765   6.709  11.311  0.2165  0.4828  0.4760
  328TIP3    H222476   4.650   6.660  11.226  0.8968  1.7917 -1.2611
  329TIP3   OH222477   0.719   2.219  15.003 -0.3560 -0.7194 -0.6180
  329TIP3    H122478   0.660   2.147  14.978  0.0074 -0.9312 -0.8649
  329TIP3    H222479   0.786   2.177  15.057 -1.9413 -0.0654  2.0897
  330TIP3   OH222480   3.899   6.534  11.393  0.3696 -0.6020 -0.1238
  330TIP3    H122481   3.934   6.457  11.347  0.6297  0.1118 -1.1813
  330TIP3    H222482   3.880   6.503  11.481  1.4596 -1.6178 -0.2161
  331TIP3   OH222483   2.006   1.589   1.489  0.5267 -0.5103  0.0237
  331TIP3    H122484   2.042   1.525   1.428  1.8673  0.7393 -0.5455
  331TIP3    H222485   1.950   1.644   1.435  0.7802 -0.1196  0.1591
  332TIP3   OH222486   2.100   5.573  14.725 -0.2232 -0.2859  0.1232
  332TIP3    H122487   2.106   5.551  14.817  1.2708  2.2561  0.7541
  332TIP3    H222488   2.165   5.517  14.682  0.2642 -0.3315  0.8979
  333TIP3   OH222489   2.768   1.425  14.030  0.3787 -0.1581  0.2215
  333TIP3    H122490   2.805   1.452  14.113 -0.4400  1.6917  0.0256
  333TIP3    H222491   2.839   1.435  13.967 -0.1280  2.7830 -0.0416
  334TIP3   OH222492   6.369   5.030  11.486  0.1849 -1.1174 -0.5023
  334TIP3    H122493   6.385   5.114  11.529  1.2857 -1.2518 -0.6119
  334TIP3    H222494   6.321   4.979  11.551  1.4328 -1.1613  0.4423
  335TIP3   OH222495   0.934   0.289   4.005  0.0912 -0.2084  0.0460
  335TIP3    H122496   0.998   0.219   4.017  0.8276  0.3553 -0.4404
  335TIP3    H222497   0.866   0.250   3.950  0.2336 -0.6934  0.2084
  336TIP3   OH222498   2.677   1.131  11.486  0.4693  0.1992 -0.1244
  336TIP3    H122499   2.771   1.135  11.502  0.6059  0.1981 -0.8963
  336TIP3    H222500   2.642   1.207  11.532  1.0186  0.9449 -0.8976
  337TIP3   OH222501   4.057   2.943   5.988  0.2190  0.0451 -0.1544
  337TIP3    H122502   3.962   2.953   5.982  0.3295  0.5174 -1.9853
  337TIP3    H222503   4.071   2.848   5.988 -0.2788 -0.0538  1.5664
  338TIP3   OH222504   2.815   1.908   5.750 -0.0942 -0.2015 -0.5662
  338TIP3    H122505   2.796   1.817   5.770 -1.4800 -0.1596 -1.5281
  338TIP3    H222506   2.825   1.950   5.836 -2.2760 -0.7189  0.0211
  339TIP3   OH222507   3.883   6.256   2.952 -0.3101  0.0376 -0.3350
  339TIP3    H122508   3.817   6.291   3.012 -0.4382 -1.7860  0.6652
  339TIP3    H222509   3.937   6.198   3.006  1.5601  0.7389 -1.3271
  340TIP3   OH222510   3.165   5.812  12.488  0.2059  0.3867  0.0911
  340TIP3    H122511   3.156   5.728  12.534  1.2517  0.8543  1.2256
  340TIP3    H222512   3.079   5.853  12.495 -0.2126 -0.4337 -0.1520
  341TIP3   OH222513   5.086   1.646   0.144 -0.4162 -0.4378 -0.2903
  341TIP3    H122514   5.077   1.684   0.232 -3.0742  1.2261 -1.1608
  341TIP3    H222515   5.115   1.720   0.089 -0.5521 -0.9939 -1.1307
  342TIP3   OH222516   4.413   4.221   2.504 -0.3624  0.2269 -0.0982
  342TIP3    H122517   4.324   4.256   2.514 -0.2932  0.2838  0.3376
  342TIP3    H222518   4.462   4.293   2.464 -1.1539 -0.7334 -3.1325
  343TIP3   OH222519   1.876   3.178   4.351  0.0146 -0.3055  0.4139
  343TIP3    H122520   1.968   3.185   4.375  0.1759  2.1808 -0.6214
  343TIP3    H222521   1.829   3.220   4.423 -0.0368  0.9473 -0.3125
  344TIP3   OH222522   3.137   2.369   1.243  0.4503 -0.6574  0.7502
  344TIP3    H122523   3.160   2.432   1.311  0.7458 -2.7604  2.7044
  344TIP3    H222524   3.081   2.419   1.183 -0.6703  1.0608  3.0443
  345TIP3   OH222525   0.116   0.051   1.155 -0.3820  0.0842  0.0181
  345TIP3    H122526   0.052   0.119   1.135  1.4895  1.9181 -0.0263
  345TIP3    H222527   0.123   0.000   1.074  0.4675  1.7925 -1.0225
  346TIP3   OH222528   1.480   1.059   1.969 -0.4148  0.3807 -0.0620
  346TIP3    H122529   1.484   1.144   2.011  1.6670  0.3697 -0.1344
  346TIP3    H222530   1.557   1.012   2.001 -0.9234 -1.0889 -0.8500
  347TIP3   OH222531   0.899   2.116  13.677 -0.5754  0.7891  0.3310
  347TIP3    H122532   0.868   2.050  13.739 -0.3616 -1.1077 -1.4686
  347TIP3    H222533   0.822   2.172  13.662 -1.3586 -0.2018  0.4951
  348TIP3   OH222534   4.930   5.082   1.945  0.0899 -0.3648 -0.1470
  348TIP3    H122535   4.999   5.091   2.011  0.9783 -1.5021 -0.8839
  348TIP3    H222536   4.907   5.172   1.922  0.5333  0.0367  0.9235
  349TIP3   OH222537   0.116   5.363   0.900 -0.0198  0.6417 -0.3728
  349TIP3    H122538   0.034   5.362   0.950  0.4143  2.1278  0.4259
  349TIP3    H222539   0.182   5.389   0.964  1.1743 -0.9042 -0.9157
  350TIP3   OH222540   5.758   0.735  14.226 -0.7847  0.2544 -0.1128
  350TIP3    H122541   5.663   0.729  14.217 -1.0518  2.5210  0.5109
  350TIP3    H222542   5.777   0.828  14.214  1.5101 -0.3133 -1.4137
  351TIP3   OH222543   4.982   4.810  17.125  0.0416  0.1127  0.2051
  351TIP3    H122544   4.887   4.804  17.131 -0.1065 -0.2771 -1.9667
  351TIP3    H222545   4.999   4.860  17.046  1.6275 -1.9313 -0.8492
  352TIP3   OH222546   0.329   2.439  11.949  0.0651  0.2348 -0.3683
  352TIP3    H122547   0.238   2.466  11.941  0.1026  0.2820 -0.6263
  352TIP3    H222548   0.330   2.346  11.929 -0.1052 -0.0332  0.7786
  353TIP3   OH222549   5.178   4.182   5.706  0.1430 -0.6578  0.5154
  353TIP3    H122550   5.160   4.088   5.713 -1.4141 -0.4195  0.1222
  353TIP3    H222551   5.251   4.197   5.766  0.4191 -2.1106  0.5822
  354TIP3   OH222552   6.828   2.820  13.231  0.3614  0.0619  0.5637
  354TIP3    H122553   6.820   2.878  13.306  1.8167 -0.7256  1.3790
  354TIP3    H222554   6.740   2.781  13.222 -0.1016  0.9176  1.2158
  355TIP3   OH222555   2.846   0.432   3.541 -0.3651  0.3638  0.3413
  355TIP3    H122556   2.846   0.528   3.543  0.1089  0.3809  2.7465
  355TIP3    H222557   2.819   0.407   3.629  1.3646 -1.6877  0.3610
  356TIP3   OH222558   2.321   2.414  13.375 -0.4216  0.1995  0.1376
  356TIP3    H122559   2.414   2.400  13.392 -0.3362  0.6820  0.0852
  356TIP3    H222560   2.309   2.390  13.283 -0.2078  0.7882 -0.0492
  357TIP3   OH222561   3.064   4.783   2.598 -0.3919 -0.5566  0.1231
  357TIP3    H122562   3.025   4.807   2.683  0.5493  1.7044 -0.0176
  357TIP3    H222563   2.999   4.809   2.534  0.3359  1.1351  0.0110
  358TIP3   OH222564   1.855   3.469   2.269 -0.1260 -0.0873 -0.1121
  358TIP3    H122565   1.865   3.397   2.207 -2.1698 -1.2355  0.8107
  358TIP3    H222566   1.787   3.525   2.231  0.1307  0.3675  0.0817
  359TIP3   OH222567   2.183   2.118   1.134  0.4529 -0.1955  0.0509
  359TIP3    H122568   2.216   2.099   1.046  0.2517  0.1918 -0.1106
  359TIP3    H222569   2.230   2.057   1.191 -0.8517 -1.8048 -0.5533
  360TIP3   OH222570   5.728   1.337   1.046  0.3153 -0.1416 -0.0202
  360TIP3    H122571   5.824   1.346   1.050  0.2053  1.1193  0.2370
  360TIP3    H222572   5.713   1.243   1.041  1.5373 -0.4241  1.0003
  361TIP3   OH222573   2.493   6.782   0.422  0.3888  0.3991  0.1326
  361TIP3    H122574   2.407   6.776   0.380 -0.2040 -1.3641  1.4746
  361TIP3    H222575   2.555   6.787   0.350 -0.8032  1.3292 -0.8713
  362TIP3   OH222576   1.839   3.379  11.513 -0.0457 -0.4028  0.2491
  362TIP3    H122577   1.914   3.354  11.567  1.0262 -1.6835 -1.7232
  362TIP3    H222578   1.878   3.418  11.435 -1.5155  0.2337 -0.1946
  363TIP3   OH222579   1.995   0.962   0.620 -0.2662  0.6524 -0.8210
  363TIP3    H122580   2.007   0.939   0.528 -0.9894  0.0861 -0.7801
  363TIP3    H222581   1.933   1.035   0.618 -1.4828 -0.3605 -0.7083
  364TIP3   OH222582   6.039   2.705   0.728 -0.7729  0.1166  0.5024
  364TIP3    H122583   5.956   2.680   0.688 -0.3854 -1.3537  0.5573
  364TIP3    H222584   6.098   2.631   0.711  1.5816  2.3849 -2.3484
  365TIP3   OH222585   5.125   1.803  11.842  0.3306  0.2431  0.1211
  365TIP3    H122586   5.216   1.824  11.861 -0.3138  1.1001  2.5402
  365TIP3    H222587   5.078   1.885  11.854 -0.6852  0.0679 -2.1237
  366TIP3   OH222588   1.528   6.803  14.773 -0.4705  0.1188  0.6714
  366TIP3    H122589   1.514   6.737  14.706 -0.6949  1.5864 -0.7886
  366TIP3    H222590   1.440   6.825  14.804 -0.3817 -0.3984  1.3161
  367TIP3   OH222591   3.886   3.065   3.766 -0.3691 -0.4004 -0.0589
  367TIP3    H122592   3.815   3.069   3.830  0.0721 -1.2845  0.4984
  367TIP3    H222593   3.844   3.086   3.682 -0.8945  1.0515  0.5419
  368TIP3   OH222594   2.013   3.259  15.683 -0.2922  0.2999  0.6148
  368TIP3    H122595   2.030   3.348  15.654 -1.2371  0.0609 -0.7855
  368TIP3    H222596   2.100   3.220  15.693  0.1132  1.1881  0.6675
  369TIP3   OH222597   1.362   2.307  11.423 -0.0819  0.1586  0.0896
  369TIP3    H122598   1.340   2.365  11.495  0.6753 -0.6815  1.0233
  369TIP3    H222599   1.314   2.342  11.348  1.1917  2.6157  0.3397
  370TIP3   OH222600   2.377   2.156   2.234  0.0244  0.0047 -0.9089
  370TIP3    H122601   2.384   2.081   2.293  0.1327  0.3911 -0.4223
  370TIP3    H222602   2.400   2.121   2.148 -1.9963 -1.0147 -1.1011
  371TIP3   OH222603   3.530   3.619   0.383  0.7182 -0.2881  0.1144
  371TIP3    H122604   3.552   3.625   0.290  1.1639  1.3287  0.2956
  371TIP3    H222605   3.608   3.581   0.424 -0.0651 -2.5191 -0.3432
  372TIP3   OH222606   3.118   4.636  15.445 -0.5631  0.1407 -0.5150
  372TIP3    H122607   3.201   4.665  15.482 -0.6492 -0.8135  0.5159
  372TIP3    H222608   3.135   4.547  15.415 -1.2637 -0.1827 -0.0066
  373TIP3   OH222609   6.840   3.181  14.890  0.7270  0.0151 -0.2190
  373TIP3    H122610   6.785   3.259  14.879 -1.6832 -1.3427  1.1999
  373TIP3    H222611   6.825   3.130  14.811 -0.4206 -0.5078  0.3087
  374TIP3   OH222612   0.873   5.080   2.769 -0.3201 -0.0839  0.3911
  374TIP3    H122613   0.811   5.008   2.776 -0.5404 -0.1099 -1.4626
  374TIP3    H222614   0.903   5.094   2.859 -0.3837 -2.3521  0.8248
  375TIP3   OH222615   3.814   0.487   5.742  0.4435  0.8871 -0.2000
  375TIP3    H122616   3.739   0.546   5.748 -0.0205  0.2402  0.6864
  375TIP3    H222617   3.799   0.422   5.811  3.3003  2.4336  2.1305
  376TIP3   OH222618   6.682   1.699  16.724  0.1313 -0.0367  0.1951
  376TIP3    H122619   6.721   1.688  16.811  0.5132  0.4766  0.0937
  376TIP3    H222620   6.747   1.750  16.675 -0.2104 -0.0742 -0.3001
  377TIP3   OH222621   3.899   3.037  16.952  0.1128 -0.3324 -0.3635
  377TIP3    H122622   3.903   3.074  17.040 -1.0373 -1.1604  0.0586
  377TIP3    H222623   3.987   3.053  16.916 -0.1615  2.3254 -0.0582
  378TIP3   OH222624   0.683   2.243  11.785 -0.3445  0.4382 -0.6047
  378TIP3    H122625   0.638   2.263  11.867 -3.1135  0.6026 -2.0308
  378TIP3    H222626   0.676   2.148  11.776  0.1421  0.3965 -0.5591
  379TIP3   OH222627   2.868   2.588  16.769  0.3037 -0.0325  0.7398
  379TIP3    H122628   2.807   2.544  16.828 -1.3166  0.3718 -0.5675
  379TIP3    H222629   2.825   2.587  16.684  2.4920 -0.4236 -0.4337
  380TIP3   OH222630   4.184   4.763   6.076 -0.9951 -0.0955  0.0692
  380TIP3    H122631   4.241   4.701   6.122  1.2049  0.0739 -2.2512
  380TIP3    H222632   4.200   4.847   6.120 -0.0233 -0.1958 -0.0797
  381TIP3   OH222633   5.879   0.346  13.465 -0.2864  0.2193 -0.3412
  381TIP3    H122634   5.957   0.371  13.514 -0.7886  0.9993  0.1003
  381TIP3    H222635   5.820   0.309  13.531 -0.8623  1.0296 -0.3813
  382TIP3   OH222636   4.645   6.300  12.975  0.2302  0.1296  0.2681
  382TIP3    H122637   4.563   6.253  12.973 -0.5066  1.3737 -0.2514
  382TIP3    H222638   4.710   6.236  13.004 -0.5196 -1.4821 -1.4401
  383TIP3   OH222639   0.772   0.294  12.272  0.3079  0.3744 -0.4202
  383TIP3    H122640   0.790   0.279  12.179 -0.6395 -2.7957 -0.2234
  383TIP3    H222641   0.833   0.237  12.318 -1.0761 -0.2548  0.7339
  384TIP3   OH222642   1.816   0.659  15.974  0.0659  0.0422  0.2867
  384TIP3    H122643   1.728   0.631  15.947  0.3982 -0.2063 -0.5716
  384TIP3    H222644   1.814   0.754  15.966  0.3605 -0.0587 -1.3385
  385TIP3   OH222645   2.061   0.728  13.800  0.4022 -0.2739 -0.5890
  385TIP3    H122646   2.109   0.810  13.789  1.5982 -0.9271 -0.5323
  385TIP3    H222647   1.994   0.729  13.732 -0.2008  1.1401 -0.0022
  386TIP3   OH222648   6.542   5.545  16.769  0.2621  0.0070 -0.2925
  386TIP3    H122649   6.519   5.637  16.778  0.7269  0.3698 -2.3528
  386TIP3    H222650   6.578   5.521  16.855 -1.0227  1.3617  0.6725
  387TIP3   OH222651   5.225   0.763  15.716  0.0350 -0.4566 -0.1688
  387TIP3    H122652   5.295   0.784  15.777 -0.2336  0.9176 -0.2931
  387TIP3    H222653   5.252   0.805  15.634  0.0289 -1.6265 -0.7821
  388TIP3   OH222654   0.695   2.897  11.895  0.1891  0.2794 -0.3501
  388TIP3    H122655   0.687   2.935  11.983 -0.9455 -0.0792 -0.2834
  388TIP3    H222656   0.646   2.957  11.839 -0.4399 -0.3286 -0.4654
  389TIP3   OH222657   0.676   4.576   6.856 -0.8321 -0.2273  0.1792
  389TIP3    H122658   0.633   4.645   6.804 -1.0411 -1.8961 -2.0130
  389TIP3    H222659   0.763   4.612   6.874 -0.1905 -0.0765 -2.6812
  390TIP3   OH222660   5.449   2.470   5.470  0.6322  0.0302  0.2093
  390TIP3    H122661   5.484   2.466   5.559 -1.6945 -0.5022  1.1733
  390TIP3    H222662   5.355   2.454   5.481  0.2028  0.5021 -2.2988
  391TIP3   OH222663   6.081   1.371  13.316 -0.0479 -0.2760 -0.3463
  391TIP3    H122664   6.058   1.304  13.380  1.6033 -1.3337 -0.8183
  391TIP3    H222665   6.029   1.348  13.238 -0.5536 -0.1413 -0.0582
  392TIP3   OH222666   2.040   5.251   4.138  0.5000  0.4128  0.0571
  392TIP3    H122667   2.085   5.177   4.177 -1.5558 -1.0705 -0.2336
  392TIP3    H222668   2.024   5.311   4.212  0.6090 -0.2656  0.6376
  393TIP3   OH222669   2.964   1.034  14.799  0.0142 -0.3845 -0.3592
  393TIP3    H122670   2.947   1.073  14.713  0.3782 -0.3775 -0.4273
  393TIP3    H222671   2.878   1.033  14.842  0.3173  2.7259  0.5792
  394TIP3   OH222672   1.990   1.933  14.925 -0.1239 -0.2117  0.1451
  394TIP3    H122673   2.064   1.886  14.964 -1.1951 -0.9995  1.3390
  394TIP3    H222674   1.955   1.873  14.860  2.3399  1.5384 -3.0587
  395TIP3   OH222675   1.787   1.211   6.124 -0.1855  0.2846 -0.4817
  395TIP3    H122676   1.712   1.155   6.106  0.5341 -0.4165 -1.3616
  395TIP3    H222677   1.754   1.276   6.187 -1.2653 -0.5745 -0.1390
  396TIP3   OH222678   2.872   3.894   5.619  0.1544  0.4314  0.0613
  396TIP3    H122679   2.966   3.890   5.603  0.9271 -1.9739  3.7359
  396TIP3    H222680   2.858   3.980   5.659  0.9581  0.5048  0.2084
  397TIP3   OH222681   4.736   2.687  17.053 -0.6513  0.0409  0.0567
  397TIP3    H122682   4.712   2.601  17.088  0.6122  0.2824  1.5787
  397TIP3    H222683   4.731   2.746  17.128  0.0124  1.0031 -0.6385
  398TIP3   OH222684   5.180   6.810  15.365 -0.1445  0.0098  0.1564
  398TIP3    H122685   5.178   6.874  15.436 -0.5194  1.7432 -1.3360
  398TIP3    H222686   5.089   6.806  15.334  0.1408 -0.1663 -0.6752
  399TIP3   OH222687   6.536   6.356   2.652 -0.8279 -0.2587 -0.5710
  399TIP3    H122688   6.597   6.409   2.702  0.2542  0.6609 -2.7207
  399TIP3    H222689   6.451   6.398   2.666 -0.6334 -0.2655  0.7374
  400TIP3   OH222690   4.882   2.333   5.045  0.8919  0.3885  0.0646
  400TIP3    H122691   4.831   2.342   5.125 -0.2999  2.0463 -0.8296
  400TIP3    H222692   4.970   2.364   5.069  0.4067  1.3906  0.6030
  401TIP3   OH222693   4.372   3.139  12.116  0.6489 -0.5814  0.4824
  401TIP3    H122694   4.297   3.198  12.127  1.4589  0.6178 -0.2054
  401TIP3    H222695   4.338   3.053  12.141 -1.2184 -0.2304 -0.6052
  402TIP3   OH222696   0.626   4.344   0.855 -0.2586  0.5079  0.4295
  402TIP3    H122697   0.645   4.436   0.873 -1.5977  0.6215  1.4057
  402TIP3    H222698   0.710   4.299   0.868  0.5688  1.6485 -0.7286
  403TIP3   OH222699   3.688   0.819  13.020  0.3480 -0.8629 -0.4804
  403TIP3    H122700   3.675   0.728  13.049 -1.2628 -0.4961  0.0495
  403TIP3    H222701   3.687   0.814  12.925 -1.0373 -1.2782 -0.4732
  404TIP3   OH222702   0.136   3.070   5.517  0.3487  0.0039 -0.2755
  404TIP3    H122703   0.089   3.026   5.446  0.0899  0.9766 -0.7249
  404TIP3    H222704   0.078   3.064   5.592  0.4834 -0.7457 -0.2231
  405TIP3   OH222705   1.589   1.954   3.772 -0.8143 -0.0869 -0.2320
  405TIP3    H122706   1.582   2.044   3.805  0.1469  0.2332 -0.8557
  405TIP3    H222707   1.500   1.918   3.782 -1.3064  1.0505 -0.3229
  406TIP3   OH222708   4.592   1.314   3.135  0.0872 -0.3396  0.1086
  406TIP3    H122709   4.584   1.401   3.174 -0.0934 -1.0938  1.8545
  406TIP3    H222710   4.543   1.319   3.052 -0.0991  1.1391  0.2926
  407TIP3   OH222711   6.708   6.278   0.442  0.1869  0.1725 -0.1295
  407TIP3    H122712   6.675   6.330   0.369 -0.0214 -1.2203 -1.0616
  407TIP3    H222713   6.796   6.252   0.414 -0.0203 -0.6360 -0.0286
  408TIP3   OH222714   2.711   3.332  15.266 -0.4514  0.3688  0.1436
  408TIP3    H122715   2.730   3.368  15.353 -0.4589 -0.4161  0.4805
  408TIP3    H222716   2.767   3.254  15.260 -0.2076  0.6025 -0.6904
  409TIP3   OH222717   4.588   2.879  12.256 -0.7430  0.0504  0.3734
  409TIP3    H122718   4.501   2.907  12.285 -0.7505 -1.3436  1.8664
  409TIP3    H222719   4.631   2.850  12.337  1.1317  0.7384 -0.3325
  410TIP3   OH222720   1.659   1.423   2.950  0.4201  0.3552 -0.8111
  410TIP3    H122721   1.605   1.436   3.028  0.2853  0.9252 -0.9942
  410TIP3    H222722   1.718   1.352   2.973  0.6045  0.7373 -0.0661
  411TIP3   OH222723   3.067   0.599  16.049  0.9719  0.0565  0.0984
  411TIP3    H122724   2.982   0.620  16.010 -0.0499  0.6754  2.4786
  411TIP3    H222725   3.050   0.523  16.105  1.9208  0.3454  0.8062
  412TIP3   OH222726   5.051   3.747  11.562 -0.0915 -0.3288 -0.0352
  412TIP3    H122727   5.123   3.692  11.530 -0.5998 -0.6672 -0.6312
  412TIP3    H222728   5.094   3.818  11.609  0.6293 -0.5505 -0.3437
  413TIP3   OH222729   2.727   5.982   1.606  0.8937 -0.1657 -0.4839
  413TIP3    H122730   2.810   5.946   1.638  0.3414 -1.5909 -0.6082
  413TIP3    H222731   2.724   5.958   1.514  1.8863  2.8489 -1.4403
  414TIP3   OH222732   3.846   4.446   5.922  0.2254 -0.0789 -0.3836
  414TIP3    H122733   3.774   4.506   5.937  0.3306  0.1612 -0.8193
  414TIP3    H222734   3.819   4.364   5.963  0.2012  0.3423  0.4535
  415TIP3   OH222735   3.035   6.290  12.821  0.5636 -0.1494  0.1265
  415TIP3    H122736   3.069   6.220  12.766  0.7359  0.2280 -0.2499
  415TIP3    H222737   3.029   6.366  12.763 -1.1870 -0.2687  0.1023
  416TIP3   OH222738   3.624   0.479   2.254  0.4055  0.1182 -0.3617
  416TIP3    H122739   3.634   0.411   2.320 -1.2693 -1.0248 -1.2146
  416TIP3    H222740   3.695   0.541   2.272  0.8766 -0.9110  1.5582
  417TIP3   OH222741   5.940   1.407  16.179  0.7165 -0.1370 -0.2308
  417TIP3    H122742   5.899   1.333  16.223  0.5860 -0.8522 -1.5108
  417TIP3    H222743   5.868   1.448  16.129  0.8602  0.6518  0.1866
  418TIP3   OH222744   1.589   5.674   1.639 -0.5347  0.3639  0.2048
  418TIP3    H122745   1.573   5.643   1.728  0.0236 -0.1529  0.1342
  418TIP3    H222746   1.528   5.624   1.585  2.6291 -3.4236 -0.3912
  419TIP3   OH222747   5.441   1.142  16.936  0.1264 -0.1026  0.2653
  419TIP3    H122748   5.395   1.203  16.993  1.9391  2.0164 -0.3997
  419TIP3    H222749   5.493   1.197  16.878  1.8957 -2.2825 -0.3826
  420TIP3   OH222750   1.271   5.410  16.482 -0.5327  0.2109  0.1834
  420TIP3    H122751   1.354   5.382  16.441 -0.9025  0.2716 -0.6324
  420TIP3    H222752   1.298   5.450  16.564  0.3877  1.4834 -0.6890
  421TIP3   OH222753   4.800   0.758  11.495  0.1381 -0.3698  0.0854
  421TIP3    H122754   4.749   0.828  11.455  2.6636  0.5425 -1.8420
  421TIP3    H222755   4.738   0.710  11.550 -2.2475  1.8160 -0.5457
  422TIP3   OH222756   0.544   0.360   2.570 -0.3533  0.2013  0.1477
  422TIP3    H122757   0.564   0.454   2.574  1.7447 -0.0567 -1.8167
  422TIP3    H222758   0.607   0.320   2.630 -1.0403 -0.0057  0.7475
  423TIP3   OH222759   6.697   3.231   0.808 -0.0331  0.3671 -0.1694
  423TIP3    H122760   6.736   3.277   0.882  2.3552 -0.0075 -1.0810
  423TIP3    H222761   6.604   3.252   0.812  0.1871  1.1246  2.3430
  424TIP3   OH222762   4.586   4.540  11.472  0.5740  0.0230  0.4233
  424TIP3    H122763   4.572   4.561  11.379 -0.5591 -0.0302  0.5729
  424TIP3    H222764   4.598   4.445  11.474  1.3951  0.1176  0.2463
  425TIP3   OH222765   5.551   2.474   3.272 -0.2219  0.4204 -0.1503
  425TIP3    H122766   5.561   2.380   3.254  0.5195  0.6301 -0.8890
  425TIP3    H222767   5.456   2.488   3.275 -0.3421 -0.2887 -0.3750
  426TIP3   OH222768   6.064   2.907   3.033 -0.5673  0.0095  0.1355
  426TIP3    H122769   6.098   2.921   2.945 -0.2354 -0.6648  0.1456
  426TIP3    H222770   6.058   2.811   3.041 -1.9831  0.0941  0.3226
  427TIP3   OH222771   3.633   1.130   2.046  0.0490 -0.1797  0.1642
  427TIP3    H122772   3.647   1.177   1.964 -1.2878  0.0747  0.0629
  427TIP3    H222773   3.633   1.199   2.113  1.0270 -0.3736  0.3747
  428TIP3   OH222774   3.116   1.718   5.076  0.2939  0.2053  0.0157
  428TIP3    H122775   3.105   1.800   5.125  1.0335  0.6844 -0.5909
  428TIP3    H222776   3.138   1.653   5.143 -0.2820  0.5031  0.5021
  429TIP3   OH222777   5.633   0.978  17.048 -0.0658  0.0813 -0.1706
  429TIP3    H122778   5.567   1.038  17.013 -2.3254 -1.8927  0.4849
  429TIP3    H222779   5.618   0.979  17.143  1.8021  0.6126  0.1600
  430TIP3   OH222780   4.326   0.008  16.617 -0.0525 -0.3119  0.4291
  430TIP3    H122781   4.419   0.022  16.636  0.0691  0.3156 -0.6085
  430TIP3    H222782   4.323  -0.008  16.523 -0.7537 -2.5456  0.7571
  431TIP3   OH222783   3.013   6.516   1.395 -0.3017  0.3400 -0.3782
  431TIP3    H122784   2.965   6.590   1.431 -0.2210 -0.3312  1.1911
  431TIP3    H222785   3.054   6.550   1.315 -0.9130  1.7494 -0.1165
  432TIP3   OH222786   4.886   0.922   0.428  0.0270  0.1340  0.2639
  432TIP3    H122787   4.862   0.961   0.512 -1.0463  0.5295 -0.2056
  432TIP3    H222788   4.922   0.995   0.376  0.1986  0.0009  0.1925
  433TIP3   OH222789   4.484   2.516   1.839 -0.0799  0.2281 -0.3270
  433TIP3    H122790   4.551   2.524   1.771  1.4943  1.4265  1.3137
  433TIP3    H222791   4.412   2.572   1.808  0.9849  1.4858 -0.5928
  434TIP3   OH222792   5.145   6.567  15.572  0.2696 -0.2892  0.1967
  434TIP3    H122793   5.159   6.651  15.617  0.9769 -0.0271 -0.5012
  434TIP3    H222794   5.214   6.562  15.507 -0.9136 -0.5245 -1.0920
  435TIP3   OH222795   3.399   4.916  11.570 -0.0776 -0.3644  0.1592
  435TIP3    H122796   3.328   4.863  11.606  0.4461 -0.9323  0.3608
  435TIP3    H222797   3.382   5.004  11.603 -0.3353 -0.6223  0.7248
  436TIP3   OH222798   1.700   4.383   6.462  0.6106 -0.7649  0.1876
  436TIP3    H122799   1.788   4.408   6.489 -0.0785  0.0256  1.8112
  436TIP3    H222800   1.665   4.334   6.536 -1.3179  1.3970  0.8223
  437TIP3   OH222801   5.180   5.754   1.478 -0.0352  0.1880  0.0696
  437TIP3    H122802   5.202   5.812   1.404  0.3201 -0.3108 -0.2168
  437TIP3    H222803   5.248   5.771   1.543 -0.0398  0.2272  0.0642
  438TIP3   OH222804   3.557   4.821   0.606 -0.3159 -0.0298  0.5182
  438TIP3    H122805   3.601   4.753   0.658 -0.2930 -0.2994  0.1482
  438TIP3    H222806   3.553   4.785   0.518  0.8118  0.9556  0.0405
  439TIP3   OH222807   2.248   1.322   5.182 -0.2827  0.6009  0.3229
  439TIP3    H122808   2.310   1.331   5.255  1.0847  1.7126 -0.9248
  439TIP3    H222809   2.278   1.385   5.117 -1.9635  0.2128 -0.8852
  440TIP3   OH222810   5.878   5.453   0.146  0.2770  0.1679  0.3905
  440TIP3    H122811   5.885   5.445   0.051  0.7332 -2.0284  0.5645
  440TIP3    H222812   5.855   5.365   0.176 -0.8690  1.0419  2.2473
  441TIP3   OH222813   5.120   4.695   3.953 -0.3448  0.0506  0.5053
  441TIP3    H122814   5.145   4.640   4.028 -0.3207  1.8393  1.9004
  441TIP3    H222815   5.087   4.775   3.993 -1.5228  0.5878 -1.4312
  442TIP3   OH222816   6.741   4.540   3.391 -0.1758 -0.3179 -0.2665
  442TIP3    H122817   6.657   4.554   3.347  0.5273  2.5457 -0.8824
  442TIP3    H222818   6.749   4.615   3.450  0.7693 -1.9592  1.8151
  443TIP3   OH222819   1.729   5.525   4.415 -0.0399  0.2784 -0.0546
  443TIP3    H122820   1.738   5.603   4.360 -0.3548  1.5963  1.6643
  443TIP3    H222821   1.635   5.506   4.414 -0.2237  1.0455  0.9439
  444TIP3   OH222822   1.069   4.349   4.651 -0.1252  0.1251 -0.0368
  444TIP3    H122823   1.072   4.268   4.702  2.3178  0.3380  0.2914
  444TIP3    H222824   1.004   4.403   4.696  0.3413 -0.5577  1.5461
  445TIP3   OH222825   6.739   1.464   3.325  0.0877 -0.4934  0.1730
  445TIP3    H122826   6.659   1.446   3.276  0.2944  1.0538 -0.8093
  445TIP3    H222827   6.744   1.559   3.329  1.1139 -0.5703  1.5292
  446TIP3   OH222828   0.317   0.439   5.464  0.5279  0.1199  0.4437
  446TIP3    H122829   0.382   0.387   5.512  0.1831  0.3640  1.2056
  446TIP3    H222830   0.355   0.527   5.461  1.0303 -0.1287 -0.6851
  447TIP3   OH222831   4.313   0.158   6.224 -0.4234 -0.4589 -0.2141
  447TIP3    H122832   4.395   0.195   6.192  0.5139 -0.4095  2.0572
  447TIP3    H222833   4.339   0.076   6.267 -1.0151  0.9261  3.0793
  448TIP3   OH222834   5.365   6.418   4.862 -0.1805  0.4424 -0.0806
  448TIP3    H122835   5.276   6.448   4.883  0.1469  0.4485  1.4226
  448TIP3    H222836   5.422   6.479   4.909  0.5654 -0.5982  0.4027
  449TIP3   OH222837   0.544   2.653  12.533  0.0495  0.5723  0.6618
  449TIP3    H122838   0.471   2.600  12.566 -1.7805  2.0872 -0.7848
  449TIP3    H222839   0.594   2.593  12.478  1.4429 -1.1686  3.5540
  450TIP3   OH222840   3.164   2.605  12.620 -0.1003  0.1175 -0.3440
  450TIP3    H122841   3.104   2.646  12.682  0.5084 -0.4975  0.6810
  450TIP3    H222842   3.123   2.618  12.534 -1.8034 -0.4384  0.3418
  451TIP3   OH222843   6.411   4.955   2.771 -0.3044  0.2780 -0.1737
  451TIP3    H122844   6.396   5.049   2.783 -0.4132  0.4023 -1.2351
  451TIP3    H222845   6.506   4.945   2.776 -0.3372  0.3186  0.7390
  452TIP3   OH222846   2.726   2.601  14.746 -0.0994  0.3018  0.3702
  452TIP3    H122847   2.728   2.679  14.691 -2.0975  0.9483  1.1109
  452TIP3    H222848   2.633   2.576  14.749 -0.0157  0.0434  3.0275
  453TIP3   OH222849   6.232   6.293  16.703 -0.0326  0.1103 -0.7337
  453TIP3    H122850   6.145   6.270  16.669 -0.3339 -0.3514  0.3276
  453TIP3    H222851   6.251   6.226  16.768  0.3770  1.1800  0.2700
  454TIP3   OH222852   4.476   5.947  15.979 -0.1859 -0.2684  0.1431
  454TIP3    H122853   4.500   6.040  15.979  0.3008 -0.3882  0.7867
  454TIP3    H222854   4.545   5.904  16.030 -2.5214 -0.4283  3.5221
  455TIP3   OH222855   1.888   5.807  11.052 -0.0325 -0.1413  0.6135
  455TIP3    H122856   1.974   5.800  11.009  0.4683  2.4505  0.9890
  455TIP3    H222857   1.844   5.724  11.032  1.9393 -0.9011 -0.9592
  456TIP3   OH222858   1.427   0.514  10.640 -0.4003 -0.2659 -0.0740
  456TIP3    H122859   1.465   0.427  10.633 -1.0187 -0.6089  0.6363
  456TIP3    H222860   1.338   0.504  10.606 -0.1300  0.3469 -0.9997
  457TIP3   OH222861   6.046   3.926   3.101 -0.5519 -0.1985  0.5461
  457TIP3    H122862   6.070   3.917   3.009 -1.0214 -1.4224  0.5158
  457TIP3    H222863   6.127   3.909   3.149 -0.0241  1.6522  0.3580
  458TIP3   OH222864   2.081   0.544   2.999  0.0977  0.2346  0.1783
  458TIP3    H122865   2.169   0.528   2.967  0.0267 -0.5262  0.3600
  458TIP3    H222866   2.093   0.568   3.091  0.1079  0.1174  0.2065
  459TIP3   OH222867   3.794   2.826  14.152 -0.2920  0.4550  0.1356
  459TIP3    H122868   3.706   2.864  14.160 -0.6757  0.1273 -1.9191
  459TIP3    H222869   3.780   2.744  14.106  1.1809  0.8516 -1.0763
  460TIP3   OH222870   0.647   6.175   2.100 -0.2251 -0.0276 -0.7728
  460TIP3    H122871   0.731   6.159   2.142 -0.6589  0.6092  0.3948
  460TIP3    H222872   0.664   6.166   2.007  1.4715  1.4616 -0.6704
  461TIP3   OH222873   3.174   5.108   5.006 -0.3971  0.4681  0.5045
  461TIP3    H122874   3.195   5.127   4.915  0.4373 -1.3829  0.2493
  461TIP3    H222875   3.098   5.050   5.002 -0.4213  0.4593  0.9815
  462TIP3   OH222876   2.475   5.598   1.984 -0.1936 -0.1732 -0.2895
  462TIP3    H122877   2.504   5.580   1.895 -0.1132  1.0624 -0.5285
  462TIP3    H222878   2.508   5.686   2.003 -0.5318 -0.2698  0.8200
  463TIP3   OH222879   4.169   3.891  12.658 -0.3284  0.6748  0.3179
  463TIP3    H122880   4.228   3.894  12.583 -0.9107 -1.0000 -0.2502
  463TIP3    H222881   4.225   3.903  12.734  0.4252  1.2681 -0.3143
  464TIP3   OH222882   6.272   3.283   5.396  0.1437  0.1200 -0.2105
  464TIP3    H122883   6.302   3.369   5.366  0.8456  0.8359  2.2920
  464TIP3    H222884   6.347   3.225   5.379  0.5774  0.5352  0.2384
  465TIP3   OH222885   1.185   0.285   4.209 -1.1284  0.5922 -0.3663
  465TIP3    H122886   1.228   0.234   4.276  0.0552  0.4991 -1.1730
  465TIP3    H222887   1.216   0.249   4.126 -0.9711  2.0018 -0.9610
  466TIP3   OH222888   6.348   1.640   3.821 -0.2048 -0.1196 -0.5634
  466TIP3    H122889   6.277   1.575   3.818  0.1097 -0.6570  1.6423
  466TIP3    H222890   6.427   1.590   3.804 -0.0034 -0.2704  0.7350
  467TIP3   OH222891   0.327   1.898  12.919 -0.2534 -0.0623 -0.2690
  467TIP3    H122892   0.301   1.957  12.848 -1.0464 -1.3271 -1.0680
  467TIP3    H222893   0.250   1.843  12.934 -0.7015  1.1728  2.6916
  468TIP3   OH222894   6.257   4.143   1.539  0.4382  0.7823 -0.8387
  468TIP3    H122895   6.231   4.167   1.451  3.0349  1.2450 -1.5512
  468TIP3    H222896   6.351   4.157   1.542  0.7571 -1.0598  1.4148
  469TIP3   OH222897   6.228   4.025  16.363  0.0109  1.0890  0.2200
  469TIP3    H122898   6.143   4.043  16.402  0.7862 -0.1793  2.7811
  469TIP3    H222899   6.279   4.105  16.377  0.5189  0.4120  2.7791
  470TIP3   OH222900   4.909   3.556  11.657 -0.1868  0.6055  0.3405
  470TIP3    H122901   4.874   3.580  11.743 -1.2952  0.8865 -0.1598
  470TIP3    H222902   4.929   3.640  11.615 -1.0730  0.5459 -0.2282
  471TIP3   OH222903   2.176   1.274  10.519 -0.1044  0.3961 -0.6885
  471TIP3    H122904   2.120   1.223  10.461  0.0697  1.2513 -1.6280
  471TIP3    H222905   2.263   1.237  10.506 -0.1616  0.2069 -0.5360
  472TIP3   OH222906   5.943   4.783  16.182 -0.1218  0.5118  0.5460
  472TIP3    H122907   5.904   4.834  16.254  0.3573  3.0208 -0.8669
  472TIP3    H222908   6.027   4.826  16.165  0.0523 -0.4214 -1.0870
  473TIP3   OH222909   1.982   0.127   2.844  0.5425 -0.3925 -0.2053
  473TIP3    H122910   1.990   0.215   2.809 -1.5116 -0.6622 -1.4964
  473TIP3    H222911   1.948   0.139   2.933 -1.7851  0.1420 -1.0893
  474TIP3   OH222912   4.936   0.740  16.399 -0.2429 -0.0457  0.5673
  474TIP3    H122913   4.919   0.782  16.315 -0.1462 -0.3558  0.3891
  474TIP3    H222914   4.928   0.810  16.464  0.0365  0.2717  0.2628
  475TIP3   OH222915   4.382   5.816  16.906 -0.1769  0.2336  0.4126
  475TIP3    H122916   4.453   5.876  16.929 -0.4330  0.4441  0.6657
  475TIP3    H222917   4.326   5.816  16.984  1.2790 -2.5317  1.6303
  476TIP3   OH222918   5.661   1.202   5.700  0.7367 -0.1240 -0.4428
  476TIP3    H122919   5.672   1.275   5.640 -0.4360 -1.5529 -2.5556
  476TIP3    H222920   5.591   1.229   5.759  1.7451  1.2181  0.1775
  477TIP3   OH222921   6.377   1.154   1.030 -0.8860  0.1869  0.0509
  477TIP3    H122922   6.325   1.122   1.104  1.5102 -3.1373  0.5198
  477TIP3    H222923   6.457   1.188   1.070 -0.5875  0.6608 -0.9151
  478TIP3   OH222924   0.002   5.823   4.276 -0.1063  0.0043 -0.0167
  478TIP3    H122925   0.076   5.833   4.217 -0.4707  0.5817 -0.3941
  478TIP3    H222926   0.034   5.766   4.346  0.0605 -1.4322 -1.2201
  479TIP3   OH222927   2.739   5.113   4.586 -0.4898  0.2134 -0.1067
  479TIP3    H122928   2.775   5.200   4.602 -0.5644  0.0730  0.8327
  479TIP3    H222929   2.725   5.076   4.673  0.1985 -1.0159 -0.5000
  480TIP3   OH222930   4.519   3.198   3.628  0.2894  0.1959 -0.1277
  480TIP3    H122931   4.454   3.213   3.696  0.8349  0.1729  0.3986
  480TIP3    H222932   4.595   3.164   3.674  1.5315  2.3904 -0.4286
  481TIP3   OH222933   0.510   4.462  14.807 -0.0520  0.0807  0.2198
  481TIP3    H122934   0.603   4.485  14.802  0.4165 -1.8787 -3.0166
  481TIP3    H222935   0.509   4.371  14.835 -1.0691  0.2490  0.7791
  482TIP3   OH222936   2.458   6.271   0.835 -0.5708 -0.3505 -0.1996
  482TIP3    H122937   2.403   6.261   0.757  0.6015 -1.4677 -0.9311
  482TIP3    H222938   2.496   6.358   0.827 -1.2181 -0.0755 -0.3558
  483TIP3   OH222939   3.331   3.862  14.434  0.1327  0.1949 -0.3083
  483TIP3    H122940   3.259   3.920  14.458 -1.8450 -1.8460 -0.9295
  483TIP3    H222941   3.339   3.802  14.508 -0.9406 -1.4789 -1.4796
  484TIP3   OH222942   5.405   4.672  15.932  0.0881 -0.1720  0.1428
  484TIP3    H122943   5.447   4.739  15.986  0.1588 -0.8753  0.9813
  484TIP3    H222944   5.468   4.654  15.862 -0.9441  2.3923 -1.5782
  485TIP3   OH222945   2.916   0.034   5.370 -0.4061  0.4004 -0.2744
  485TIP3    H122946   2.896   0.096   5.440 -0.2445 -1.9276  1.9785
  485TIP3    H222947   3.006   0.054   5.345  0.6837 -0.6099  2.4407
  486TIP3   OH222948   1.881   1.232   4.577  0.4214 -0.2559 -0.2399
  486TIP3    H122949   1.903   1.256   4.487 -0.4891 -1.1257 -0.7142
  486TIP3    H222950   1.939   1.158   4.596 -0.0232 -0.6632 -0.4479
  487TIP3   OH222951   5.460   1.115   3.447  0.2096  0.5493  0.0705
  487TIP3    H122952   5.371   1.149   3.436  0.1501  0.1852 -0.6155
  487TIP3    H222953   5.474   1.117   3.541 -0.6089  0.4150  0.2069
  488TIP3   OH222954   5.578   5.924  16.867 -0.0025 -0.0579 -0.0159
  488TIP3    H122955   5.537   5.850  16.912  1.1859 -0.4873  0.3804
  488TIP3    H222956   5.549   6.001  16.917  0.3905 -0.4353  0.8100
  489TIP3   OH222957   1.277   0.139   5.417 -0.1748 -0.4227  0.0982
  489TIP3    H122958   1.350   0.092   5.377 -0.7616 -0.5680 -0.8507
  489TIP3    H222959   1.200   0.104   5.372 -0.7512  0.3466  0.4719
  490TIP3   OH222960   4.751   0.842  17.104 -0.0714 -0.0973  0.0989
  490TIP3    H122961   4.769   0.763  17.155  0.7297  0.4766  0.7295
  490TIP3    H222962   4.656   0.846  17.100 -0.2154  0.4984  2.6382
  491TIP3   OH222963   6.638   0.540   1.136  0.2180 -0.6334  0.3775
  491TIP3    H122964   6.589   0.561   1.216 -0.6893  0.4476 -0.4202
  491TIP3    H222965   6.730   0.550   1.160 -0.0681  0.6319  1.0534
  492TIP3   OH222966   3.021   1.298  12.834  0.1534  0.0543 -0.3261
  492TIP3    H122967   3.102   1.283  12.786  0.2184  1.7347 -0.8292
  492TIP3    H222968   2.968   1.220  12.819  2.3167 -1.9176  1.5061
  493TIP3   OH222969   3.269   0.800  14.060  0.2614 -0.5435 -0.4398
  493TIP3    H122970   3.354   0.825  14.024  1.0078 -0.7222  1.1007
  493TIP3    H222971   3.222   0.883  14.070  2.0105  0.2375  2.8743
  494TIP3   OH222972   3.638   5.782  15.260  0.0671 -0.1986 -0.1288
  494TIP3    H122973   3.645   5.785  15.356  1.1437  0.2629 -0.2123
  494TIP3    H222974   3.699   5.714  15.234  0.3137  0.1758 -0.5357
  495TIP3   OH222975   4.514   6.145  16.377  0.0473  0.2207 -0.6937
  495TIP3    H122976   4.563   6.113  16.302 -0.3878  0.3990 -1.0559
  495TIP3    H222977   4.477   6.065  16.417  0.9335  0.0446 -0.1892
  496TIP3   OH222978   0.580   1.764  16.248 -0.2673  0.0435  0.6220
  496TIP3    H122979   0.530   1.820  16.309 -0.5197 -0.2834  0.7183
  496TIP3    H222980   0.586   1.816  16.168  1.4836  1.1808  1.4238
  497TIP3   OH222981   4.947   6.172   2.603 -0.4300 -0.1094 -0.2479
  497TIP3    H122982   4.985   6.163   2.516  0.2322 -0.0423  0.0266
  497TIP3    H222983   4.979   6.096   2.651 -0.9633 -0.2587 -0.1186
  498TIP3   OH222984   3.592   4.969   0.344  0.8779 -0.1544  0.1952
  498TIP3    H122985   3.505   4.975   0.303  1.0068 -1.5966 -0.3415
  498TIP3    H222986   3.628   5.057   0.335  0.1393  0.0445 -1.1022
  499TIP3   OH222987   5.496   5.069   4.227  0.3186  0.1969 -0.5202
  499TIP3    H122988   5.567   5.092   4.167  1.2104 -0.2389  0.3459
  499TIP3    H222989   5.500   4.974   4.233  0.7962  0.2864  0.8696
  500TIP3   OH222990   0.686   4.980  14.090  0.4595  0.7124 -0.3406
  500TIP3    H122991   0.705   5.061  14.043 -1.5642  0.8594 -1.0075
  500TIP3    H222992   0.621   5.006  14.156 -1.0893 -0.5376 -1.3205
  501TIP3   OH222993   3.683   2.608  14.019  0.2575  0.0928  0.6012
  501TIP3    H122994   3.652   2.576  13.934  0.4281  1.5592 -0.0466
  501TIP3    H222995   3.603   2.631  14.067  0.2001  0.3387  0.3873
  502TIP3   OH222996   0.274   1.627  12.741 -0.0546  0.5694  0.0624
  502TIP3    H122997   0.197   1.652  12.793 -0.0555 -0.1324  0.4091
  502TIP3    H222998   0.240   1.567  12.675  0.4427 -1.1634  1.3150
  503TIP3   OH222999   2.756   2.556   4.615  0.0693 -0.1364  0.1005
  503TIP3    H123000   2.788   2.466   4.608 -2.6222 -1.0790 -3.5222
  503TIP3    H223001   2.805   2.604   4.548 -0.2233  0.4753  0.3164
  504TIP3   OH223002   5.681   3.181  11.891 -0.2326  0.6032 -0.7764
  504TIP3    H123003   5.692   3.275  11.902 -1.2784  0.8909 -1.9207
  504TIP3    H223004   5.674   3.169  11.796 -0.1603 -0.6197 -0.6411
  505TIP3   OH223005   0.272   4.605  14.791 -1.2309 -0.2527 -0.1631
  505TIP3    H123006   0.316   4.689  14.806 -2.8134  0.1532  3.1773
  505TIP3    H223007   0.341   4.540  14.800 -0.5043  0.5686  0.3695
  506TIP3   OH223008   0.811   3.233   0.718 -1.1244 -0.0867  0.1814
  506TIP3    H123009   0.761   3.312   0.742  0.0717  1.5507 -2.2756
  506TIP3    H223010   0.858   3.258   0.638  1.7121 -2.3266  0.9776
  507TIP3   OH223011   0.966   6.139   3.968  0.5146  0.7124 -0.8429
  507TIP3    H123012   0.966   6.043   3.964  1.4623  0.5905  0.9620
  507TIP3    H223013   0.904   6.166   3.901 -0.1863 -1.1904 -1.0223
  508TIP3   OH223014   0.763   3.752  17.003 -0.1647  1.0464  0.1295
  508TIP3    H123015   0.808   3.745  16.919 -1.1582  2.4134 -0.5442
  508TIP3    H223016   0.682   3.800  16.983 -2.9874 -2.8738  0.8696
  509TIP3   OH223017   3.631   6.799  13.104  0.1167 -0.3927 -0.3535
  509TIP3    H123018   3.648   6.866  13.038 -0.6225  1.5314  1.2940
  509TIP3    H223019   3.541   6.817  13.133  1.2984  0.7549  3.1271
  510TIP3   OH223020   1.065   5.722  11.100  0.1275 -0.0838 -0.1542
  510TIP3    H123021   1.016   5.804  11.096  0.7103  0.2892  0.2697
  510TIP3    H223022   1.157   5.748  11.107  0.4030 -0.7776 -1.0389
  511TIP3   OH223023   3.259   4.364  13.843  0.2989  0.1476  0.5823
  511TIP3    H123024   3.310   4.443  13.825  1.8492 -0.4972  1.8395
  511TIP3    H223025   3.264   4.313  13.762 -1.0679  1.4699 -0.3880
  512TIP3   OH223026   1.336   6.604  11.900  0.4606  0.4582  0.1255
  512TIP3    H123027   1.276   6.557  11.842  1.7239 -0.4916 -0.4601
  512TIP3    H223028   1.323   6.563  11.986 -0.8774  1.3593  0.3653
  513TIP3   OH223029   3.542   4.556   1.201 -0.0751  0.0682 -0.1702
  513TIP3    H123030   3.577   4.513   1.123 -0.3257 -0.1793 -0.1462
  513TIP3    H223031   3.488   4.490   1.243 -1.4904  0.7675 -0.8043
  514TIP3   OH223032   5.269   6.007  16.828 -0.2421 -0.1061  0.2677
  514TIP3    H123033   5.360   5.997  16.856 -0.4292  0.8704  1.2638
  514TIP3    H223034   5.237   6.083  16.876 -1.8832 -1.0155  0.6978
  515TIP3   OH223035   0.154   5.115  16.481  0.4864 -0.1176 -0.2222
  515TIP3    H123036   0.193   5.062  16.411  1.7245 -0.1993  0.5067
  515TIP3    H223037   0.095   5.055  16.526  2.3998 -1.1341  1.0338
  516TIP3   OH223038   1.543   3.430   0.447  0.0331  0.5956 -0.4105
  516TIP3    H123039   1.554   3.347   0.494 -1.2775  2.4085  3.4862
  516TIP3    H223040   1.448   3.442   0.443  0.2142  2.1133 -0.4538
  517TIP3   OH223041   5.771   3.222   0.111  0.2179 -0.0323 -0.2994
  517TIP3    H123042   5.763   3.280   0.035 -2.9874 -0.2825 -0.2867
  517TIP3    H223043   5.800   3.279   0.182  1.0323  0.6754 -1.1658
  518TIP3   OH223044   0.114   5.077  11.481 -0.7224  0.6036  0.0632
  518TIP3    H123045   0.031   5.059  11.438 -1.0602 -2.3124  1.6979
  518TIP3    H223046   0.125   5.005  11.544  2.4044  1.5996  0.8363
  519TIP3   OH223047   5.240   1.819   4.697  0.3201  0.1156  0.2691
  519TIP3    H123048   5.250   1.900   4.746 -0.7309  0.1486  0.4543
  519TIP3    H223049   5.156   1.784   4.726  0.1466 -0.3709 -0.7726
  520TIP3   OH223050   1.400   3.756   1.505  0.5179 -0.2589 -0.2269
  520TIP3    H123051   1.492   3.742   1.527  0.6925  2.0595  0.8443
  520TIP3    H223052   1.401   3.823   1.437 -0.3731  0.5053  0.4759
  521TIP3   OH223053   6.330   1.511  17.093 -0.5906  0.3811  0.1411
  521TIP3    H123054   6.236   1.498  17.110 -0.7671 -1.2898 -1.7133
  521TIP3    H223055   6.332   1.555  17.008  0.3372  2.0481  0.9701
  522TIP3   OH223056   0.550   5.211  13.256  0.5173  0.4289  0.3108
  522TIP3    H123057   0.560   5.118  13.236  2.5006  0.9056 -1.2724
  522TIP3    H223058   0.640   5.245  13.255 -0.1380  2.3156  1.1674
  523TIP3   OH223059   3.139   0.075   5.228 -0.1256 -0.1337  0.1036
  523TIP3    H123060   3.130  -0.021   5.228 -1.4672 -0.0661  1.3643
  523TIP3    H223061   3.231   0.091   5.208  0.5858 -1.7829  1.7197
  524TIP3   OH223062   2.290   4.826   3.051 -0.1437  0.1473  0.1317
  524TIP3    H123063   2.261   4.752   2.997 -0.5117 -0.3191  0.9617
  524TIP3    H223064   2.276   4.798   3.141 -0.2276  1.2102  0.4631
  525TIP3   OH223065   3.336   1.291   5.398  0.2531 -0.3214 -0.7817
  525TIP3    H123066   3.353   1.254   5.312  3.4398  1.5907 -1.1272
  525TIP3    H223067   3.417   1.277   5.447 -0.5268  0.9711  0.9974
  526TIP3   OH223068   2.053   5.331   3.149 -0.0910  0.5061 -0.2586
  526TIP3    H123069   2.089   5.334   3.060  3.8958  0.9494  1.1549
  526TIP3    H223070   1.999   5.252   3.151 -0.2791  0.4839 -3.0372
  527TIP3   OH223071   3.473   2.031  14.930  0.2363  0.0813 -0.6077
  527TIP3    H123072   3.428   2.005  15.011 -0.0477 -0.5672 -0.9609
  527TIP3    H223073   3.456   2.125  14.923  0.8664  0.2919  0.4508
  528TIP3   OH223074   5.870   4.288   5.952  0.3555  0.1757  0.1938
  528TIP3    H123075   5.812   4.311   6.025 -0.6520 -1.3052 -0.0868
  528TIP3    H223076   5.957   4.316   5.981 -0.0219 -0.3232  1.9639
  529TIP3   OH223077   1.629   5.431   6.128 -0.4678  0.6291 -0.8384
  529TIP3    H123078   1.670   5.463   6.047 -0.1165 -0.6639 -1.2047
  529TIP3    H223079   1.547   5.391   6.099 -1.2292  1.7517 -0.3077
  530TIP3   OH223080   4.921   3.923   5.560 -0.2381 -0.0703 -0.0712
  530TIP3    H123081   5.006   3.924   5.602 -0.5047 -0.0328  0.4730
  530TIP3    H223082   4.861   3.889   5.626 -0.6631 -0.0166 -0.4173
  531TIP3   OH223083   1.694   5.062   0.139 -0.3799  0.0762  0.2070
  531TIP3    H123084   1.772   5.081   0.087 -0.5723 -0.1954 -0.1887
  531TIP3    H223085   1.714   4.979   0.183  0.2726  0.9191  1.5584
  532TIP3   OH223086   0.809   4.016  16.830 -0.0322  0.0731  0.1933
  532TIP3    H123087   0.744   4.025  16.901 -0.3714  0.8854 -0.2066
  532TIP3    H223088   0.880   3.966  16.869 -1.7662 -2.7052  0.0627
  533TIP3   OH223089   2.532   1.442  15.487 -0.7466  0.4886  0.1069
  533TIP3    H123090   2.471   1.371  15.508  1.2358 -1.3914 -0.0550
  533TIP3    H223091   2.549   1.432  15.394  1.1797 -0.2541  0.4952
  534TIP3   OH223092   5.585   1.574  13.173  0.0699  0.8683 -0.2798
  534TIP3    H123093   5.571   1.645  13.236 -0.5412 -0.4628  1.1518
  534TIP3    H223094   5.500   1.532  13.165  0.3208  0.5427 -1.4479
  535TIP3   OH223095   0.354   1.912   4.331 -0.2492 -0.2020 -0.5324
  535TIP3    H123096   0.356   1.974   4.404  3.0022 -1.4130  0.5836
  535TIP3    H223097   0.273   1.863   4.344 -0.7628  0.9548  1.0556
  536TIP3   OH223098   4.317   4.337  16.797 -0.2472  0.2919  0.1696
  536TIP3    H123099   4.234   4.384  16.809 -0.2307  0.4056 -0.1408
  536TIP3    H223100   4.322   4.277  16.871 -0.5884  0.3130  0.2118
  537TIP3   OH223101   0.252   6.498  16.769  0.6735  0.2271  0.3314
  537TIP3    H123102   0.283   6.585  16.791  2.6759 -0.3045 -0.2219
  537TIP3    H223103   0.308   6.469  16.697  0.5151 -1.7697  0.9371
  538TIP3   OH223104   6.686   5.823  15.907 -0.4032  0.1108 -0.0192
  538TIP3    H123105   6.633   5.897  15.879  0.4666  0.4706 -0.7563
  538TIP3    H223106   6.776   5.848  15.884  0.0761 -0.5406  1.0623
  539TIP3   OH223107   0.653   4.225   5.690  0.9894  0.9272  0.1492
  539TIP3    H123108   0.708   4.147   5.705 -1.9945 -1.1902  1.0479
  539TIP3    H223109   0.627   4.253   5.777  2.4346  3.3917 -0.1298
  540TIP3   OH223110   6.337   1.048  14.456  0.8347 -0.2694  0.0276
  540TIP3    H123111   6.330   0.954  14.436 -1.1640  0.1391 -1.5209
  540TIP3    H223112   6.368   1.087  14.374  2.9546  0.3465  1.0405
  541TIP3   OH223113   0.803   0.467  13.754  0.0585 -0.2841  0.2164
  541TIP3    H123114   0.767   0.544  13.709 -1.5433 -0.6960  0.7148
  541TIP3    H223115   0.726   0.417  13.781  1.0653 -1.8083  0.3675
  542TIP3   OH223116   5.741   4.514   5.165  0.1198  0.2675 -0.5840
  542TIP3    H123117   5.826   4.516   5.122 -0.0692 -1.1093 -1.1005
  542TIP3    H223118   5.710   4.424   5.150 -0.7468  0.2997  0.9054
  543TIP3   OH223119   6.099   3.400  11.869  0.2584  0.7632 -0.1442
  543TIP3    H123120   6.123   3.314  11.902 -2.2180  0.1797  0.3859
  543TIP3    H223121   6.166   3.459  11.905  1.3055 -0.7582  0.5026
  544TIP3   OH223122   2.594   6.190  10.201 -0.3164  0.3290 -0.4234
  544TIP3    H123123   2.503   6.165  10.214 -0.5779  1.6133  0.4722
  544TIP3    H223124   2.624   6.216  10.288  1.0227 -0.3968 -0.6386
  545TIP3   OH223125   1.318   2.582  12.942 -0.3320  0.2012 -0.7668
  545TIP3    H123126   1.240   2.617  12.900 -1.3441  1.0015  1.6245
  545TIP3    H223127   1.295   2.576  13.035  1.3948 -2.5275 -0.4169
  546TIP3   OH223128   1.523   1.542   4.359  0.0258 -0.4218 -0.3442
  546TIP3    H123129   1.466   1.606   4.401 -0.7305 -0.8360 -0.7335
  546TIP3    H223130   1.610   1.583   4.361 -0.5084  0.7955 -0.9676
  547TIP3   OH223131   6.788   4.986   5.200 -0.8628  0.3075 -0.6025
  547TIP3    H123132   6.872   5.008   5.241  1.0680 -1.8324 -3.0359
  547TIP3    H223133   6.771   4.896   5.229 -0.7314 -0.3348 -2.4066
  548TIP3   OH223134   3.612   3.623   5.519  0.3740 -0.3414 -0.1549
  548TIP3    H123135   3.576   3.709   5.499 -1.6496 -0.9886  0.4386
  548TIP3    H223136   3.622   3.581   5.434 -0.0636 -0.0514 -0.3527
  549TIP3   OH223137   1.056   5.475  12.723  0.2262  0.2254 -0.1644
  549TIP3    H123138   0.967   5.453  12.749  0.1484  0.7713  0.0414
  549TIP3    H223139   1.111   5.417  12.776  0.0076  0.0904 -0.0820
  550TIP3   OH223140   5.924   6.289  13.543 -0.2710  0.6271 -0.0043
  550TIP3    H123141   5.990   6.303  13.610 -1.4860 -0.1373  1.4051
  550TIP3    H223142   5.973   6.251  13.469  0.9397  0.6388  0.7687
  551TIP3   OH223143   5.421   5.471  12.475  0.4442  0.4867 -0.5487
  551TIP3    H123144   5.374   5.409  12.530 -0.3632  0.7706 -0.9095
  551TIP3    H223145   5.461   5.416  12.407  2.1610  0.0287  0.7597
  552TIP3   OH223146   4.911   3.044  12.365 -0.1421  0.2025  0.1108
  552TIP3    H123147   4.901   2.976  12.431 -0.3128  0.8322  0.7480
  552TIP3    H223148   4.946   3.119  12.413  2.1903 -0.1047 -0.9898
  553TIP3   OH223149   6.368   0.356   4.377  0.0948  0.3883 -0.2180
  553TIP3    H123150   6.417   0.344   4.459  1.1192  1.1662 -0.6884
  553TIP3    H223151   6.328   0.442   4.385  2.6443  1.8537 -1.6681
  554TIP3   OH223152   0.409   5.293   2.573 -0.2223  0.2352  0.0925
  554TIP3    H123153   0.443   5.207   2.598 -0.8231  0.0231  0.2210
  554TIP3    H223154   0.378   5.331   2.656  0.0199  0.5657  0.0323
  555TIP3   OH223155   0.158   4.855   3.089  0.1888 -0.5855  0.8781
  555TIP3    H123156   0.135   4.947   3.078  1.4294 -0.0112  2.6977
  555TIP3    H223157   0.081   4.816   3.130  0.0653 -0.1052  1.1093
  556TIP3   OH223158   1.134   4.637  11.866 -0.3828 -0.3646  0.4591
  556TIP3    H123159   1.228   4.641  11.848 -0.2893  0.4628  1.0868
  556TIP3    H223160   1.092   4.654  11.782  0.0258 -0.2871  0.2712
  557TIP3   OH223161   5.205   4.132   1.812 -0.7875 -0.4941  0.4977
  557TIP3    H123162   5.217   4.118   1.905  0.5763 -0.1421  0.3973
  557TIP3    H223163   5.194   4.226   1.802  1.1741 -0.2646  0.1322
  558TIP3   OH223164   3.212   2.684  17.045 -0.2793 -0.1115  0.2164
  558TIP3    H123165   3.301   2.700  17.015 -0.5479 -1.4489 -1.4693
  558TIP3    H223166   3.204   2.735  17.126  1.8248  0.4317  0.1361
  559TIP3   OH223167   0.139   3.218   1.115 -0.0116 -0.6686  0.5793
  559TIP3    H123168   0.082   3.163   1.168  1.1522 -0.8591  1.6619
  559TIP3    H223169   0.175   3.159   1.049 -2.1804 -0.2462 -1.1150
  560TIP3   OH223170   4.070   4.782   1.980 -0.0562 -0.2104 -0.1587
  560TIP3    H123171   4.043   4.748   1.894  1.0104 -0.7915 -0.2882
  560TIP3    H223172   4.144   4.840   1.960 -1.2215  1.4477  0.1655
  561TIP3   OH223173   2.320   1.022   2.031  0.2842 -0.0296 -0.2479
  561TIP3    H123174   2.260   1.083   1.988 -0.2445 -1.3484 -1.4622
  561TIP3    H223175   2.407   1.058   2.015  0.0366 -0.0063 -1.6873
  562TIP3   OH223176   4.338   5.811  11.427  0.1537 -0.5895 -0.0135
  562TIP3    H123177   4.325   5.804  11.521  1.0499 -1.2384  0.0850
  562TIP3    H223178   4.352   5.721  11.398 -0.7803 -0.4770 -0.8859
  563TIP3   OH223179   0.298   3.112   1.399  0.1289  0.0574  0.6231
  563TIP3    H123180   0.329   3.038   1.451  0.2566 -0.6043 -0.3666
  563TIP3    H223181   0.377   3.161   1.377  0.1444 -0.0311  0.4868
  564TIP3   OH223182   3.545   4.755  12.763 -0.6340  0.1077 -0.1828
  564TIP3    H123183   3.540   4.689  12.832 -0.6561 -0.2398 -0.5162
  564TIP3    H223184   3.537   4.706  12.682  0.7304  0.3524 -0.4876
  565TIP3   OH223185   4.071   0.885   5.651 -0.3230  0.0355 -0.7577
  565TIP3    H123186   4.020   0.922   5.579  2.1650  1.7675 -1.7677
  565TIP3    H223187   4.128   0.957   5.680 -0.2648 -1.0180  2.0552
  566TIP3   OH223188   2.687   6.808  13.407 -0.2806  0.4929 -0.0950
  566TIP3    H123189   2.725   6.777  13.489 -0.5379  2.5547  0.8454
  566TIP3    H223190   2.616   6.747  13.389  1.7647 -1.9457 -0.5773
  567TIP3   OH223191   1.866   0.077   4.546 -0.2769  0.0108 -0.1708
  567TIP3    H123192   1.773   0.053   4.546 -0.6743  1.3940 -1.0342
  567TIP3    H223193   1.874   0.138   4.472  1.1905  0.4079  0.2961
  568TIP3   OH223194   0.235   5.604   3.773 -0.0805  0.6717 -0.3272
  568TIP3    H123195   0.219   5.563   3.858  0.3860 -0.1391 -0.6253
  568TIP3    H223196   0.304   5.551   3.733 -0.2692  1.0692 -1.2027
  569TIP3   OH223197   5.223   6.830  11.605 -0.2376 -0.0985 -0.1226
  569TIP3    H123198   5.272   6.912  11.617  0.5525 -0.6069  0.2948
  569TIP3    H223199   5.139   6.857  11.569 -0.4003  0.9982  1.0056
  570TIP3   OH223200   2.647   5.287   0.175 -0.0707 -0.5897  0.0784
  570TIP3    H123201   2.672   5.374   0.145 -0.0112 -0.1048  1.4592
  570TIP3    H223202   2.716   5.229   0.140  0.1052 -0.0388 -0.5071
  571TIP3   OH223203   1.741   5.844   0.846  0.4120 -0.3690  0.8733
  571TIP3    H123204   1.828   5.837   0.806  0.6997  0.2059  1.3992
  571TIP3    H223205   1.727   5.759   0.887  0.4607 -0.6795  0.2624
  572TIP3   OH223206   0.581   3.762  13.636  0.7739 -0.4372 -0.1817
  572TIP3    H123207   0.497   3.733  13.670  0.7544 -2.7269 -1.8776
  572TIP3    H223208   0.643   3.749  13.708  0.0245 -0.8293  0.3986
  573TIP3   OH223209   2.992   6.025  15.125  0.6391  0.6563  0.5209
  573TIP3    H123210   3.063   6.049  15.184  1.0368  1.7959 -0.3832
  573TIP3    H223211   2.934   6.101  15.123  0.6430  0.6505 -0.5430
  574TIP3   OH223212   0.602   5.688   5.635  0.1034  0.2229  0.0632
  574TIP3    H123213   0.559   5.719   5.555  3.2399  0.3195 -1.7676
  574TIP3    H223214   0.543   5.622   5.670 -2.8356  2.2906 -0.5669
  575TIP3   OH223215   1.740   5.917  14.635  0.4324  0.3132  0.0978
  575TIP3    H123216   1.769   5.826  14.643 -1.2459 -0.3301 -0.5668
  575TIP3    H223217   1.645   5.910  14.624  0.2872  2.1523 -0.0091
  576TIP3   OH223218   1.605   0.314   0.936 -0.7005  0.9637 -0.2395
  576TIP3    H123219   1.580   0.308   0.844 -1.1169  0.0245 -0.0767
  576TIP3    H223220   1.700   0.313   0.935 -0.6804  1.9639 -0.7126
  577TIP3   OH223221   3.739   1.901  10.467  0.3583 -0.3940  0.1585
  577TIP3    H123222   3.824   1.942  10.454  0.0833  0.4258  0.8960
  577TIP3    H223223   3.747   1.854  10.550 -0.2057  0.5148  0.7460
  578TIP3   OH223224   0.916   6.507   4.993 -0.4034 -0.1988 -0.0610
  578TIP3    H123225   0.939   6.424   5.034  0.1224 -0.5120 -0.9517
  578TIP3    H223226   0.933   6.573   5.060 -2.7062 -0.9359  1.3754
  579TIP3   OH223227   2.680   0.683  13.301 -0.7887  0.3704 -0.6659
  579TIP3    H123228   2.685   0.590  13.320  0.7564  0.0406 -2.4015
  579TIP3    H223229   2.671   0.725  13.387  0.7377 -1.2484  0.3531
  580TIP3   OH223230   2.571   4.030   3.432  0.4472 -0.1724  0.4204
  580TIP3    H123231   2.563   4.102   3.369 -0.4780 -1.6245 -1.2132
  580TIP3    H223232   2.638   3.973   3.394  0.6645 -0.5321  1.3249
  581TIP3   OH223233   3.782   5.242  12.902 -0.0419  0.0854 -0.1214
  581TIP3    H123234   3.757   5.314  12.845  0.7773  1.2817  0.9651
  581TIP3    H223235   3.756   5.163  12.854 -0.2926  1.0630 -1.6698
  582TIP3   OH223236   4.830   2.180  16.948 -0.0238 -0.1353  0.0822
  582TIP3    H123237   4.857   2.137  17.029 -0.7174  1.7613  1.3884
  582TIP3    H223238   4.902   2.239  16.927  0.1261 -0.5742 -0.6695
  583TIP3   OH223239   5.318   6.271   0.635  0.5092  0.3016 -0.0175
  583TIP3    H123240   5.271   6.233   0.709  1.5188  0.9490  0.9897
  583TIP3    H223241   5.300   6.212   0.562 -1.9659  0.5998  0.2759
  584TIP3   OH223242   2.887   0.753  13.957  0.3767  0.2839 -0.4449
  584TIP3    H123243   2.939   0.794  14.027  0.1308  0.2597 -0.2459
  584TIP3    H223244   2.876   0.663  13.986  0.4252  0.2286 -0.6016
  585TIP3   OH223245   4.745   1.435  15.157  0.3181 -0.1600 -0.5083
  585TIP3    H123246   4.722   1.409  15.067  0.3488 -0.4372 -0.4377
  585TIP3    H223247   4.719   1.526  15.163 -4.1759 -1.2728  0.6877
  586TIP3   OH223248   5.572   6.619   0.314  0.3450 -0.2342 -0.1354
  586TIP3    H123249   5.569   6.529   0.347  1.0180  0.5184  2.1646
  586TIP3    H223250   5.550   6.673   0.389 -0.7479  1.5525 -1.6348
  587TIP3   OH223251   1.257   6.751   2.009  0.0661 -0.5290  0.1620
  587TIP3    H123252   1.208   6.827   2.042  2.2098  0.2372  1.7685
  587TIP3    H223253   1.325   6.788   1.953  0.4291 -1.3578  0.0363
  588TIP3   OH223254   3.798   3.450   2.926  0.4389  0.3354  0.6883
  588TIP3    H123255   3.871   3.494   2.969  2.1737 -0.9773 -0.7488
  588TIP3    H223256   3.779   3.504   2.849  3.0224 -1.5800 -1.4552
  589TIP3   OH223257   0.470   5.353   2.312 -0.2594  0.0515 -0.5246
  589TIP3    H123258   0.426   5.351   2.397 -0.3055 -0.3007 -0.5576
  589TIP3    H223259   0.473   5.446   2.289 -2.6450  0.0154 -1.3737
  590TIP3   OH223260   1.007   3.642   2.843  0.2924  0.7680 -0.0705
  590TIP3    H123261   1.016   3.563   2.790  0.5695  0.1870  0.8217
  590TIP3    H223262   1.093   3.683   2.840 -0.2574  1.9115 -1.8304
  591TIP3   OH223263   2.598   0.049   3.724 -0.5137  0.0564  0.1769
  591TIP3    H123264   2.585  -0.039   3.690  1.5233 -0.4508  0.5678
  591TIP3    H223265   2.693   0.059   3.728 -0.6875  2.3629 -0.0604
  592TIP3   OH223266   3.377   1.034   2.160  0.7409  0.2403  0.2679
  592TIP3    H123267   3.357   0.999   2.073  0.7546 -0.3343  0.4917
  592TIP3    H223268   3.471   1.053   2.157  0.4337  1.8751 -0.4067
  593TIP3   OH223269   2.978   6.687   5.038  0.3874 -0.1051 -0.2434
  593TIP3    H123270   3.064   6.691   4.996  0.1252  2.1826 -0.6905
  593TIP3    H223271   2.933   6.766   5.008 -1.6383 -0.9023  0.5140
  594TIP3   OH223272   5.453   0.161   3.860 -0.0901 -0.2911  0.1181
  594TIP3    H123273   5.383   0.097   3.866 -1.6090  1.2475 -0.3349
  594TIP3    H223274   5.454   0.189   3.769 -0.2545  1.1224  0.5105
  595TIP3   OH223275   1.060   6.819  16.958  0.5803  0.1698 -0.4358
  595TIP3    H123276   1.050   6.910  16.987  0.4178 -0.3515  1.2314
  595TIP3    H223277   1.071   6.769  17.039  0.2916 -1.3489 -1.2962
  596TIP3   OH223278   2.498   2.074  10.867 -0.7613 -0.5033  0.0329
  596TIP3    H123279   2.591   2.081  10.845 -1.1527  0.4909 -1.4501
  596TIP3    H223280   2.489   1.987  10.905  0.6138 -0.9884 -0.6792
  597TIP3   OH223281   2.351   1.585  15.654  0.5381  0.0421  0.0912
  597TIP3    H123282   2.281   1.542  15.605 -0.5703 -0.8790  2.3050
  597TIP3    H223283   2.430   1.563  15.606 -0.5491  0.0799 -1.8272
  598TIP3   OH223284   0.720   1.539   5.042 -0.0712  0.5786 -0.1010
  598TIP3    H123285   0.798   1.506   4.998  0.7976  1.1604  0.9669
  598TIP3    H223286   0.728   1.634   5.038 -1.0561  0.6661 -0.5182
  599TIP3   OH223287   6.848   3.206  15.870 -0.4743 -0.0195 -0.3730
  599TIP3    H123288   6.808   3.268  15.931  0.5660  0.5028 -0.2032
  599TIP3    H223289   6.917   3.163  15.921 -1.3416 -1.5292 -0.4033
  600TIP3   OH223290   1.665   5.674  11.751  0.4539  0.0720  0.4631
  600TIP3    H123291   1.647   5.766  11.770 -0.9060 -0.3774  1.4619
  600TIP3    H223292   1.579   5.636  11.733  0.7874 -1.3912  1.8371
  601TIP3   OH223293   1.641   5.685   3.527  0.2073 -0.0476  0.1677
  601TIP3    H123294   1.663   5.764   3.478 -0.4508  0.3456  0.4944
  601TIP3    H223295   1.704   5.619   3.496  0.9414  0.6683  0.0962
  602TIP3   OH223296   6.161   1.426  14.624 -0.2325 -0.0635  0.1249
  602TIP3    H123297   6.204   1.412  14.539  2.7439  1.8961  1.1391
  602TIP3    H223298   6.167   1.340  14.667  0.3090 -0.5056 -0.7820
  603TIP3   OH223299   3.597   0.654   0.751 -0.6529 -0.0220 -0.1923
  603TIP3    H123300   3.659   0.718   0.716 -0.2908 -0.1876  0.1301
  603TIP3    H223301   3.569   0.603   0.675 -0.8543  0.4443 -0.4318
  604TIP3   OH223302   1.251   2.423   4.092 -0.0587  0.0387  0.1433
  604TIP3    H123303   1.174   2.480   4.096  0.2870  0.5398 -0.1446
  604TIP3    H223304   1.281   2.417   4.183  1.6872  2.8552 -0.1267
  605TIP3   OH223305   5.188   4.850  14.011 -0.2974 -0.4301 -0.0169
  605TIP3    H123306   5.245   4.926  14.006 -0.9210  0.0916  0.5219
  605TIP3    H223307   5.160   4.835  13.921  1.7060 -1.5139 -0.4965
  606TIP3   OH223308   0.746   0.255  15.606 -0.3369  0.0477 -0.6304
  606TIP3    H123309   0.726   0.180  15.662 -2.1833  0.9139 -0.0343
  606TIP3    H223310   0.661   0.280  15.569 -0.1837  3.0006  0.7098
  607TIP3   OH223311   5.562   6.133   1.270 -0.2277  0.0323  0.1024
  607TIP3    H123312   5.572   6.197   1.340  1.0944  0.3424 -0.3471
  607TIP3    H223313   5.626   6.065   1.290 -1.4556 -1.0714  0.4514
  608TIP3   OH223314   3.643   3.676  15.619 -0.2109 -0.5444 -0.5355
  608TIP3    H123315   3.571   3.615  15.601 -0.3242 -0.5405 -0.0853
  608TIP3    H223316   3.707   3.624  15.667 -0.2667 -0.3298 -0.2287
  609TIP3   OH223317   5.926   3.016  16.588  0.1511 -0.0330  0.0477
  609TIP3    H123318   5.844   2.969  16.576 -0.6088  0.9856  0.9878
  609TIP3    H223319   5.913   3.099  16.541  0.8287 -0.0682 -0.2080
  610TIP3   OH223320   2.382   0.029   1.240 -0.2163 -0.2676 -0.4689
  610TIP3    H123321   2.301   0.026   1.190 -0.2477  2.0230 -0.6613
  610TIP3    H223322   2.405  -0.062   1.255 -2.5921 -0.9778 -0.7851
  611TIP3   OH223323   6.518   2.864  13.221 -0.0883 -0.4115  0.1086
  611TIP3    H123324   6.526   2.769  13.220  0.5858 -0.3622  0.1806
  611TIP3    H223325   6.524   2.890  13.129  0.3165 -0.3993  0.1360
  612TIP3   OH223326   3.148   0.388   5.126  0.6608  0.0802  0.5576
  612TIP3    H123327   3.171   0.295   5.125  1.6321  0.2080 -3.0937
  612TIP3    H223328   3.201   0.425   5.196  1.6178 -1.8086  0.9018
  613TIP3   OH223329   2.409   6.759  12.550 -0.3899  0.1969 -0.2748
  613TIP3    H123330   2.404   6.789  12.641 -1.4858  1.7113 -0.7972
  613TIP3    H223331   2.501   6.736  12.538 -0.4232 -1.1799  1.5376
  614TIP3   OH223332   1.429   2.709  15.830 -0.4028  0.2286 -0.0986
  614TIP3    H123333   1.471   2.700  15.916 -1.8518  0.8511  0.7139
  614TIP3    H223334   1.337   2.726  15.850 -0.8946 -0.2123 -1.8024
  615TIP3   OH223335   6.698   0.744   1.734 -0.0485  0.2968  0.2211
  615TIP3    H123336   6.788   0.776   1.726 -0.0696  0.3074  0.0139
  615TIP3    H223337   6.644   0.823   1.739 -0.1226  0.2995 -0.5407
  616TIP3   OH223338   2.229   5.791  15.131 -0.3362 -0.6129 -0.0166
  616TIP3    H123339   2.209   5.856  15.200 -1.0618  0.2345 -0.9930
  616TIP3    H223340   2.260   5.715  15.179  0.1200  0.3000  1.2065
  617TIP3   OH223341   0.113   4.513  11.774  0.3675  0.1779 -0.0183
  617TIP3    H123342   0.182   4.556  11.823 -0.0661  0.1773  0.6071
  617TIP3    H223343   0.041   4.577  11.772 -0.2225 -0.4422  0.7811
  618TIP3   OH223344   6.833   6.632   4.853 -0.3164  0.0153 -0.3257
  618TIP3    H123345   6.818   6.721   4.887 -0.2957  0.0602 -0.4341
  618TIP3    H223346   6.868   6.584   4.928 -1.0101 -0.0962 -0.0656
  619TIP3   OH223347   0.915   6.639  13.923  0.6597  0.1168 -0.2019
  619TIP3    H123348   0.837   6.603  13.880  0.1120  0.2229  0.6638
  619TIP3    H223349   0.989   6.595  13.881  0.0564 -1.3381  0.1968
  620TIP3   OH223350   1.073   5.661   2.855  0.0833 -0.0357  0.0554
  620TIP3    H123351   0.985   5.686   2.826 -0.1991  0.6837  1.3974
  620TIP3    H223352   1.130   5.730   2.822  0.0133 -0.0436 -0.0828
  621TIP3   OH223353   1.574   1.924  16.226  0.2587 -0.5704  0.4519
  621TIP3    H123354   1.491   1.877  16.219 -0.4511  0.3443  2.0322
  621TIP3    H223355   1.623   1.875  16.292  0.4663 -0.4288  0.4025
  622TIP3   OH223356   1.278   6.774  12.758  0.2024 -0.1417  0.7676
  622TIP3    H123357   1.299   6.855  12.712  0.4375  0.1769  1.4283
  622TIP3    H223358   1.185   6.759  12.738  0.8505 -1.3204 -1.8033
  623TIP3   OH223359   0.176   5.502  10.786 -0.1145 -0.0225  0.0953
  623TIP3    H123360   0.254   5.473  10.739 -1.2762 -2.6156 -0.4184
  623TIP3    H223361   0.124   5.549  10.720  0.5114  0.8098  0.1771
  624TIP3   OH223362   3.759   4.747  14.376 -0.4080  0.3105 -0.0551
  624TIP3    H123363   3.842   4.788  14.399 -0.2364 -0.3090  0.4406
  624TIP3    H223364   3.756   4.750  14.280  2.5521 -4.1336 -0.5942
  625TIP3   OH223365   0.400   0.461  13.773  0.3055  0.1415 -0.2780
  625TIP3    H123366   0.460   0.447  13.846  0.2941 -1.3580 -0.5434
  625TIP3    H223367   0.312   0.449  13.811  0.3167 -1.0782 -0.6222
  626TIP3   OH223368   3.217   1.587  12.789 -0.2873 -0.0023 -0.2927
  626TIP3    H123369   3.292   1.534  12.817 -0.0843 -0.1573 -1.1242
  626TIP3    H223370   3.254   1.674  12.773 -0.4993  0.2273  0.3988
  627TIP3   OH223371   6.579   5.253   1.801 -0.4863 -0.0012  0.1086
  627TIP3    H123372   6.543   5.197   1.870 -0.7028  1.0602  0.8665
  627TIP3    H223373   6.549   5.212   1.720  2.1931 -3.0153  0.4281
  628TIP3   OH223374   0.946   5.137   5.798  0.5007  0.0193 -0.5258
  628TIP3    H123375   0.873   5.155   5.858  1.3803  2.1225 -0.0295
  628TIP3    H223376   0.936   5.201   5.728  1.7725  0.2033 -0.5509
  629TIP3   OH223377   5.656   5.653  16.091  0.1681 -0.3652  1.1467
  629TIP3    H123378   5.664   5.653  16.186  0.4240  0.6457  1.1322
  629TIP3    H223379   5.712   5.580  16.063  2.3164  1.0085  1.6291
  630TIP3   OH223380   0.915   1.104   4.279 -0.3411 -0.2540  0.6861
  630TIP3    H123381   0.929   1.065   4.365 -0.4436  0.1447  0.8871
  630TIP3    H223382   0.989   1.073   4.227  1.3693  1.7661  1.7204
  631TIP3   OH223383   3.030   1.285   5.774  0.0939  0.7127  0.1210
  631TIP3    H123384   3.022   1.317   5.864  0.9351 -1.6060  1.0996
  631TIP3    H223385   2.940   1.272   5.745 -0.1861  1.3915  0.6677
  632TIP3   OH223386   5.369   3.415  12.230  0.3021  0.1252 -0.1468
  632TIP3    H123387   5.287   3.366  12.234  0.3670  0.0895  2.9430
  632TIP3    H223388   5.431   3.363  12.282  1.1107  2.1144  1.0088
  633TIP3   OH223389   0.804   3.928  15.235  0.5691 -0.5808  0.7833
  633TIP3    H123390   0.886   3.920  15.187  0.7456  0.5670  0.8637
  633TIP3    H223391   0.800   3.849  15.290  1.5174 -0.7334  0.6395
  634TIP3   OH223392   5.482   5.692   0.334 -0.0059 -0.2656  0.5328
  634TIP3    H123393   5.553   5.670   0.274 -0.6321  0.1209 -0.3813
  634TIP3    H223394   5.431   5.757   0.286 -0.8725 -0.4126  1.2445
  635TIP3   OH223395   3.260   0.887  12.520  0.3706  0.4326  0.0623
  635TIP3    H123396   3.306   0.958  12.565 -0.8741  1.1422  0.2412
  635TIP3    H223397   3.266   0.909  12.427  1.0524  0.0970  0.0125
  636TIP3   OH223398   2.370   5.067  15.133 -0.1109 -0.4008  0.1598
  636TIP3    H123399   2.419   5.085  15.213 -1.5375 -0.0771  0.9968
  636TIP3    H223400   2.280   5.054  15.162 -0.6294 -0.4909 -1.3793
  637TIP3   OH223401   6.806   4.338   1.125  0.2178  0.3642 -0.9165
  637TIP3    H123402   6.860   4.312   1.199 -0.8776 -1.8997 -0.8229
  637TIP3    H223403   6.860   4.320   1.048 -0.4580 -2.4963 -0.8608
  638TIP3   OH223404   2.314   4.168  17.043  0.0617  0.4748 -0.3421
  638TIP3    H123405   2.307   4.129  16.957 -0.4523  0.7786 -0.4398
  638TIP3    H223406   2.234   4.220  17.053  0.0842  0.3881  0.3434
  639TIP3   OH223407   0.485   2.725   0.792  0.0067 -0.1351  0.5554
  639TIP3    H123408   0.390   2.734   0.803 -0.2779 -1.0174 -0.9406
  639TIP3    H223409   0.502   2.632   0.807  0.6733  0.0493  0.9788
  640TIP3   OH223410   4.529   2.636  10.195 -0.1670  0.1366  0.6023
  640TIP3    H123411   4.552   2.717  10.151  1.3191  0.1712  1.3843
  640TIP3    H223412   4.435   2.645  10.214 -0.0095  1.7045  0.7650
  641TIP3   OH223413   6.502   5.744  11.754 -0.2005  0.3276 -0.3381
  641TIP3    H123414   6.466   5.702  11.832 -1.2479  1.3553 -0.2410
  641TIP3    H223415   6.427   5.787  11.713  0.7506  1.8345 -0.5881
  642TIP3   OH223416   1.129   5.493   5.339  0.5496  0.2505  0.6671
  642TIP3    H123417   1.103   5.536   5.421 -0.4351  0.7480  0.1139
  642TIP3    H223418   1.100   5.403   5.350 -0.7150  0.5976  0.4067
  643TIP3   OH223419   6.640   2.079  11.723  0.1318 -0.7599  0.0636
  643TIP3    H123420   6.661   2.121  11.640 -0.2378  2.6068  1.5307
  643TIP3    H223421   6.545   2.090  11.733  0.6301  2.8657  2.7333
  644TIP3   OH223422   2.579   5.860   4.352  0.1086  0.0579  0.1807
  644TIP3    H123423   2.609   5.796   4.417  1.5574  0.1978 -0.3036
  644TIP3    H223424   2.519   5.810   4.295  0.9546 -0.7983  0.0139
  645TIP3   OH223425   3.044   0.480  11.012 -0.1513  0.1805  0.5027
  645TIP3    H123426   3.086   0.503  11.095  1.8949  2.8135 -1.1022
  645TIP3    H223427   3.115   0.449  10.957 -1.3886 -0.9985 -0.4841
  646TIP3   OH223428   0.173   1.315  15.482  0.2999  0.2409 -0.7188
  646TIP3    H123429   0.083   1.311  15.515 -0.1990  0.1131 -2.0641
  646TIP3    H223430   0.219   1.370  15.545 -0.6256  0.0072  0.1868
  647TIP3   OH223431   6.731   3.104   2.133  0.0567  0.3087 -0.0703
  647TIP3    H123432   6.712   3.032   2.192  2.9764 -1.3181 -0.9248
  647TIP3    H223433   6.737   3.181   2.190 -2.5506 -0.1262  0.9208
  648TIP3   OH223434   2.408   0.217   3.341  0.1209  0.5024  0.1742
  648TIP3    H123435   2.487   0.271   3.335  0.3037  0.2003 -0.1409
  648TIP3    H223436   2.368   0.223   3.255 -1.1597  2.0937  0.8204
  649TIP3   OH223437   3.681   4.292  16.135 -0.0272  0.1739 -0.2241
  649TIP3    H123438   3.599   4.339  16.147  0.0346 -0.0186  1.1141
  649TIP3    H223439   3.693   4.289  16.040 -0.9524  1.2430 -0.3986
  650TIP3   OH223440   1.124   6.444  14.173  0.2733 -0.2321 -0.5921
  650TIP3    H123441   1.037   6.431  14.209  0.5016 -0.5750 -0.1575
  650TIP3    H223442   1.162   6.356  14.169  0.9127  0.0049  0.0336
  651TIP3   OH223443   3.729   4.391   3.379 -0.3678  0.0923 -0.1551
  651TIP3    H123444   3.686   4.463   3.333 -1.0926  0.3507  0.8962
  651TIP3    H223445   3.788   4.353   3.314  1.9958  3.2060 -0.0744
  652TIP3   OH223446   3.635   2.295  13.551  0.0556 -0.7120 -0.1131
  652TIP3    H123447   3.659   2.203  13.565  1.3557 -0.3383  0.2895
  652TIP3    H223448   3.554   2.291  13.500 -0.0870 -2.0782  0.1595
  653TIP3   OH223449   3.531   5.540   5.911  0.0438  0.4830 -0.2988
  653TIP3    H123450   3.471   5.502   5.976  0.7061 -0.8752 -0.4416
  653TIP3    H223451   3.617   5.537   5.953  0.3686  0.2378 -0.9581
  654TIP3   OH223452   4.705   0.532  15.157  0.1105 -0.9926 -0.0556
  654TIP3    H123453   4.772   0.534  15.225  0.7729 -0.7791 -0.7023
  654TIP3    H223454   4.750   0.498  15.080 -0.9104 -2.3105 -0.1010
  655TIP3   OH223455   2.652   0.355   2.426 -0.4818 -0.3223  0.4218
  655TIP3    H123456   2.693   0.426   2.476  1.7263 -0.2767 -1.3134
  655TIP3    H223457   2.579   0.327   2.481  0.1698  1.5187  2.3820
  656TIP3   OH223458   1.451   0.567  12.022 -0.0848  0.4803 -0.0286
  656TIP3    H123459   1.525   0.511  11.999 -0.1818  0.2614  0.1889
  656TIP3    H223460   1.397   0.569  11.942  0.0429  0.4625 -0.1158
  657TIP3   OH223461   0.061   0.283  14.180 -0.0090 -0.5200  0.0299
  657TIP3    H123462   0.037   0.268  14.271 -0.0677  0.5865  0.2176
  657TIP3    H223463   0.010   0.219  14.130 -0.6169 -0.5709  0.7063
  658TIP3   OH223464   6.082   3.492   6.086 -0.3204 -0.2256 -0.1039
  658TIP3    H123465   6.168   3.449   6.093 -0.7246 -1.1255 -0.4249
  658TIP3    H223466   6.024   3.438   6.139 -0.8485 -0.0777 -0.5170
  659TIP3   OH223467   3.618   4.909   0.857  0.7309  0.6965  0.1065
  659TIP3    H123468   3.606   4.939   0.767  0.9621  2.4070  0.5939
  659TIP3    H223469   3.529   4.891   0.888  0.4068  2.2797  0.1952
  660TIP3   OH223470   4.284   2.923  12.237  0.1824  0.0363  0.6576
  660TIP3    H123471   4.309   2.831  12.227  1.0759  0.3062  0.2935
  660TIP3    H223472   4.189   2.921  12.248  0.2095 -0.9398  0.8010
  661TIP3   OH223473   0.781   4.931  15.799  1.2240 -0.2827  0.3940
  661TIP3    H123474   0.717   4.903  15.864  0.4167  1.0523  0.2217
  661TIP3    H223475   0.745   4.901  15.715  1.0912 -0.0193  0.3537
  662TIP3   OH223476   6.245   2.754  14.878 -0.3607 -0.0992 -0.0864
  662TIP3    H123477   6.175   2.720  14.933 -0.9637  0.9256 -0.1975
  662TIP3    H223478   6.261   2.843  14.911 -0.3113  0.3102 -1.1740
  663TIP3   OH223479   6.558   3.758   4.294  0.1996 -0.0379  0.4116
  663TIP3    H123480   6.574   3.664   4.285  0.6126  0.0598  0.1007
  663TIP3    H223481   6.643   3.796   4.313  0.3165  0.4549 -0.9693
  664TIP3   OH223482   4.824   3.047   3.429 -0.3978 -0.3113 -0.1167
  664TIP3    H123483   4.916   3.073   3.431 -0.2390 -0.8159 -0.6330
  664TIP3    H223484   4.786   3.099   3.358  0.4356 -3.0266 -2.7592
  665TIP3   OH223485   1.276   0.740  13.274  0.0807  0.1183  0.5545
  665TIP3    H123486   1.249   0.668  13.216  1.1829  0.6511 -0.6626
  665TIP3    H223487   1.201   0.800  13.274 -1.0185 -1.1755  1.9125
  666TIP3   OH223488   5.012   3.497  10.597  0.0406  0.0005 -0.1612
  666TIP3    H123489   5.026   3.591  10.582 -0.3723  0.0923  0.0193
  666TIP3    H223490   5.061   3.455  10.527  0.3834  0.3457 -0.1352
  667TIP3   OH223491   3.917   5.302   0.824 -0.6495  0.4249  0.4705
  667TIP3    H123492   3.824   5.279   0.831 -0.3970 -0.3673  1.5315
  667TIP3    H223493   3.962   5.239   0.881  0.3695  1.8913  1.3685
  668TIP3   OH223494   1.775   1.636  12.106 -0.2971 -0.4803  0.1474
  668TIP3    H123495   1.727   1.718  12.115 -0.7568 -0.7393  0.0795
  668TIP3    H223496   1.860   1.661  12.069 -0.4116 -0.0299  0.1953
  669TIP3   OH223497   5.244   1.933   3.457 -0.3396 -0.0492  0.5330
  669TIP3    H123498   5.220   1.884   3.536  1.5782  0.6319  1.6065
  669TIP3    H223499   5.331   1.901   3.435  0.0718  1.3526  0.0048
  670TIP3   OH223500   4.693   3.237   4.045 -0.5771 -0.0337 -0.2031
  670TIP3    H123501   4.662   3.200   4.127 -0.2215  1.0269  0.4382
  670TIP3    H223502   4.773   3.285   4.069  0.3038 -0.8359 -1.4091
  671TIP3   OH223503   1.217   3.445   1.863  0.5974 -0.1539  0.5532
  671TIP3    H123504   1.144   3.467   1.805  0.5268 -0.6802  0.4334
  671TIP3    H223505   1.253   3.364   1.827  0.9821 -0.1222  0.8523
  672TIP3   OH223506   6.369   6.320  12.584 -0.0453  0.3930  0.1178
  672TIP3    H123507   6.318   6.395  12.616 -1.3394 -0.2787 -0.2718
  672TIP3    H223508   6.453   6.357  12.558 -0.8543  1.8099 -0.5977
  673TIP3   OH223509   6.422   2.058  13.623 -0.2133  0.3478 -0.0482
  673TIP3    H123510   6.442   2.046  13.530 -1.5690  1.3036 -0.4826
  673TIP3    H223511   6.483   1.999  13.667 -0.4482 -1.1625 -1.6013
  674TIP3   OH223512   4.401   4.754   5.003 -0.0103  0.4033  0.4260
  674TIP3    H123513   4.405   4.661   4.982 -1.2749  0.7195 -1.5077
  674TIP3    H223514   4.481   4.772   5.052  2.6510 -0.7982 -3.0624
  675TIP3   OH223515   5.799   6.830  11.576  0.4091 -0.3024 -0.7845
  675TIP3    H123516   5.735   6.767  11.611  1.0121 -0.4525  0.0484
  675TIP3    H223517   5.772   6.841  11.484 -0.9530 -0.1893 -0.4010
  676TIP3   OH223518   3.199   4.196   1.280  0.2802  0.5864  0.4057
  676TIP3    H123519   3.216   4.286   1.306 -0.2810  0.2677  1.9770
  676TIP3    H223520   3.281   4.166   1.242  1.3712  0.9234  2.3832
  677TIP3   OH223521   2.166   4.502  13.623 -0.0630 -0.1502  0.4216
  677TIP3    H123522   2.181   4.569  13.557  2.2448 -0.2580  0.7391
  677TIP3    H223523   2.160   4.420  13.574  0.6948 -0.1116  0.2423
  678TIP3   OH223524   3.221   1.267   0.479 -0.7894  0.3337  0.1933
  678TIP3    H123525   3.192   1.211   0.551  0.3760  0.7688  1.0278
  678TIP3    H223526   3.167   1.346   0.487 -0.2073  0.6590  1.0177
  679TIP3   OH223527   5.131   2.397  10.327 -0.0221 -0.1248 -0.7787
  679TIP3    H123528   5.124   2.302  10.338 -0.0294  0.0001  0.4131
  679TIP3    H223529   5.110   2.412  10.234  1.4867 -1.4277 -1.3666
  680TIP3   OH223530   1.450   4.104  11.189 -0.3673 -0.2333 -0.1312
  680TIP3    H123531   1.355   4.090  11.181 -0.9319  3.0272 -0.5739
  680TIP3    H223532   1.482   4.099  11.099 -0.0077 -1.5750  0.0415
  681TIP3   OH223533   1.611   2.133  15.086  0.1519 -0.1235 -0.1368
  681TIP3    H123534   1.566   2.065  15.036 -1.9941 -1.3501  3.1775
  681TIP3    H223535   1.696   2.094  15.109 -0.5208 -1.2070  0.5936
  682TIP3   OH223536   2.605   0.970  15.376  0.4699  0.4747  0.0617
  682TIP3    H123537   2.681   1.020  15.348  1.1753 -0.9989 -0.7789
  682TIP3    H223538   2.631   0.878  15.365 -1.5016 -0.0747 -0.4907
  683TIP3   OH223539   2.543   5.805   2.996  0.2282  0.1850 -0.1499
  683TIP3    H123540   2.468   5.825   2.940 -0.9799 -0.6274  1.0997
  683TIP3    H223541   2.573   5.890   3.028 -0.5311  0.4775 -0.1949
  684TIP3   OH223542   4.375   6.593  14.904  0.0790  0.3483  0.2123
  684TIP3    H123543   4.463   6.563  14.927  0.5052  0.7796 -0.7776
  684TIP3    H223544   4.318   6.519  14.922  0.7942 -0.2849 -0.0858
  685TIP3   OH223545   2.957   4.626  14.321 -0.2233  0.0752 -0.6697
  685TIP3    H123546   2.982   4.618  14.229 -0.7929 -1.4447 -0.7144
  685TIP3    H223547   2.879   4.681  14.320 -1.0484 -1.0670 -1.2575
  686TIP3   OH223548   5.690   2.430  15.990  0.4523 -0.1399  0.1861
  686TIP3    H123549   5.760   2.398  15.933  0.5465 -0.5723  0.5382
  686TIP3    H223550   5.657   2.508  15.946  1.7067  0.5404  0.4214
  687TIP3   OH223551   0.057   4.596   6.186  0.5220  0.2024  0.3899
  687TIP3    H123552   0.012   4.554   6.260 -1.0899 -0.5898 -0.9762
  687TIP3    H223553   0.070   4.525   6.123 -0.0283  1.2367 -0.9469
  688TIP3   OH223554   0.004   6.042   5.620  0.6644 -0.1441 -0.8440
  688TIP3    H123555   0.081   6.087   5.654 -0.1955  0.5128  0.3039
  688TIP3    H223556  -0.025   5.986   5.693 -0.4544  0.2947 -0.9304
  689TIP3   OH223557   3.529   0.321  16.864 -0.3001 -0.0547 -0.0399
  689TIP3    H123558   3.568   0.364  16.940 -0.0168  4.4369 -2.3566
  689TIP3    H223559   3.600   0.315  16.801 -1.5209  0.9660 -1.5939
  690TIP3   OH223560   6.443   3.457  12.366  0.0521 -0.4900 -0.3058
  690TIP3    H123561   6.518   3.516  12.361 -1.0770  1.4632  2.7880
  690TIP3    H223562   6.461   3.403  12.443 -1.4855 -0.3081  0.1986
  691TIP3   OH223563   3.940   5.317   4.918  0.5850  0.1877 -0.3677
  691TIP3    H123564   3.885   5.320   4.839  1.0634  1.2017 -0.6712
  691TIP3    H223565   3.905   5.243   4.968 -0.4665  0.2488 -0.9848
  692TIP3   OH223566   4.006   4.831   0.729 -0.2762 -0.5084 -0.1126
  692TIP3    H123567   3.980   4.901   0.789  0.2322  0.1660 -0.6595
  692TIP3    H223568   3.990   4.751   0.778  0.8507  0.0457  1.2362
  693TIP3   OH223569   5.704   0.707   5.727 -0.2085  0.8945 -0.0354
  693TIP3    H123570   5.673   0.626   5.687 -0.0135  1.0710 -0.5503
  693TIP3    H223571   5.726   0.764   5.653  1.0543  0.8844  0.3089
  694TIP3   OH223572   3.907   4.679   5.266 -0.6927 -0.1727 -0.2884
  694TIP3    H123573   3.984   4.722   5.230 -0.0466 -0.4931  0.6618
  694TIP3    H223574   3.883   4.733   5.342 -1.9930  0.4632 -1.1091
  695TIP3   OH223575   1.913   0.716  11.648 -0.3893  0.6243 -0.0509
  695TIP3    H123576   1.916   0.812  11.642  0.3256  0.5219 -4.1202
  695TIP3    H223577   1.822   0.694  11.629 -0.2446  0.4793 -0.5889
  696TIP3   OH223578   4.247   4.692   4.145 -0.0445  0.0883  0.2964
  696TIP3    H123579   4.161   4.694   4.103  0.5418 -0.3153 -0.9795
  696TIP3    H223580   4.229   4.708   4.237 -1.4151  0.7347 -0.0583
  697TIP3   OH223581   6.440   4.417   0.049 -0.1199 -0.0105  0.6228
  697TIP3    H123582   6.468   4.329   0.076 -1.0586  0.3980  3.1551
  697TIP3    H223583   6.514   4.473   0.071 -0.1322  0.0546  0.4974
  698TIP3   OH223584   3.970   4.095   4.571 -0.6483  0.3128 -0.3714
  698TIP3    H123585   4.002   4.079   4.482 -0.0734 -1.4675  0.0997
  698TIP3    H223586   4.009   4.025   4.623 -2.2179  0.3872  1.0005
  699TIP3   OH223587   1.565   3.963   1.990  0.4304 -0.4882 -0.1061
  699TIP3    H123588   1.518   3.924   2.065  0.2491 -2.1740 -1.0471
  699TIP3    H223589   1.512   3.939   1.914  0.3212  1.6597 -0.7627
  700TIP3   OH223590   3.574   2.009   1.378 -0.8533 -0.5254 -0.0511
  700TIP3    H123591   3.538   1.920   1.380 -0.6185 -0.6183  0.0535
  700TIP3    H223592   3.520   2.055   1.314 -1.1861 -0.6528  0.1344
  701TIP3   OH223593   3.912   1.642  15.440 -0.3593 -0.5850  0.1002
  701TIP3    H123594   3.863   1.562  15.421 -1.8631  1.0110 -3.6595
  701TIP3    H223595   3.845   1.707  15.460  0.7047  0.2293  1.1522
  702TIP3   OH223596   2.972   3.330   2.953 -0.4618  0.1633  0.0562
  702TIP3    H123597   2.881   3.311   2.932 -0.6950  0.4875  0.7551
  702TIP3    H223598   3.000   3.255   3.007 -0.5380  0.4248  0.4604
  703TIP3   OH223599   5.575   3.436   4.829 -0.1334  0.5253 -0.5633
  703TIP3    H123600   5.618   3.503   4.775  0.3955  0.1893 -0.5722
  703TIP3    H223601   5.635   3.423   4.902  0.2288 -0.5899 -1.0374
  704TIP3   OH223602   5.355   0.119  12.969  0.0025 -0.1968  0.8047
  704TIP3    H123603   5.304   0.178  13.025  0.1939 -1.8095  2.7839
  704TIP3    H223604   5.304   0.038  12.967  0.3745 -0.4178 -0.8031
  705TIP3   OH223605   3.836   1.373  13.823  0.0944  0.0639 -0.1760
  705TIP3    H123606   3.818   1.293  13.772 -1.0459 -0.3694  0.8564
  705TIP3    H223607   3.752   1.394  13.864  0.5873  1.3578  0.1967
  706TIP3   OH223608   2.951   0.293   1.244  0.2822 -0.2985  0.2610
  706TIP3    H123609   3.010   0.329   1.179  0.1780 -0.2366  0.2009
  706TIP3    H223610   2.877   0.354   1.246 -0.2823 -0.9565 -0.4413
  707TIP3   OH223611   4.672   0.234   5.842 -0.0948 -0.3500 -0.3739
  707TIP3    H123612   4.733   0.308   5.849 -0.6405  0.0338  0.4648
  707TIP3    H223613   4.631   0.244   5.757 -0.8431  0.8662  0.1083
  708TIP3   OH223614   0.099   6.605   3.056  0.4636 -0.5544 -0.4436
  708TIP3    H123615   0.123   6.659   2.981  1.1263 -0.2094  0.0048
  708TIP3    H223616   0.146   6.523   3.043  0.6331 -0.4686 -0.3707
  709TIP3   OH223617   2.001   6.100   3.480  0.8665  0.1701  0.1257
  709TIP3    H123618   1.999   6.018   3.528  2.6435  0.3847  0.6404
  709TIP3    H223619   1.973   6.166   3.544 -0.8021 -0.0094 -0.3550
  710TIP3   OH223620   3.815   3.933   4.185 -0.3534 -0.1287  0.5699
  710TIP3    H123621   3.850   3.875   4.117 -0.6900 -1.3051  1.3577
  710TIP3    H223622   3.828   3.884   4.266 -1.4171  0.5549  1.1721
  711TIP3   OH223623   0.875   4.350   5.383  0.2484  0.6271  0.5264
  711TIP3    H123624   0.875   4.262   5.345 -0.9025  0.4723  0.8604
  711TIP3    H223625   0.917   4.339   5.469  1.0636  0.6127  0.1372
  712TIP3   OH223626   1.429   3.608   1.902  0.7028 -0.1745 -0.1393
  712TIP3    H123627   1.348   3.558   1.889  0.0445  1.3000 -2.1713
  712TIP3    H223628   1.476   3.599   1.820  3.2202 -1.8939  1.3595
  713TIP3   OH223629   6.084   5.413  12.266  0.1821  0.0375  0.6961
  713TIP3    H123630   6.004   5.382  12.224  0.2742  1.8584 -1.0268
  713TIP3    H223631   6.089   5.505  12.241  2.7136  0.0244  0.9132
  714TIP3   OH223632   2.423   6.477  10.337 -0.1394 -0.5920 -0.3606
  714TIP3    H123633   2.417   6.389  10.301  1.7607  0.0117 -2.4030
  714TIP3    H223634   2.481   6.468  10.413  0.2444 -1.0921 -0.7029
  715TIP3   OH223635   6.091   1.474  13.753  0.3287 -1.3239  0.1087
  715TIP3    H123636   6.017   1.436  13.705  0.3089 -2.0999  0.7274
  715TIP3    H223637   6.051   1.516  13.829  0.1693  1.5236 -1.4494
  716TIP3   OH223638   1.265   4.642   4.400 -0.0402  0.3255 -0.3263
  716TIP3    H123639   1.270   4.735   4.422 -1.2153  0.3352 -0.0003
  716TIP3    H223640   1.268   4.598   4.485 -3.2174  0.2876 -0.1243
  717TIP3   OH223641   3.891   3.269   2.325  0.5566 -0.2963 -0.7601
  717TIP3    H123642   3.933   3.333   2.382 -0.7623  0.2856 -0.3939
  717TIP3    H223643   3.911   3.297   2.236  1.2617 -0.2704 -0.5974
  718TIP3   OH223644   5.713   1.420  14.753 -0.3170 -0.4886  0.3336
  718TIP3    H123645   5.795   1.471  14.751  0.1538 -1.2561 -1.2687
  718TIP3    H223646   5.680   1.432  14.842  1.0064  0.6820  0.7034
  719TIP3   OH223647   3.234   3.958   4.472  0.5582  0.3199 -0.2931
  719TIP3    H123648   3.277   4.025   4.524 -0.6563  0.0342  1.1270
  719TIP3    H223649   3.303   3.924   4.415  1.6908  1.2854  0.4602
  720TIP3   OH223650   4.014   0.312  14.928  0.2553 -0.0980  0.2452
  720TIP3    H123651   3.968   0.392  14.950  1.7401  0.3475  1.9324
  720TIP3    H223652   3.997   0.253  15.002  0.0199 -0.9833 -0.4918
  721TIP3   OH223653   3.583   5.638  14.416  0.2062 -0.6508 -0.0947
  721TIP3    H123654   3.593   5.624  14.322  1.4619  1.8491 -0.4163
  721TIP3    H223655   3.490   5.625  14.433 -0.3751  0.6025 -2.0312
  722TIP3   OH223656   1.658   4.186  11.368 -0.0391 -0.4325  0.0790
  722TIP3    H123657   1.609   4.253  11.417 -2.5892 -0.9940 -1.4899
  722TIP3    H223658   1.597   4.157  11.300  2.4410 -1.4662 -1.8742
  723TIP3   OH223659   4.449   3.359   2.605  0.1567 -0.5570 -0.1283
  723TIP3    H123660   4.491   3.399   2.529 -1.6234 -0.6421 -1.2221
  723TIP3    H223661   4.521   3.332   2.661  1.4790  1.9263 -0.4971
  724TIP3   OH223662   4.205   0.685   4.159 -0.0023  0.6657  0.2533
  724TIP3    H123663   4.211   0.612   4.097  1.8581  0.3935  0.6989
  724TIP3    H223664   4.202   0.643   4.245  0.3793  1.0827  0.4744
  725TIP3   OH223665   4.296   2.964   3.459  0.3145 -0.2479 -0.5185
  725TIP3    H123666   4.375   2.912   3.475  0.6289  0.9419  2.6413
  725TIP3    H223667   4.327   3.054   3.453 -0.7298  0.2783  1.0871
  726TIP3   OH223668   0.826   0.437  12.562  0.7795  0.1735  0.1374
  726TIP3    H123669   0.896   0.385  12.521 -0.4119 -3.3240  2.1348
  726TIP3    H223670   0.783   0.482  12.489  1.5829 -2.1093 -1.8583
  727TIP3   OH223671   5.800   3.286   2.203  0.2314  0.0437  0.2136
  727TIP3    H123672   5.742   3.210   2.190 -0.1957  0.6194 -1.5041
  727TIP3    H223673   5.774   3.321   2.288 -0.6011 -0.8494  0.3545
  728TIP3   OH223674   3.527   5.720   3.188 -0.4772  0.4691  0.7558
  728TIP3    H123675   3.447   5.765   3.213 -0.3326  0.7971  0.6415
  728TIP3    H223676   3.542   5.657   3.258 -1.7772 -0.8348 -0.0889
  729TIP3   OH223677   2.245   5.303  11.984  0.4355 -0.3243  0.1610
  729TIP3    H123678   2.303   5.367  12.025 -0.2221  0.2273  0.2403
  729TIP3    H223679   2.256   5.319  11.890  0.6871 -0.4758  0.1613
  730TIP3   OH223680   1.169   2.092  16.732 -0.3744 -0.3897 -0.8586
  730TIP3    H123681   1.093   2.147  16.752  0.5634  0.9429 -0.7995
  730TIP3    H223682   1.234   2.153  16.698  0.3088 -1.6654 -1.9153
  731TIP3   OH223683   3.562   4.869   3.170 -0.1070  0.1389  0.0714
  731TIP3    H123684   3.654   4.876   3.195 -0.0562 -0.9727  0.2112
  731TIP3    H223685   3.554   4.929   3.096  0.3486  1.4470  1.0457
  732TIP3   OH223686   6.709   5.347   3.802  0.0381  0.3444 -0.3438
  732TIP3    H123687   6.687   5.258   3.830 -1.2151  0.8207  0.2624
  732TIP3    H223688   6.705   5.399   3.882 -1.0610  1.2756 -0.9787
  733TIP3   OH223689   5.137   4.213  12.828 -0.3381 -0.0745  0.0857
  733TIP3    H123690   5.154   4.307  12.815  0.3394 -0.3142 -0.9066
  733TIP3    H223691   5.062   4.210  12.888 -0.4173  1.1007  0.0702
  734TIP3   OH223692   3.128   6.094  12.688  0.8831  0.2031  0.6136
  734TIP3    H123693   3.067   6.020  12.679 -0.2914  1.1464  0.5613
  734TIP3    H223694   3.164   6.106  12.600  0.6424  0.0501  0.4921
  735TIP3   OH223695   2.566   5.280   1.307 -0.2894 -0.2124 -0.2208
  735TIP3    H123696   2.633   5.345   1.287  0.4016 -0.0021  2.3981
  735TIP3    H223697   2.484   5.329   1.309 -0.1843  0.0098 -0.9881
  736TIP3   OH223698   6.628   2.754   5.537  0.1820 -0.3670  0.0722
  736TIP3    H123699   6.664   2.789   5.619 -1.9462  0.4290  0.7287
  736TIP3    H223700   6.613   2.662   5.555  1.8204 -0.7183 -0.2162
  737TIP3   OH223701   0.090   4.866  12.596  0.1123  0.2692 -0.0548
  737TIP3    H123702   0.095   4.949  12.643 -0.4653  0.1248  0.2607
  737TIP3    H223703   0.027   4.814  12.646 -1.0270  0.3574 -1.3716
  738TIP3   OH223704   1.035   0.915   0.425 -0.4451  0.1249  0.7342
  738TIP3    H123705   0.964   0.861   0.460 -0.6433  0.0454  0.2205
  738TIP3    H223706   0.991   0.988   0.381 -0.1848  0.5725  1.2005
  739TIP3   OH223707   4.936   6.778   1.808  0.2051 -0.0467 -0.8202
  739TIP3    H123708   4.856   6.731   1.784 -0.2519  0.7770 -0.9483
  739TIP3    H223709   4.984   6.717   1.864 -0.4772 -0.5792 -0.8037
  740TIP3   OH223710   5.004   5.140  14.982 -0.3655  1.0533  0.1940
  740TIP3    H123711   4.979   5.064  15.034  0.2421  1.1667  0.6691
  740TIP3    H223712   4.930   5.156  14.924 -1.2004  1.1337  1.2623
  741TIP3   OH223713   3.340   5.431   4.491 -0.0182 -0.4893 -0.1006
  741TIP3    H123714   3.310   5.349   4.453 -3.4666 -0.0169  1.2042
  741TIP3    H223715   3.266   5.491   4.481  0.6979  1.1121  2.8443
  742TIP3   OH223716   1.232   5.566   0.690  0.3784 -0.6786 -0.0707
  742TIP3    H123717   1.206   5.625   0.761  1.0107  2.1853 -2.0529
  742TIP3    H223718   1.296   5.508   0.730  2.4997  2.3297  1.2928
  743TIP3   OH223719   1.700   2.006   1.301 -0.5034 -0.3953  0.0266
  743TIP3    H123720   1.679   2.097   1.322 -1.3859 -0.7548  0.7735
  743TIP3    H223721   1.765   2.012   1.231 -1.9948  0.8071 -1.3360
  744TIP3   OH223722   3.306   6.691   1.226 -0.3624 -0.6480  0.1327
  744TIP3    H123723   3.390   6.681   1.182 -0.3742  1.6491 -0.5066
  744TIP3    H223724   3.302   6.783   1.251 -2.5592 -0.7545  0.3923
  745TIP3   OH223725   1.756   5.964   4.560 -0.4190 -0.0874  0.1999
  745TIP3    H123726   1.810   5.888   4.582  0.7842  0.0767 -1.8872
  745TIP3    H223727   1.744   5.957   4.465 -1.2663  1.7011  0.1512
  746TIP3   OH223728   0.638   6.478   3.775 -0.4366 -0.3038  0.0225
  746TIP3    H123729   0.692   6.402   3.752 -0.7783 -0.3843 -0.5293
  746TIP3    H223730   0.683   6.517   3.851  1.3813  0.6344 -1.4419
  747TIP3   OH223731   4.106   4.834  13.135  0.0203  0.1949  0.8782
  747TIP3    H123732   4.072   4.790  13.213  0.1232  0.7348  1.2339
  747TIP3    H223733   4.075   4.924  13.143 -2.8850 -0.4295 -1.3799
  748TIP3   OH223734   6.088   3.698  11.656  0.2808 -0.2676 -0.1871
  748TIP3    H123735   6.050   3.745  11.582  0.9540  0.2714 -0.2062
  748TIP3    H223736   6.042   3.614  11.658 -0.1179 -0.0747 -0.8806
  749TIP3   OH223737   5.995   6.084  11.460  0.4977 -0.3316  0.2255
  749TIP3    H123738   5.965   6.142  11.390  1.6539 -0.3911 -0.3521
  749TIP3    H223739   5.936   6.101  11.533  0.8913  1.6671  0.1318
  750TIP3   OH223740   6.482   3.904  13.689  0.3001 -0.0093 -0.8223
  750TIP3    H123741   6.531   3.825  13.710  0.6254  0.2688 -0.5244
  750TIP3    H223742   6.490   3.959  13.767 -1.3047 -0.3591 -0.3808
  751TIP3   OH223743   6.728   5.110  16.381  0.1293 -0.0048  0.5397
  751TIP3    H123744   6.652   5.148  16.425 -0.9139 -1.2073 -0.1578
  751TIP3    H223745   6.803   5.134  16.436 -0.6269  1.9959  0.7400
  752TIP3   OH223746   4.246   5.901   5.073 -0.5854  0.1470  0.5013
  752TIP3    H123747   4.185   5.874   5.141 -0.4423  0.7059  0.8589
  752TIP3    H223748   4.229   5.841   5.000 -0.1470 -1.0219  1.3227
  753TIP3   OH223749   3.455   2.448   1.305  0.7504  0.3792  0.1196
  753TIP3    H123750   3.419   2.368   1.344 -1.7136  1.6384  0.6587
  753TIP3    H223751   3.481   2.502   1.380  3.5179 -0.3116 -0.2623
  754TIP3   OH223752   0.882   2.291   1.228 -0.0891 -0.0905  0.3287
  754TIP3    H123753   0.950   2.349   1.193 -2.9189  2.4267 -1.5096
  754TIP3    H223754   0.850   2.243   1.152 -1.9864  0.6362  0.6146
  755TIP3   OH223755   5.258   3.534  15.130 -0.2048 -0.3157  0.3389
  755TIP3    H123756   5.299   3.562  15.048 -2.3934  0.9836 -0.3847
  755TIP3    H223757   5.315   3.464  15.162  2.5033  1.2665 -0.6011
  756TIP3   OH223758   6.275   6.814  13.134  0.0707 -0.2648 -0.1045
  756TIP3    H123759   6.344   6.877  13.112  1.0971 -1.5625 -0.7563
  756TIP3    H223760   6.257   6.768  13.052 -0.9073 -0.5749  0.2747
  757TIP3   OH223761   5.538   0.312   0.053  0.4693 -0.0458  0.4280
  757TIP3    H123762   5.490   0.296  -0.029 -1.3027  0.0662  1.3798
  757TIP3    H223763   5.577   0.398   0.041  1.3238 -0.5798 -0.7782
  758TIP3   OH223764   1.482   6.844   2.440  0.3315 -0.1814  0.5087
  758TIP3    H123765   1.509   6.825   2.529  1.0510 -1.9073 -0.0305
  758TIP3    H223766   1.462   6.758   2.402 -0.1023  0.5197 -0.9451
  759TIP3   OH223767   3.303   4.768  14.019  0.0375 -0.4568 -0.2715
  759TIP3    H123768   3.319   4.856  14.052  0.3639 -0.8495  0.6594
  759TIP3    H223769   3.210   4.767  13.997 -0.4364 -0.4349  1.5321
  760TIP3   OH223770   1.308   3.101   0.687  0.6697 -0.2543  0.5410
  760TIP3    H123771   1.357   3.052   0.753  2.6722  1.2427  0.2797
  760TIP3    H223772   1.247   3.038   0.651  1.0720 -1.7182  2.2627
  761TIP3   OH223773   0.400   2.977  16.981 -0.1132  0.2104  0.2833
  761TIP3    H123774   0.384   3.000  17.072  0.0970 -1.3067  0.7141
  761TIP3    H223775   0.484   3.017  16.960  0.1726 -0.0328  0.9619
  762TIP3   OH223776   4.755   6.345   2.810  0.4650 -0.3271  0.4773
  762TIP3    H123777   4.681   6.353   2.871  1.0702  0.3366  1.1432
  762TIP3    H223778   4.778   6.435   2.788  1.5110 -0.4952  0.8283
  763TIP3   OH223779   2.103   4.002   4.343  0.0016  0.5192 -0.4717
  763TIP3    H123780   2.108   3.913   4.308 -0.7999  0.0778  0.4990
  763TIP3    H223781   2.057   4.052   4.276 -0.9216 -0.1643 -0.3597
  764TIP3   OH223782   4.003   3.407   1.303  0.2540 -0.1265  0.2246
  764TIP3    H123783   3.935   3.346   1.332  0.4513 -0.3727  0.1656
  764TIP3    H223784   3.965   3.449   1.225  0.1233 -0.1823  0.2572
  765TIP3   OH223785   6.407   2.852  14.604  0.3169 -0.2077 -0.0086
  765TIP3    H123786   6.388   2.935  14.560  1.1951  0.2890  0.5064
  765TIP3    H223787   6.347   2.789  14.565  0.0226  0.5529 -0.8112
  766TIP3   OH223788   0.603   2.735  11.327  0.1965 -0.5779 -0.1360
  766TIP3    H123789   0.512   2.751  11.353  0.5214 -2.2677  2.4264
  766TIP3    H223790   0.597   2.707  11.236 -1.8769 -0.8036  0.0087
  767TIP3   OH223791   6.617   1.732  12.906  0.2527  0.2210 -0.5687
  767TIP3    H123792   6.596   1.682  12.985 -0.5075  1.3097 -0.0629
  767TIP3    H223793   6.538   1.725  12.852  0.0377  1.0636 -0.3790
  768TIP3   OH223794   3.280   4.833  12.957  0.0799  0.2100 -0.2138
  768TIP3    H123795   3.211   4.786  12.910  0.2632  0.0291 -0.3024
  768TIP3    H223796   3.248   4.923  12.963 -0.3099  0.0587  0.0287
  769TIP3   OH223797   0.607   1.649   2.104 -0.3502  0.5442  1.0630
  769TIP3    H123798   0.588   1.730   2.151 -2.3606  0.3958  0.5950
  769TIP3    H223799   0.621   1.677   2.013 -0.3822  0.4231  1.0211
  770TIP3   OH223800   3.550   0.672   1.602 -0.7007 -0.7506  0.5933
  770TIP3    H123801   3.471   0.723   1.620 -0.1693 -0.1660  1.2943
  770TIP3    H223802   3.567   0.625   1.683  0.3524  0.0588  0.8646
  771TIP3   OH223803   6.385   3.271   2.804  1.1609  0.0568 -0.0145
  771TIP3    H123804   6.477   3.299   2.795  1.1784 -0.6911 -3.1678
  771TIP3    H223805   6.336   3.333   2.750  0.0762 -0.7561  0.0063
  772TIP3   OH223806   5.354   3.264  15.446  0.5104 -0.1402 -0.3671
  772TIP3    H123807   5.362   3.181  15.399  1.5426 -0.5002  0.4328
  772TIP3    H223808   5.275   3.253  15.500  0.6240 -0.5864 -0.2870
  773TIP3   OH223809   2.870   6.792   2.092  0.0163 -0.5902 -0.1705
  773TIP3    H123810   2.959   6.812   2.063 -0.8775  2.8196 -1.0451
  773TIP3    H223811   2.859   6.841   2.173 -0.6637 -2.1509  0.7289
  774TIP3   OH223812   1.198   4.799   1.717 -0.1775 -0.2808  0.0731
  774TIP3    H123813   1.257   4.732   1.682 -0.3605 -0.3583 -0.0873
  774TIP3    H223814   1.123   4.798   1.657 -0.6455 -0.6409  0.6570
  775TIP3   OH223815   5.693   4.087  12.326 -0.5400 -0.7985  0.5168
  775TIP3    H123816   5.625   4.046  12.273 -0.8503 -0.9402  1.0211
  775TIP3    H223817   5.767   4.027  12.321  0.1329  0.1181 -1.3413
  776TIP3   OH223818   3.161   3.280   4.283  0.1791 -0.3662 -0.2236
  776TIP3    H123819   3.207   3.305   4.203 -0.2322 -0.3037 -0.4429
  776TIP3    H223820   3.092   3.221   4.254 -1.4380  1.4382 -0.2271
  777TIP3   OH223821   6.633   1.417   3.558  0.0093 -0.0045 -0.5955
  777TIP3    H123822   6.671   1.410   3.471  1.5838  1.2930 -0.0571
  777TIP3    H223823   6.559   1.478   3.547  0.3303  0.3214 -0.9824
  778TIP3   OH223824   1.326   6.835  16.833  0.3607  0.0233  0.0560
  778TIP3    H123825   1.236   6.803  16.828  0.0630  0.7907  0.3266
  778TIP3    H223826   1.322   6.925  16.802  0.9174  0.2799  0.6952
  779TIP3   OH223827   5.875   2.568  13.412  0.2878 -0.0411  0.0234
  779TIP3    H123828   5.899   2.529  13.496 -0.5148  1.0011  0.7568
  779TIP3    H223829   5.798   2.621  13.431 -0.6441 -0.7176 -1.6113
  780TIP3   OH223830   1.105   3.607  15.381 -0.2791 -0.0418  0.4762
  780TIP3    H123831   1.178   3.653  15.339  0.5820 -0.2711  1.6776
  780TIP3    H223832   1.082   3.663  15.456 -2.3915  0.8381 -0.7344
  781TIP3   OH223833   3.111   0.104  11.550 -0.1064 -0.1992 -0.0531
  781TIP3    H123834   3.138   0.166  11.618 -0.0952 -0.2394 -0.0215
  781TIP3    H223835   3.183   0.041  11.546  0.8789  0.9298 -1.5154
  782TIP3   OH223836   2.949   6.324  16.549  0.0460  0.2991  0.0078
  782TIP3    H123837   2.929   6.375  16.628 -1.2021  0.7553 -0.5785
  782TIP3    H223838   2.872   6.334  16.494 -0.2494 -2.2597 -0.1319
  783TIP3   OH223839   0.525   5.972   0.166 -0.0222  0.2257 -0.3202
  783TIP3    H123840   0.566   6.023   0.096  0.4190  0.2416 -0.0548
  783TIP3    H223841   0.549   5.881   0.147  0.2901  0.2539 -0.0629
  784TIP3   OH223842   0.832   1.390  16.014  0.0596  0.1717 -0.2069
  784TIP3    H123843   0.851   1.321  16.077 -2.2693 -0.0507  0.3213
  784TIP3    H223844   0.919   1.422  15.987  1.2283 -2.9242 -0.5165
  785TIP3   OH223845   1.605   2.896   6.294  0.0474 -0.9612  0.0954
  785TIP3    H123846   1.602   2.903   6.199  0.6336 -0.9411  0.0735
  785TIP3    H223847   1.632   2.805   6.310  3.3414 -0.0812  0.1578
  786TIP3   OH223848   4.093   2.896   5.020  0.3269  0.6378 -0.5346
  786TIP3    H123849   4.088   2.952   5.097  0.6291  0.8290 -0.6509
  786TIP3    H223850   4.185   2.901   4.993  0.7081 -1.0981  0.3313
  787TIP3   OH223851   5.069   1.107   1.973  0.2594 -0.6170  0.2379
  787TIP3    H123852   5.004   1.143   1.912 -0.1020 -2.9804 -0.8840
  787TIP3    H223853   5.116   1.042   1.921  1.1540 -1.4382  2.0205
  788TIP3   OH223854   3.479   1.534   5.665  0.3772 -0.2086 -0.0886
  788TIP3    H123855   3.436   1.450   5.646  0.4402 -0.6528  1.5621
  788TIP3    H223856   3.421   1.599   5.625 -1.4559 -0.8448  1.3562
  789TIP3   OH223857   4.134   6.124   0.995 -0.4845  0.0647  0.0541
  789TIP3    H123858   4.206   6.185   1.009 -0.5815  0.1160  0.3387
  789TIP3    H223859   4.125   6.117   0.900 -1.4383  1.6399 -0.0037
  790TIP3   OH223860   3.746   5.722  14.861 -0.1265  0.0606 -0.1010
  790TIP3    H123861   3.821   5.777  14.882  0.9862 -1.0884 -0.9269
  790TIP3    H223862   3.716   5.753  14.776 -1.5296  1.4566  0.8499
  791TIP3   OH223863   2.077   5.782   4.620  0.0654 -0.2467 -0.0559
  791TIP3    H123864   2.124   5.760   4.700  1.3541 -1.6978 -1.1254
  791TIP3    H223865   2.000   5.726   4.622  0.1387 -0.3425  0.1412
  792TIP3   OH223866   1.986   0.458   2.484 -0.0947 -0.5159 -0.2651
  792TIP3    H123867   1.965   0.547   2.455  1.3978 -0.3275 -0.8621
  792TIP3    H223868   1.981   0.405   2.404 -1.7657 -1.1593  0.2229
  793TIP3   OH223869   6.695   4.646  16.321  0.4238  1.0368  0.1559
  793TIP3    H123870   6.675   4.565  16.275  1.2886  0.3118  1.0196
  793TIP3    H223871   6.741   4.618  16.400 -0.2719  2.2971  1.0455
  794TIP3   OH223872   6.337   1.912  16.216 -0.9818 -0.1852  0.3987
  794TIP3    H123873   6.307   1.886  16.129 -1.5800 -0.6691  0.7453
  794TIP3    H223874   6.326   2.006  16.218 -1.1716 -0.1975  0.0313
  795TIP3   OH223875   4.562   4.685   5.807 -0.1284 -0.2869 -0.0206
  795TIP3    H123876   4.656   4.682   5.789 -0.0368  0.9533  0.1211
  795TIP3    H223877   4.555   4.736   5.888 -0.8818 -1.1041  0.4493
  796TIP3   OH223878   4.829   6.003   3.079 -0.0538  0.4868 -0.0557
  796TIP3    H123879   4.742   5.987   3.042 -0.0238  0.5196 -0.1405
  796TIP3    H223880   4.821   6.088   3.123 -0.0031  0.5955 -0.2543
  797TIP3   OH223881   6.695   6.510  15.309 -0.3024 -0.5498  0.2546
  797TIP3    H123882   6.606   6.529  15.339 -0.7681  1.9334 -2.2542
  797TIP3    H223883   6.690   6.423  15.269 -2.3447  0.5133 -2.0750
  798TIP3   OH223884   1.176   0.521  13.158 -0.1621  0.2371  0.0130
  798TIP3    H123885   1.190   0.439  13.111 -1.3576 -0.3339  0.5900
  798TIP3    H223886   1.081   0.534  13.155  0.0574  1.9903 -0.6788
  799TIP3   OH223887   5.130   1.456   1.422 -0.7183  0.2683  0.1841
  799TIP3    H123888   5.156   1.415   1.340 -2.7973 -0.8896  0.0456
  799TIP3    H223889   5.039   1.483   1.409 -1.0560  0.1776  2.0352
  800TIP3   OH223890   2.184   0.305  13.025 -0.3553 -0.3559  0.2959
  800TIP3    H123891   2.114   0.263  12.975  0.5235 -1.5275  0.0045
  800TIP3    H223892   2.161   0.289  13.116 -0.3340 -0.9897  0.1965
  801TIP3   OH223893   5.624   3.750   1.836 -0.1280 -0.4072 -0.1066
  801TIP3    H123894   5.548   3.693   1.827  0.8476 -1.6846 -0.5169
  801TIP3    H223895   5.588   3.832   1.870 -1.5359 -1.3523  0.8138
  802TIP3   OH223896   5.517   2.845  14.531 -0.2173 -0.1649 -0.0159
  802TIP3    H123897   5.591   2.839  14.469  0.8281  0.1784  1.1627
  802TIP3    H223898   5.507   2.939  14.546  0.3378 -0.2974  1.2510
  803TIP3   OH223899   3.406   0.815  13.577 -0.9910  0.1792 -0.7168
  803TIP3    H123900   3.388   0.766  13.656 -0.3070 -0.2443 -0.8135
  803TIP3    H223901   3.383   0.756  13.505  1.0395 -0.5124 -0.8439
  804TIP3   OH223902   5.270   4.223  13.418 -0.2830  0.6355  0.2716
  804TIP3    H123903   5.295   4.285  13.350  1.8527 -2.1998 -1.7370
  804TIP3    H223904   5.192   4.180  13.383  0.0635  0.0678  0.1849
  805TIP3   OH223905   3.178   0.826  16.268  0.6470 -0.1555 -0.2030
  805TIP3    H123906   3.166   0.846  16.361 -1.6534  0.3354 -0.5448
  805TIP3    H223907   3.222   0.903  16.232 -2.2316  1.6537 -0.2309
  806TIP3   OH223908   0.844   0.896  16.594 -0.1021 -0.3232 -0.0948
  806TIP3    H123909   0.901   0.834  16.547  0.7222 -0.1713  0.6938
  806TIP3    H223910   0.832   0.857  16.680  0.8836  0.8713  0.6116
  807TIP3   OH223911   0.037   2.490   2.016  0.6132 -0.4643 -0.3103
  807TIP3    H123912   0.010   2.523   2.102  2.3073 -0.1495  0.1313
  807TIP3    H223913   0.111   2.545   1.991 -0.3367 -0.0458 -2.3617
  808TIP3   OH223914   1.318   0.361   6.148  0.3032  0.3143  0.3853
  808TIP3    H123915   1.316   0.349   6.053 -0.8118  2.2724  0.1015
  808TIP3    H223916   1.228   0.384   6.171  0.3947 -0.7661  2.0516
  809TIP3   OH223917   6.621   4.698  13.279  0.2329 -0.2622 -0.9173
  809TIP3    H123918   6.646   4.606  13.283 -1.4589 -0.7340  0.9203
  809TIP3    H223919   6.533   4.697  13.240 -1.1028  0.1603  1.8431
  810TIP3   OH223920   4.045   3.059  11.910  0.0949  0.2471 -0.1716
  810TIP3    H123921   4.024   2.967  11.925 -2.2894  0.5176 -1.3871
  810TIP3    H223922   4.121   3.057  11.851  0.8859 -0.8825  0.8436
  811TIP3   OH223923   2.951   2.327  12.879 -0.4003 -0.5841 -0.1849
  811TIP3    H123924   2.997   2.264  12.823 -1.9531 -1.5218 -0.4762
  811TIP3    H223925   3.018   2.390  12.905  0.9107 -1.5907 -1.0049
  812TIP3   OH223926   5.514   0.004   5.503  0.0017  0.0944  0.1480
  812TIP3    H123927   5.507  -0.085   5.537 -0.0034 -0.7433 -1.8591
  812TIP3    H223928   5.561  -0.007   5.420  0.1455  1.9902 -0.0478
  813TIP3   OH223929   2.695   1.404   2.281  0.1575 -0.2908  0.3716
  813TIP3    H123930   2.757   1.410   2.208 -0.0587  0.0275  0.2131
  813TIP3    H223931   2.632   1.475   2.265  0.1679 -0.1533  0.9195
  814TIP3   OH223932   6.030   0.368  14.973  0.6345  0.7572  0.0353
  814TIP3    H123933   6.077   0.313  14.910  0.6490  0.3731  0.3798
  814TIP3    H223934   5.999   0.307  15.040  0.5615  1.1542  0.3662
  815TIP3   OH223935   1.027   5.336   4.230  0.6441  0.1692  0.1251
  815TIP3    H123936   0.994   5.253   4.193  0.5069  0.9545 -1.5839
  815TIP3    H223937   1.122   5.326   4.229  0.6462 -1.1825  2.9229
  816TIP3   OH223938   4.206   1.210   1.478  0.5906  0.2696  0.1588
  816TIP3    H123939   4.165   1.173   1.400  1.9610 -0.9683 -0.0077
  816TIP3    H223940   4.268   1.274   1.445 -0.1660  1.1444  0.3568
  817TIP3   OH223941   3.017   2.648   0.843 -0.4196  0.0250 -0.1295
  817TIP3    H123942   3.010   2.617   0.933 -0.4685  1.1634  0.2748
  817TIP3    H223943   2.966   2.729   0.841  0.7283  0.7687 -0.8137
  818TIP3   OH223944   1.771   2.092  11.184  0.3062  0.9187  0.1213
  818TIP3    H123945   1.833   2.158  11.218 -1.2346  0.7253  3.6661
  818TIP3    H223946   1.687   2.138  11.181 -0.1370  0.0652 -0.7574
  819TIP3   OH223947   5.277   6.043   3.164  0.0801  0.5263 -0.0327
  819TIP3    H123948   5.251   6.017   3.253  0.4299  0.5756  0.0856
  819TIP3    H223949   5.208   6.103   3.136  0.5542  1.4105  0.6470
  820TIP3   OH223950   1.517   2.476   2.477 -0.3879  0.0511  0.4510
  820TIP3    H123951   1.451   2.545   2.471 -0.9263 -0.5114 -0.1653
  820TIP3    H223952   1.563   2.479   2.393 -0.4156 -0.3389  0.4185
  821TIP3   OH223953   1.546   0.787   5.981 -0.3356 -0.3533  0.0551
  821TIP3    H123954   1.587   0.817   6.063 -0.6751 -0.9955  0.4707
  821TIP3    H223955   1.472   0.734   6.010 -1.6329  0.9875 -0.6931
  822TIP3   OH223956   3.371   1.939  17.044  0.0470  0.0712 -0.1175
  822TIP3    H123957   3.386   1.856  17.091 -2.3102 -0.5520 -0.3631
  822TIP3    H223958   3.419   1.928  16.962  1.5931 -0.1176  0.7671
  823TIP3   OH223959   4.747   3.147  13.146  0.2608 -0.0423  0.7931
  823TIP3    H123960   4.675   3.206  13.125 -0.0364  0.3395  2.7360
  823TIP3    H223961   4.817   3.204  13.178 -0.1094 -0.6980  2.9277
  824TIP3   OH223962   1.458   1.383   0.387 -0.0232 -0.0175 -0.0668
  824TIP3    H123963   1.418   1.296   0.387 -0.3844  0.1490 -0.3416
  824TIP3    H223964   1.449   1.413   0.478  0.8378 -0.5979  0.2271
  825TIP3   OH223965   4.548   5.641  12.960  0.1661 -0.5312  0.7268
  825TIP3    H123966   4.624   5.681  13.002  0.1293 -1.7476  1.9917
  825TIP3    H223967   4.573   5.550  12.946  0.6559  0.0102 -3.0654
  826TIP3   OH223968   1.260   2.684  13.870 -0.4569 -0.0531 -0.3660
  826TIP3    H123969   1.324   2.674  13.940 -1.5204 -0.3374  0.6019
  826TIP3    H223970   1.226   2.773  13.882 -0.0118  0.2202 -1.0859
  827TIP3   OH223971   6.428   6.515  15.384  0.6355 -0.7828  0.1901
  827TIP3    H123972   6.367   6.562  15.441  0.9422 -0.4450  0.2454
  827TIP3    H223973   6.381   6.504  15.302  0.0234 -1.6595  0.6433
  828TIP3   OH223974   5.308   2.176   0.948 -0.1875  0.8652 -0.6546
  828TIP3    H123975   5.252   2.131   0.885 -1.4639  0.0556  0.9991
  828TIP3    H223976   5.339   2.107   1.006  1.3855  1.5199 -0.6605
  829TIP3   OH223977   5.675   4.102   3.752 -0.0655  0.0113  0.1974
  829TIP3    H123978   5.686   4.172   3.817  1.8514  0.6553 -0.7510
  829TIP3    H223979   5.646   4.147   3.673  2.3542  0.0077 -0.7854
  830TIP3   OH223980   2.643   0.506  15.133  0.2035 -0.4929 -0.1839
  830TIP3    H123981   2.687   0.590  15.145  2.4970 -1.4544 -1.3140
  830TIP3    H223982   2.585   0.520  15.058  1.0605 -0.0961 -0.7803
  831TIP3   OH223983   1.877   1.372   3.787  0.0806 -0.0632  0.2446
  831TIP3    H123984   1.783   1.351   3.789 -0.1370  0.8395 -0.0595
  831TIP3    H223985   1.884   1.442   3.722  1.0721 -0.6089 -0.2590
  832TIP3   OH223986   2.072   0.260  15.256 -0.2701  0.3535 -0.2519
  832TIP3    H123987   2.086   0.171  15.288  0.5551  0.5643  0.0197
  832TIP3    H223988   2.079   0.253  15.161  1.4602  0.3713 -0.1614
  833TIP3   OH223989   3.542   1.812   2.398 -0.5108 -0.2110 -0.1435
  833TIP3    H123990   3.467   1.759   2.423 -0.5152 -0.0391  0.2323
  833TIP3    H223991   3.513   1.902   2.414 -1.2890  0.1025 -2.8408
  834TIP3   OH223992   4.380   0.038   3.344 -0.1708  0.1019 -0.3722
  834TIP3    H123993   4.323   0.111   3.322 -0.9352 -0.0598  0.9403
  834TIP3    H223994   4.323  -0.039   3.340  0.0927 -0.1427  0.3122
  835TIP3   OH223995   1.607   0.018   4.243  0.0377 -0.0634 -0.0447
  835TIP3    H123996   1.674  -0.049   4.256 -0.2008 -0.5756 -1.2568
  835TIP3    H223997   1.613   0.074   4.320  2.3587  0.3597 -0.4723
  836TIP3   OH223998   1.900   3.136  14.708 -0.2293 -0.4817 -0.2215
  836TIP3    H123999   1.804   3.137  14.714 -0.1835  0.2258  0.3933
  836TIP3    H224000   1.929   3.096  14.790 -0.0400 -2.5829 -1.2304
  837TIP3   OH224001   4.517   2.863  10.043  0.7737  0.0867 -0.0158
  837TIP3    H124002   4.500   2.949  10.081  0.1290 -0.2845  0.5790
  837TIP3    H224003   4.537   2.880   9.951 -2.5487  0.6853 -0.7696
  838TIP3   OH224004   4.635   3.727  16.904  0.3829 -0.2306 -0.1004
  838TIP3    H124005   4.695   3.666  16.861 -0.5506 -1.7444  0.6619
  838TIP3    H224006   4.569   3.746  16.838  0.0655 -0.9430  0.0044
  839TIP3   OH224007   1.831   4.223   1.405 -0.1152 -0.3300  0.0360
  839TIP3    H124008   1.793   4.311   1.405 -1.2289 -0.7673 -1.5242
  839TIP3    H224009   1.759   4.167   1.435  0.4849 -0.7532  0.7055
  840TIP3   OH224010   4.225   5.057  12.901 -0.5468  0.0904  0.0286
  840TIP3    H124011   4.148   5.045  12.956 -1.0792 -0.1342 -0.7530
  840TIP3    H224012   4.287   4.990  12.930 -0.9100 -0.1717  0.1905
  841TIP3   OH224013   2.395   2.567  12.246  0.1619 -0.5021  0.2168
  841TIP3    H124014   2.324   2.504  12.260 -2.6418  2.7404  2.5503
  841TIP3    H224015   2.367   2.619  12.171  2.1757 -1.5515 -1.3576
  842TIP3   OH224016   5.551   2.594   2.723  0.0076  0.1580  0.0195
  842TIP3    H124017   5.607   2.614   2.798  0.8705 -0.9008 -0.2957
  842TIP3    H224018   5.465   2.577   2.761  0.3795 -0.1448  0.7585
  843TIP3   OH224019   4.667   6.459   0.505  0.2495  0.1533  0.1299
  843TIP3    H124020   4.644   6.392   0.440 -1.2517  0.4275  0.3351
  843TIP3    H224021   4.733   6.417   0.560 -0.6261 -1.1775  0.2180
  844TIP3   OH224022   2.483   4.336  13.153  0.1444 -0.1409 -0.3179
  844TIP3    H124023   2.556   4.346  13.092  0.4303  0.1248  0.0683
  844TIP3    H224024   2.405   4.343  13.097  0.4068 -0.2836 -0.7097
  845TIP3   OH224025   4.414   1.834  12.805  0.3398  0.2974 -0.4624
  845TIP3    H124026   4.467   1.901  12.847 -0.2058  0.4208  0.0280
  845TIP3    H224027   4.430   1.755  12.856  0.4730  0.2043 -0.6454
  846TIP3   OH224028   2.827   5.168   2.206 -1.1974 -0.5634 -0.1742
  846TIP3    H124029   2.908   5.148   2.254 -1.5453 -1.3412  0.1047
  846TIP3    H224030   2.815   5.262   2.217 -0.2442 -0.4113 -0.3513
  847TIP3   OH224031   1.306   3.449  15.978  0.2002  0.1469  0.4058
  847TIP3    H124032   1.270   3.537  15.989 -2.0037 -0.6358 -0.0804
  847TIP3    H224033   1.283   3.403  16.059  1.7482  0.1059  0.8563
  848TIP3   OH224034   4.920   0.468  12.126 -0.5750 -0.4991  0.3563
  848TIP3    H124035   4.885   0.428  12.206  0.0034 -1.0503  0.3422
  848TIP3    H224036   4.897   0.407  12.056 -1.6049  0.2703 -0.0037
  849TIP3   OH224037   3.062   2.408   3.563  0.7183 -0.0467  0.0879
  849TIP3    H124038   3.121   2.466   3.611  0.9926 -0.4237  0.2124
  849TIP3    H224039   3.089   2.320   3.588 -0.8089 -0.2189  1.2381
  850TIP3   OH224040   5.818   1.216  16.746  0.1764 -0.1648  0.0708
  850TIP3    H124041   5.876   1.291  16.732 -0.8540  0.7160  0.4412
  850TIP3    H224042   5.839   1.186  16.834 -0.9769  1.1052  0.7968
  851TIP3   OH224043   6.332   3.589   1.566  0.0148  0.1032 -0.2465
  851TIP3    H124044   6.268   3.519   1.580 -0.1798  0.3683  0.2254
  851TIP3    H224045   6.279   3.665   1.544  0.1608  0.3560  0.2733
  852TIP3   OH224046   1.962   1.014   6.108  0.4993 -0.2175  0.4139
  852TIP3    H124047   2.045   1.050   6.141  0.5547 -0.9583  1.1274
  852TIP3    H224048   1.905   1.090   6.099  1.1256  0.2513  0.3122
  853TIP3   OH224049   5.101   2.274  15.433  0.2511  0.4442  0.2468
  853TIP3    H124050   5.116   2.286  15.527 -0.4080 -1.9664  0.7048
  853TIP3    H224051   5.110   2.180  15.419 -0.7159  0.6327 -1.9294
  854TIP3   OH224052   4.902   1.133  11.896  0.1696  0.0583  0.3382
  854TIP3    H124053   4.841   1.075  11.941  0.2291  0.2687  0.7005
  854TIP3    H224054   4.915   1.205  11.958  2.4755 -1.0215  1.2136
  855TIP3   OH224055   4.081   1.955  15.035  0.2205  0.0538  0.4526
  855TIP3    H124056   4.035   1.996  14.962 -0.0594  1.0896  1.1885
  855TIP3    H224057   4.057   1.862  15.030  2.4865 -0.5369 -2.4939
  856TIP3   OH224058   6.522   3.991   3.274  0.2575 -0.0973 -0.0573
  856TIP3    H124059   6.607   3.977   3.317 -0.8382 -1.1875  1.8880
  856TIP3    H224060   6.532   3.950   3.188  1.4543 -0.9599  0.4573
  857TIP3   OH224061   4.657   1.658   1.515 -0.1050  0.3705  0.0029
  857TIP3    H124062   4.707   1.738   1.502 -1.0398  1.0649  0.5715
  857TIP3    H224063   4.714   1.603   1.570  1.7731 -0.5950 -2.6865
  858TIP3   OH224064   3.360   3.852   0.047  0.3587 -0.2357 -0.1320
  858TIP3    H124065   3.335   3.802  -0.030 -3.0538  0.1481  0.5834
  858TIP3    H224066   3.302   3.821   0.116  1.2816  1.4942  1.5218
  859TIP3   OH224067   3.984   0.494  11.521 -0.3638 -0.2052  0.4975
  859TIP3    H124068   4.047   0.525  11.586 -0.1848 -0.6214  0.5259
  859TIP3    H224069   3.965   0.571  11.468  0.9947 -0.2963 -0.1933
  860TIP3   OH224070   1.375   5.013   5.239  0.7805 -0.0369  0.5183
  860TIP3    H124071   1.360   4.971   5.323  0.7964 -0.4688  0.3070
  860TIP3    H224072   1.303   4.983   5.183 -0.3203  1.7248  0.9037
  861TIP3   OH224073   2.859   3.549   2.371 -0.5345  0.4157  0.0840
  861TIP3    H124074   2.879   3.636   2.406 -0.1280  0.2214  0.3418
  861TIP3    H224075   2.809   3.567   2.292 -2.0434  0.8605  1.0852
  862TIP3   OH224076   0.861   0.430   2.045  0.1962 -0.1484  0.2554
  862TIP3    H124077   0.825   0.470   2.124  0.8321  1.8539 -0.3952
  862TIP3    H224078   0.955   0.427   2.060  0.4873  1.5981 -0.9342
  863TIP3   OH224079   2.056   1.409   5.991  0.2648  0.0546  0.2892
  863TIP3    H124080   2.071   1.356   6.069 -0.7773  0.0840  0.5285
  863TIP3    H224081   2.142   1.418   5.951  0.5970 -1.1235  0.6900
  864TIP3   OH224082   2.568   5.672  16.315 -0.3544 -0.3090 -0.1823
  864TIP3    H124083   2.500   5.624  16.362 -0.6744 -2.1671 -2.4067
  864TIP3    H224084   2.650   5.633  16.344 -0.3407  0.4158  0.8168
  865TIP3   OH224085   3.264   5.344  11.902  0.2409  0.0120 -0.4654
  865TIP3    H124086   3.337   5.290  11.932  1.2902  0.8349 -1.4690
  865TIP3    H224087   3.305   5.416  11.854 -1.2390  0.2796 -1.4039
  866TIP3   OH224088   4.714   0.959   3.658 -0.5686 -0.1095  0.4813
  866TIP3    H124089   4.780   0.981   3.724  0.0313  0.5943 -0.3232
  866TIP3    H224090   4.675   0.877   3.688  2.3364 -1.8701 -0.2099
  867TIP3   OH224091   4.506   6.228  13.718 -0.1463 -0.6461  0.7762
  867TIP3    H124092   4.426   6.205  13.765  0.5770  0.0442  2.4318
  867TIP3    H224093   4.497   6.185  13.633 -2.8172  0.4296  0.4059
  868TIP3   OH224094   2.026   1.571   2.818  0.3211  0.7865  0.6281
  868TIP3    H124095   1.965   1.606   2.752  0.2976 -0.1572  0.1322
  868TIP3    H224096   1.972   1.556   2.895 -0.2650 -0.7061 -0.0259
  869TIP3   OH224097   5.964   5.141   2.128  0.3515 -0.0401  0.0260
  869TIP3    H124098   5.925   5.223   2.098 -0.5970 -0.3910  0.2698
  869TIP3    H224099   6.003   5.103   2.049 -0.2951  0.0479 -0.3395
  870TIP3   OH224100   5.001   0.767   5.110  0.2103 -0.1337  0.9373
  870TIP3    H124101   4.936   0.820   5.157 -1.0151  0.4963 -1.3355
  870TIP3    H224102   4.949   0.712   5.051  1.7281  0.2043 -0.7813
  871TIP3   OH224103   3.406   2.149  15.443  0.3218  0.1643 -0.2424
  871TIP3    H124104   3.421   2.183  15.531  1.9345 -0.0247 -0.4026
  871TIP3    H224105   3.408   2.226  15.386  1.4603  0.0969 -0.3266
  872TIP3   OH224106   0.784   6.013  14.760 -0.1401  0.2583 -0.1401
  872TIP3    H124107   0.758   6.100  14.731 -1.9434 -0.6400 -1.3985
  872TIP3    H224108   0.842   6.029  14.835  1.2019  2.5649 -1.5465
  873TIP3   OH224109   5.821   0.349   0.636 -0.7188  0.3981  0.1415
  873TIP3    H124110   5.771   0.315   0.562 -0.3561 -0.0701  0.1060
  873TIP3    H224111   5.838   0.441   0.613 -0.7217  0.2925 -0.2955
  874TIP3   OH224112   1.210   4.452   5.542 -0.3868  0.3600  0.0334
  874TIP3    H124113   1.302   4.452   5.570 -0.0520 -0.5195 -1.0063
  874TIP3    H224114   1.162   4.417   5.616  0.4007 -1.3227 -0.2144
  875TIP3   OH224115   5.235   6.443  13.200 -0.2712 -0.5259  0.7004
  875TIP3    H124116   5.264   6.354  13.222 -1.2558 -0.7793  1.0443
  875TIP3    H224117   5.151   6.430  13.155  0.5605  0.1270 -1.1375
  876TIP3   OH224118   2.494   3.704  12.215  0.0367  0.2155 -0.3020
  876TIP3    H124119   2.448   3.671  12.292 -1.0083 -1.8227 -1.6937
  876TIP3    H224120   2.578   3.658  12.216  0.2931  0.6762 -0.0694
  877TIP3   OH224121   6.006   0.569   5.021 -0.4016  0.4110 -0.4033
  877TIP3    H124122   5.963   0.531   4.945 -0.8228 -2.9557  1.3232
  877TIP3    H224123   6.096   0.587   4.991 -0.4749 -1.1025 -1.6240
  878TIP3   OH224124   4.740   4.644   5.112  0.7130  0.3144 -0.1783
  878TIP3    H124125   4.717   4.736   5.124  0.3747  0.4491 -1.6461
  878TIP3    H224126   4.834   4.644   5.095  1.1881  0.1255  2.1303
  879TIP3   OH224127   1.205   4.682   0.869 -0.4711 -0.2502  0.1981
  879TIP3    H124128   1.173   4.626   0.799  0.3458  0.4921 -0.8069
  879TIP3    H224129   1.281   4.635   0.904  0.8732  0.6631 -1.3622
  880TIP3   OH224130   3.923   4.788  13.905  0.6680 -0.7737 -0.0632
  880TIP3    H124131   3.952   4.811  13.816  1.3300 -2.5941 -0.3632
  880TIP3    H224132   3.999   4.803  13.960  1.4077 -2.9389 -0.4077
  881TIP3   OH224133   4.086   0.593   0.684 -0.6421 -0.0303  0.2216
  881TIP3    H124134   4.065   0.668   0.628 -1.1937 -1.0479 -0.9728
  881TIP3    H224135   4.180   0.599   0.698 -0.9906  2.3094  2.2794
  882TIP3   OH224136   4.996   1.186  17.142  0.2352 -0.4013 -0.0440
  882TIP3    H124137   5.018   1.121  17.076  1.4474  0.3634 -0.4129
  882TIP3    H224138   4.933   1.244  17.099 -2.0987 -2.1493  0.7730
  883TIP3   OH224139   2.050   6.032   1.548 -0.0756 -0.3217 -0.1061
  883TIP3    H124140   2.047   6.088   1.470  2.8154  1.1481  0.7122
  883TIP3    H224141   1.960   6.032   1.580 -0.8057  1.2711 -1.9152
  884TIP3   OH224142   1.240   2.207  13.188 -0.3732  0.4575  0.3971
  884TIP3    H124143   1.169   2.271  13.189 -0.0157  0.8546  0.4261
  884TIP3    H224144   1.287   2.222  13.271 -1.5454 -1.2541  1.4373
  885TIP3   OH224145   0.769   1.441   1.122 -0.6162  0.1314 -0.3351
  885TIP3    H124146   0.800   1.487   1.043 -1.7557  0.8831 -0.3680
  885TIP3    H224147   0.732   1.360   1.088 -1.2598  0.5299 -0.6029
  886TIP3   OH224148   1.253   0.706  14.499 -0.2145  0.3159 -0.1917
  886TIP3    H124149   1.288   0.793  14.521 -1.8318  1.0633 -0.4213
  886TIP3    H224150   1.172   0.699  14.549 -0.0150 -1.1677 -0.0341
  887TIP3   OH224151   3.049   3.036   4.718 -0.0295 -0.1317  0.3102
  887TIP3    H124152   2.979   3.102   4.715 -0.9289 -1.1035 -1.4788
  887TIP3    H224153   3.122   3.078   4.673  0.9886  1.2692  3.0373
  888TIP3   OH224154   4.002   5.136   2.989 -0.0846 -0.3679 -0.3295
  888TIP3    H124155   3.929   5.166   3.043 -0.3796 -2.5615  0.5948
  888TIP3    H224156   4.023   5.210   2.933 -0.7173  1.5256  1.8028
  889TIP3   OH224157   5.893   5.842  12.734  0.5318 -0.5718 -0.5375
  889TIP3    H124158   5.986   5.845  12.754  0.5411 -0.1673 -0.6287
  889TIP3    H224159   5.887   5.873  12.644  0.3273 -0.7688 -0.5912
  890TIP3   OH224160   2.752   5.352  10.492  0.2265  0.0670 -0.5330
  890TIP3    H124161   2.683   5.348  10.426  1.5087 -1.8723 -1.8840
  890TIP3    H224162   2.776   5.445  10.496 -2.2406  0.7590 -0.1487
  891TIP3   OH224163   1.363   6.818  11.626 -0.3754 -0.2579  0.2879
  891TIP3    H124164   1.372   6.802  11.532 -1.1190  2.8875 -0.4285
  891TIP3    H224165   1.451   6.836  11.657 -0.4289  1.4055 -0.4430
  892TIP3   OH224166   2.052   6.715   2.416  0.2922 -0.2466 -0.2071
  892TIP3    H124167   1.974   6.769   2.422 -0.8743 -1.6579 -1.8591
  892TIP3    H224168   2.030   6.636   2.466 -0.0724 -1.4127 -2.1302
  893TIP3   OH224169   0.073   4.232  14.215 -0.5548 -0.5742  0.2928
  893TIP3    H124170   0.028   4.227  14.299 -1.0149  0.4467  0.1189
  893TIP3    H224171   0.009   4.268  14.154 -0.5166 -2.1262 -0.7340
  894TIP3   OH224172   5.322   6.286  11.696  0.1538 -0.4308 -0.2986
  894TIP3    H124173   5.368   6.240  11.626  0.1349  0.3736 -0.8512
  894TIP3    H224174   5.282   6.217  11.748 -0.1153 -1.0283 -1.2802
  895TIP3   OH224175   1.277   1.618   1.672 -0.0562 -0.2208 -0.0726
  895TIP3    H124176   1.227   1.544   1.708 -1.2836  0.2608 -0.7506
  895TIP3    H224177   1.219   1.693   1.681  1.9383  1.1516  2.5100
  896TIP3   OH224178   2.114   5.345   2.101  0.0313 -0.2108 -0.4363
  896TIP3    H124179   2.164   5.314   2.025  1.5039 -0.9969  0.7953
  896TIP3    H224180   2.041   5.284   2.108 -0.2000 -0.0414 -1.3081
  897TIP3   OH224181   4.572   6.758  13.784  0.1158  0.3109 -0.4285
  897TIP3    H124182   4.609   6.695  13.846 -0.6450 -0.6976 -0.9759
  897TIP3    H224183   4.632   6.754  13.709  1.0631  1.5659  0.2275
  898TIP3   OH224184   6.490   5.498   3.149  0.2937  0.4007 -0.4457
  898TIP3    H124185   6.527   5.410   3.158 -0.4108  0.2399  1.2841
  898TIP3    H224186   6.491   5.534   3.238 -0.5446  1.6846 -0.9196
  899TIP3   OH224187   2.065   6.086  14.877 -0.2123 -0.0475  0.3114
  899TIP3    H124188   2.157   6.086  14.901  0.4929 -2.9578 -1.8126
  899TIP3    H224189   2.040   5.994  14.876 -3.8491  0.6553  2.8532
  900TIP3   OH224190   0.469   5.684   3.567 -0.3533  0.1321  0.8667
  900TIP3    H124191   0.444   5.602   3.609 -1.9026  0.3846  0.4987
  900TIP3    H224192   0.462   5.666   3.473  1.3730  0.0882  0.7105
  901TIP3   OH224193   3.059   6.233   2.136 -0.0073  0.0586  0.0294
  901TIP3    H124194   3.044   6.252   2.228  0.9568 -1.9493  0.6667
  901TIP3    H224195   3.130   6.292   2.111 -0.2210  0.5627  0.5750
  902TIP3   OH224196   1.475   1.056   3.575 -0.5924  0.1351 -0.1074
  902TIP3    H124197   1.492   1.137   3.526 -0.5827 -0.7292 -1.6128
  902TIP3    H224198   1.380   1.056   3.588 -0.4208  1.2330  1.5253
  903TIP3   OH224199   2.527   4.536   1.226  0.1158 -0.0697 -0.6967
  903TIP3    H124200   2.564   4.615   1.265  1.5586 -0.1344 -1.8300
  903TIP3    H224201   2.543   4.546   1.132 -1.4717 -0.8138 -1.0871
  904TIP3   OH224202   0.274   4.914   3.991  0.6304  0.3650 -0.1879
  904TIP3    H124203   0.228   4.831   3.998  1.0328  0.2413  1.3965
  904TIP3    H224204   0.222   4.975   4.044  2.5630  0.0473  2.2634
  905TIP3   OH224205   0.533   0.824   4.331  0.1006 -0.1353  0.0224
  905TIP3    H124206   0.522   0.789   4.419 -2.0550 -1.5408 -0.7267
  905TIP3    H224207   0.621   0.798   4.306  0.3655 -0.6262  1.3713
  906TIP3   OH224208   2.956   0.855  15.038  0.2250  0.3194 -0.1018
  906TIP3    H124209   3.025   0.912  15.005  0.2004 -0.1148 -0.9395
  906TIP3    H224210   2.989   0.766  15.024 -0.0061  0.1182  0.5932
  907TIP3   OH224211   1.502   6.546   4.129  0.5663 -0.0227 -0.7370
  907TIP3    H124212   1.453   6.533   4.047 -0.7771  1.2639 -0.1899
  907TIP3    H224213   1.578   6.597   4.103 -1.0569  2.4959 -0.9289
  908TIP3   OH224214   3.757   0.395  15.504  0.3269  0.5758 -0.1036
  908TIP3    H124215   3.708   0.448  15.442 -1.9243  0.1554  1.2129
  908TIP3    H224216   3.762   0.308  15.464 -2.2548 -0.0559  0.7265
  909TIP3   OH224217   3.214   4.631   3.190  0.2311  0.6153 -0.2943
  909TIP3    H124218   3.223   4.707   3.133 -1.0457 -0.6140 -2.2430
  909TIP3    H224219   3.263   4.562   3.145 -0.1751 -0.1914  0.4710
  910TIP3   OH224220   1.567   1.266  14.205 -0.1240 -0.6069 -0.0093
  910TIP3    H124221   1.620   1.253  14.284 -0.7471  0.5401  0.6262
  910TIP3    H224222   1.490   1.211  14.218 -0.3421 -0.2301  0.3002
  911TIP3   OH224223   3.082   2.566  11.316  0.4834  0.4582 -0.2644
  911TIP3    H124224   3.040   2.518  11.388  1.2479  0.6141  0.3137
  911TIP3    H224225   3.021   2.559  11.243 -1.8111  2.8662  1.2300
  912TIP3   OH224226   2.585   4.396  14.370 -0.9096  0.4036 -0.2880
  912TIP3    H124227   2.588   4.477  14.420 -1.9899  0.0245  0.4522
  912TIP3    H224228   2.666   4.350  14.392 -0.6382  0.9557 -0.1330
  913TIP3   OH224229   3.868   4.986   0.054 -0.1658 -0.2355 -0.0183
  913TIP3    H124230   3.781   4.965   0.019  0.2979  1.1265 -2.1959
  913TIP3    H224231   3.920   5.009  -0.024  1.6090  0.8095  1.4063
  914TIP3   OH224232   1.372   1.968  12.671 -0.3300  0.1461  0.7260
  914TIP3    H124233   1.328   1.884  12.687  1.3080 -0.8578  0.2354
  914TIP3    H224234   1.438   1.974  12.740 -0.5721  1.1465  0.8795
  915TIP3   OH224235   1.700   0.745  12.944  0.0657 -0.4904 -0.6065
  915TIP3    H124236   1.639   0.758  13.016  0.1659 -1.3365 -0.3612
  915TIP3    H224237   1.647   0.759  12.865 -0.5392 -1.5485 -0.3997
  916TIP3   OH224238   3.064   1.023   0.931 -0.4861 -0.3637  0.5096
  916TIP3    H124239   2.975   1.008   0.963 -0.0756 -0.2495  1.7278
  916TIP3    H224240   3.104   1.081   0.995  0.1146  0.5427 -0.6398
  917TIP3   OH224241   6.340   3.254   2.314 -0.1105  0.0764 -0.0759
  917TIP3    H124242   6.310   3.305   2.389  0.7146 -0.4837  0.6556
  917TIP3    H224243   6.262   3.239   2.262 -0.8791 -0.3158  1.1528
  918TIP3   OH224244   2.627   5.791  11.751 -0.2491  0.4305 -0.3176
  918TIP3    H124245   2.604   5.882  11.730  0.1119  0.6736  0.3167
  918TIP3    H224246   2.682   5.763  11.677 -0.1611  0.8100 -0.4000
  919TIP3   OH224247   5.535   4.484  15.143 -0.1093 -0.2661  0.2097
  919TIP3    H124248   5.576   4.424  15.081  0.7350  3.2113 -2.9996
  919TIP3    H224249   5.445   4.493  15.113 -0.1502  0.2444  0.4703
  920TIP3   OH224250   4.654   5.445  12.288 -0.7395  0.4205 -0.1656
  920TIP3    H124251   4.558   5.447  12.280 -0.9792  1.9859  2.0550
  920TIP3    H224252   4.671   5.477  12.377  1.9157  3.1261 -1.4470
  921TIP3   OH224253   1.429   0.191   4.115 -0.4534 -0.0154 -0.2258
  921TIP3    H124254   1.485   0.125   4.155  0.6237  0.6446 -0.5925
  921TIP3    H224255   1.373   0.142   4.055 -1.0291 -0.8187  0.9358
  922TIP3   OH224256   0.295   1.435   0.264 -0.0945 -0.4861  0.3934
  922TIP3    H124257   0.350   1.497   0.216 -0.0330 -0.6381  0.2678
  922TIP3    H224258   0.209   1.476   0.264 -0.7536 -1.6865 -2.1603
  923TIP3   OH224259   0.293   2.363  15.283 -0.0651  0.8152  0.0482
  923TIP3    H124260   0.211   2.330  15.245 -0.8796 -0.8519  2.9664
  923TIP3    H224261   0.355   2.361  15.210 -2.0958  0.2849 -1.8019
  924TIP3   OH224262   5.490   1.248  13.938  0.0618  0.0081  0.7533
  924TIP3    H124263   5.397   1.267  13.922 -0.0222 -1.1398 -0.2327
  924TIP3    H224264   5.491   1.201  14.021 -0.2033  0.2581  0.8996
  925TIP3   OH224265   5.130   2.388  11.371 -0.4823  0.1994 -0.4923
  925TIP3    H124266   5.041   2.365  11.398 -1.5442  1.1862 -2.9424
  925TIP3    H224267   5.164   2.442  11.443 -1.0440 -1.8235  1.3995
  926TIP3   OH224268   3.135   0.503  11.535 -0.1302  0.2516 -0.0284
  926TIP3    H124269   3.089   0.587  11.533  2.3620  1.8845  2.7658
  926TIP3    H224270   3.228   0.526  11.538  0.6801 -2.6193  0.7170
  927TIP3   OH224271   4.741   3.291   0.093  0.1694  0.2067  0.2120
  927TIP3    H124272   4.652   3.279   0.125  0.0768  2.2436  0.9083
  927TIP3    H224273   4.746   3.236   0.015 -0.6780 -2.2935  1.8002
  928TIP3   OH224274   3.003   6.383  15.724  0.4850  0.3393 -0.0311
  928TIP3    H124275   2.948   6.330  15.666  0.4845 -0.2677  0.5193
  928TIP3    H224276   2.965   6.471  15.718 -0.6083 -0.0827  0.3945
  929TIP3   OH224277   2.364   1.209  14.658  0.1715  0.0511 -0.5422
  929TIP3    H124278   2.434   1.270  14.683  0.7607 -1.7944  2.8800
  929TIP3    H224279   2.288   1.265  14.643  1.2460  1.8097  0.1937
  930TIP3   OH224280   1.337   1.561   0.638 -0.3883  0.1745  0.4629
  930TIP3    H124281   1.278   1.636   0.643  0.4926  1.1138 -1.7439
  930TIP3    H224282   1.410   1.584   0.696  0.3364  1.5545 -0.9059
  931TIP3   OH224283   3.285   0.624   0.516 -0.3969  0.3457  0.5491
  931TIP3    H124284   3.351   0.556   0.502  0.6005  1.1777  1.1165
  931TIP3    H224285   3.272   0.626   0.611 -0.8533  0.5572  0.4843
  932TIP3   OH224286   3.324   0.507   5.293  0.0094  0.1018 -0.1239
  932TIP3    H124287   3.366   0.514   5.379  0.5204  2.6038 -0.4771
  932TIP3    H224288   3.378   0.562   5.236 -0.7340 -0.9131 -1.8964
  933TIP3   OH224289   5.625   3.720   4.468 -0.7782 -0.3878 -0.2745
  933TIP3    H124290   5.569   3.766   4.406 -0.1277  0.6035 -0.1495
  933TIP3    H224291   5.699   3.689   4.416 -0.4680  0.0278 -0.0844
  934TIP3   OH224292   4.213   3.613   5.240 -0.2845 -0.2192  0.1685
  934TIP3    H124293   4.200   3.540   5.301  0.8583 -0.7073 -0.1491
  934TIP3    H224294   4.185   3.690   5.290 -0.0892 -0.6960  1.0492
  935TIP3   OH224295   1.727   4.113   5.162 -0.2275 -0.4925 -0.1953
  935TIP3    H124296   1.667   4.150   5.098 -0.3153  0.4672  0.4012
  935TIP3    H224297   1.743   4.185   5.224  0.1218 -1.2729  0.6583
  936TIP3   OH224298   6.685   3.243   3.638 -0.3843 -0.7334 -0.0127
  936TIP3    H124299   6.752   3.178   3.615 -1.3033 -1.1103 -1.8690
  936TIP3    H224300   6.734   3.325   3.648  0.5442 -1.3053  0.3096
  937TIP3   OH224301   5.498   2.784  16.108 -0.3452 -0.2579 -0.1128
  937TIP3    H124302   5.445   2.850  16.064  1.6546  0.3043 -1.8858
  937TIP3    H224303   5.476   2.793  16.201 -2.0230  1.0878 -0.5903
  938TIP3   OH224304   0.628   5.375  15.780 -0.3142 -0.5038  0.0485
  938TIP3    H124305   0.705   5.352  15.728 -1.2067 -2.4122 -0.5271
  938TIP3    H224306   0.644   5.336  15.866  1.1134  2.5603  1.2999
  939TIP3   OH224307   4.182   1.222   4.135 -0.7034 -0.5701  0.2498
  939TIP3    H124308   4.094   1.260   4.137 -0.7525 -0.6966  0.8024
  939TIP3    H224309   4.171   1.135   4.173 -0.4599 -0.8543 -0.3237
  940TIP3   OH224310   0.924   1.895  15.414  0.8803  0.1118  0.1652
  940TIP3    H124311   0.902   1.804  15.392  0.9011  0.1082  0.1588
  940TIP3    H224312   1.000   1.887  15.473 -0.7418 -0.0158  2.3629
  941TIP3   OH224313   6.645   0.238   3.672 -0.0108 -0.0565  0.2416
  941TIP3    H124314   6.723   0.187   3.648  1.1915  2.3242 -1.2440
  941TIP3    H224315   6.572   0.187   3.638  1.2654  0.0827 -3.0207
  942TIP3   OH224316   1.255   2.623  15.603 -0.2265 -0.3328  0.1689
  942TIP3    H124317   1.274   2.531  15.583  2.0589  0.1556 -0.2557
  942TIP3    H224318   1.333   2.654  15.648 -0.5961  1.6031 -0.4294
  943TIP3   OH224319   4.116   2.568  12.539  0.3333 -0.1206  0.0881
  943TIP3    H124320   4.211   2.561  12.553  0.5133 -0.0921 -1.0315
  943TIP3    H224321   4.101   2.662  12.527  0.2897 -0.2068 -0.5441
  944TIP3   OH224322   0.032   6.755  13.154  0.3512  0.3018  0.7370
  944TIP3    H124323   0.057   6.699  13.228  2.1578 -0.9412 -0.7338
  944TIP3    H224324   0.114   6.781  13.114 -0.5409 -0.7660 -2.0542
  945TIP3   OH224325   0.917   0.479  11.389  0.5146  0.5145  0.2397
  945TIP3    H124326   0.984   0.499  11.455  0.1128  1.8390  0.2641
  945TIP3    H224327   0.840   0.453  11.440  0.4331  0.8131  0.2684
  946TIP3   OH224328   6.394   2.906   5.516  0.1493  0.3127  0.0603
  946TIP3    H124329   6.463   2.865   5.567 -1.3323 -1.6360  0.6495
  946TIP3    H224330   6.351   2.833   5.470 -2.1083  1.2751  0.4852
  947TIP3   OH224331   3.953   2.756  15.310 -0.0630  0.1259 -0.0042
  947TIP3    H124332   4.024   2.800  15.357  0.4721 -0.4307 -0.2792
  947TIP3    H224333   3.993   2.676  15.276 -0.3016  0.7723 -1.8688
  948TIP3   OH224334   2.238   2.589  13.603  0.3358  0.3661  0.3172
  948TIP3    H124335   2.282   2.578  13.688 -1.0052 -2.6800  0.7556
  948TIP3    H224336   2.275   2.519  13.549 -1.3522  0.0381 -0.4471
  949TIP3   OH224337   4.030   3.036  15.701 -0.5174  0.0818  0.4047
  949TIP3    H124338   4.051   3.122  15.738  0.7702  0.2169 -0.5755
  949TIP3    H224339   4.088   3.027  15.626  1.8767 -3.0165  2.3691
  950TIP3   OH224340   3.700   5.988  15.064  0.0321  0.2373 -0.2470
  950TIP3    H124341   3.698   5.931  15.141 -0.0638  1.1955  0.4770
  950TIP3    H224342   3.610   5.989  15.032 -0.1939  0.8685  0.4048
  951TIP3   OH224343   1.464   6.201   2.955 -0.4973 -0.0894  0.2157
  951TIP3    H124344   1.479   6.262   2.883 -0.9687  0.1149  0.2862
  951TIP3    H224345   1.551   6.174   2.983 -0.3169 -1.1650 -1.2739
  952TIP3   OH224346   4.604   5.584  13.485  0.0124 -0.4574  0.5394
  952TIP3    H124347   4.558   5.563  13.404 -1.2869 -3.1451  1.8365
  952TIP3    H224348   4.693   5.552  13.471  1.0610  2.7867 -1.1848
  953TIP3   OH224349   0.349   0.970   3.063  0.5657  0.4708 -0.2530
  953TIP3    H124350   0.304   0.895   3.025  0.5655  0.2768  0.1213
  953TIP3    H224351   0.282   1.036   3.074  0.4413  0.3117 -0.0353
  954TIP3   OH224352   4.912   5.832  13.973  1.1033 -0.5012  0.0554
  954TIP3    H124353   4.964   5.873  13.904  0.4921  0.6356  0.2396
  954TIP3    H224354   4.951   5.864  14.055  0.6711 -0.3358  0.2029
  955TIP3   OH224355   1.756   2.233   3.987 -0.1767 -0.5995  0.3893
  955TIP3    H124356   1.802   2.223   4.070 -1.6751 -0.3368  1.2991
  955TIP3    H224357   1.673   2.188   4.000 -1.9132  2.2930  0.2769
  956TIP3   OH224358   1.192   4.785  11.337  0.2532  0.0955  0.1379
  956TIP3    H124359   1.250   4.779  11.413  0.2426  0.4836  0.1807
  956TIP3    H224360   1.118   4.838  11.368 -1.4355 -2.4963  0.8912
  957TIP3   OH224361   5.167   1.108  15.499  0.1646 -0.0855  0.1316
  957TIP3    H124362   5.119   1.103  15.416  1.1923  1.3227 -0.6103
  957TIP3    H224363   5.102   1.135  15.563  0.0468  2.7537 -1.0373
  958TIP3   OH224364   6.284   5.309   3.070  0.0818 -0.0944  0.0011
  958TIP3    H124365   6.278   5.325   3.164  0.8235  0.7273 -0.0810
  958TIP3    H224366   6.204   5.348   3.034  0.5657  1.0395  0.1183
  959TIP3   OH224367   2.203   2.318  14.383 -0.1805 -0.0326  0.0262
  959TIP3    H124368   2.291   2.281  14.379 -0.6131 -0.9183 -2.6886
  959TIP3    H224369   2.215   2.411  14.361 -0.0793 -0.5792 -2.5094
  960TIP3   OH224370   2.248   5.658  12.835 -0.0260 -0.3038 -0.2811
  960TIP3    H124371   2.252   5.753  12.831 -1.2027 -0.1811  0.8016
  960TIP3    H224372   2.267   5.637  12.927 -1.4006 -0.9737 -0.1154
  961TIP3   OH224373   1.739   6.543   5.497 -0.3647  0.2926  0.3039
  961TIP3    H124374   1.778   6.458   5.517 -0.2370  0.4531  0.7449
  961TIP3    H224375   1.652   6.522   5.462 -0.1074 -0.0391 -0.1266
  962TIP3   OH224376   2.768   6.591   5.230 -0.6478  0.5504  0.0447
  962TIP3    H124377   2.705   6.567   5.162 -0.7040  0.7856  0.0139
  962TIP3    H224378   2.832   6.647   5.186  0.1708 -0.5222 -0.1693
  963TIP3   OH224379   6.682   0.065   2.811  0.1400 -0.3438  0.3049
  963TIP3    H124380   6.750   0.120   2.851  2.2915 -2.8335  0.3066
  963TIP3    H224381   6.713   0.049   2.722 -0.2965 -1.7280  0.3746
  964TIP3   OH224382   3.586   2.901   1.520  0.1455  0.1415 -1.0593
  964TIP3    H124383   3.631   2.898   1.604  0.2462  0.0394 -1.1150
  964TIP3    H224384   3.652   2.871   1.457  0.1336  0.4167 -1.2017
  965TIP3   OH224385   1.247   5.569   1.688 -0.2898 -0.0800  0.2648
  965TIP3    H124386   1.309   5.579   1.760 -0.2510  1.6745  0.0360
  965TIP3    H224387   1.222   5.476   1.690  2.9984 -1.0919 -0.2146
  966TIP3   OH224388   0.252   2.966   4.745 -0.6683  0.1339  0.1663
  966TIP3    H124389   0.258   2.882   4.700 -0.5324  0.2511 -0.0365
  966TIP3    H224390   0.315   2.960   4.817  0.1079  0.4519 -0.4813
  967TIP3   OH224391   3.664   6.309  12.931 -0.1535 -0.0205  0.2656
  967TIP3    H124392   3.652   6.250  13.005 -1.3871  0.6472  0.6134
  967TIP3    H224393   3.619   6.390  12.956  1.6112  1.1414 -0.1524
  968TIP3   OH224394   3.296   4.259   1.606  0.3215 -0.3170  0.0372
  968TIP3    H124395   3.333   4.341   1.637  1.5578 -0.9243  0.2315
  968TIP3    H224396   3.221   4.242   1.663  2.6709 -1.5681  3.0609
  969TIP3   OH224397   6.079   3.119  13.991 -0.5392  0.1634  0.1802
  969TIP3    H124398   6.027   3.042  13.969 -1.3909  0.6585  0.4121
  969TIP3    H224399   6.167   3.098  13.960 -0.6614 -1.0668  0.6142
  970TIP3   OH224400   0.047   5.277  13.036 -0.3202 -0.8493 -0.3679
  970TIP3    H124401   0.010   5.190  13.051 -1.1007 -0.6951 -1.3646
  970TIP3    H224402   0.116   5.263  12.970 -1.0179 -0.5969 -1.1671
  971TIP3   OH224403   6.357   1.690  16.367 -0.2481 -0.1359 -0.2926
  971TIP3    H124404   6.398   1.740  16.437 -0.1315  1.6931 -1.5987
  971TIP3    H224405   6.341   1.754  16.297 -1.8002 -1.5575 -1.3398
  972TIP3   OH224406   5.877   1.376  15.600  0.6781 -0.3224 -0.4669
  972TIP3    H124407   5.912   1.299  15.644  2.1949 -0.4006 -1.7459
  972TIP3    H224408   5.870   1.442  15.669 -1.0711 -1.6680  0.7502
  973TIP3   OH224409   4.565   0.802  16.767  0.4912 -0.3290  0.4145
  973TIP3    H124410   4.560   0.715  16.729  0.0441 -0.9199  1.7763
  973TIP3    H224411   4.652   0.806  16.808  0.7163  0.0627 -0.0890
  974TIP3   OH224412   3.813   3.021  16.065  0.2987 -0.4742 -0.5064
  974TIP3    H124413   3.759   2.968  16.124  0.9253 -2.6279 -1.7395
  974TIP3    H224414   3.901   2.985  16.076  1.6401  2.9637  1.4748
  975TIP3   OH224415   0.214   3.043   3.109 -0.2330 -0.6435  0.2781
  975TIP3    H124416   0.237   2.987   3.183  0.1183 -2.6185 -1.2408
  975TIP3    H224417   0.259   3.004   3.034 -2.7760 -0.4085 -1.4988
  976TIP3   OH224418   0.650   2.410  11.264  0.1104  0.2539 -0.2738
  976TIP3    H124419   0.611   2.479  11.210  1.2958  1.1122 -0.0633
  976TIP3    H224420   0.635   2.438  11.354 -1.2756 -0.8493 -0.1190
  977TIP3   OH224421   5.116   4.736  11.795  0.0243  0.4973  0.2565
  977TIP3    H124422   5.197   4.786  11.798  0.0484  0.4088  1.3861
  977TIP3    H224423   5.047   4.802  11.798  0.0594  0.5246  0.5046
  978TIP3   OH224424   5.276   0.678   0.185  0.4520  0.3657 -0.3631
  978TIP3    H124425   5.222   0.600   0.175  0.0635  0.2281  2.2154
  978TIP3    H224426   5.224   0.736   0.241  1.1220  2.1223 -1.4865
  979TIP3   OH224427   4.136   0.535  17.060  0.8395 -0.0488  0.0702
  979TIP3    H124428   4.126   0.615  17.111  0.6828  0.4972 -0.8027
  979TIP3    H224429   4.230   0.515  17.066  0.7787 -0.1682  0.8085
  980TIP3   OH224430   0.991   0.486   4.522  0.2740 -0.3978 -0.4892
  980TIP3    H124431   0.906   0.518   4.553 -0.0360 -1.0863 -0.6141
  980TIP3    H224432   1.052   0.508   4.593 -0.1660 -0.6715 -0.0168
  981TIP3   OH224433   6.579   4.426  13.846 -0.1714 -0.4682 -0.2295
  981TIP3    H124434   6.547   4.492  13.785  0.2878 -0.9491 -1.0064
  981TIP3    H224435   6.499   4.381  13.875 -0.5319  0.6607  0.6238
  982TIP3   OH224436   1.959   0.214  11.077  0.6799 -0.3979 -0.2391
  982TIP3    H124437   2.028   0.254  11.024  0.3848  0.0277 -0.3068
  982TIP3    H224438   1.883   0.211  11.019 -0.1940  1.7796  0.7170
  983TIP3   OH224439   0.540   4.458  13.341 -0.7911 -0.0122 -0.2724
  983TIP3    H124440   0.612   4.397  13.360 -1.4369 -0.4621  0.8110
  983TIP3    H224441   0.541   4.520  13.414  0.4440  1.9006 -1.8175
  984TIP3   OH224442   2.097   1.282   5.494  0.1274  0.3886 -0.3097
  984TIP3    H124443   2.162   1.350   5.513 -0.2951  0.8045 -0.3222
  984TIP3    H224444   2.141   1.223   5.434  0.5066  0.6529 -0.2956
  985TIP3   OH224445   1.006   6.439   3.950 -0.7099 -0.2299 -0.0241
  985TIP3    H124446   0.982   6.433   3.858 -1.2167 -0.5357  0.1233
  985TIP3    H224447   0.993   6.351   3.984  2.1830 -0.8724 -0.2895
  986TIP3   OH224448   5.975   6.822  14.647 -0.0224  0.1386  0.4814
  986TIP3    H124449   5.940   6.735  14.663  0.6460 -0.7635 -2.3882
  986TIP3    H224450   5.912   6.882  14.688 -2.2352 -1.5835 -0.2291
  987TIP3   OH224451   2.170   2.422  16.323  0.2563 -0.0323  0.3386
  987TIP3    H124452   2.251   2.410  16.374 -0.5072 -1.3149  1.2989
  987TIP3    H224453   2.101   2.385  16.378 -1.0937  1.4973 -0.2381
  988TIP3   OH224454   1.871   6.576   3.786 -0.5341  0.2707  0.7106
  988TIP3    H124455   1.932   6.539   3.722  0.1236 -0.4302  1.7126
  988TIP3    H224456   1.924   6.593   3.863 -1.3308  1.0187  1.1120
  989TIP3   OH224457   3.845   2.607   1.014  0.1505  0.4937  0.3047
  989TIP3    H124458   3.878   2.545   0.949  1.8263  0.6046  1.0011
  989TIP3    H224459   3.866   2.568   1.098  0.8739  1.8056  0.7615
  990TIP3   OH224460   1.116   4.759   5.413  0.7070  0.1730  0.5446
  990TIP3    H124461   1.206   4.779   5.389  1.7869 -2.9341  1.6195
  990TIP3    H224462   1.117   4.667   5.439 -3.1521 -0.5624 -1.1732
  991TIP3   OH224463   6.824   0.128   1.701  0.1738 -0.0252 -0.1709
  991TIP3    H124464   6.766   0.070   1.751  0.7610 -0.3792  0.1106
  991TIP3    H224465   6.805   0.108   1.609 -0.4555  0.1727 -0.0856
  992TIP3   OH224466   1.903   0.121   0.077  0.1200  0.5805  0.0150
  992TIP3    H124467   1.895   0.189   0.010 -1.3651 -0.6922 -1.1537
  992TIP3    H224468   1.988   0.081   0.059  0.8334  1.8284  0.4656
  993TIP3   OH224469   4.300   4.257   0.370  0.1402 -0.6511  0.6634
  993TIP3    H124470   4.383   4.295   0.343 -0.6837  0.2344 -0.7847
  993TIP3    H224471   4.284   4.294   0.457 -0.2470  1.8476 -0.3646
  994TIP3   OH224472   5.323   2.615   2.888  0.4790 -0.0020  0.1699
  994TIP3    H124473   5.262   2.657   2.828  0.8367 -1.0582 -0.9641
  994TIP3    H224474   5.268   2.558   2.942  0.2786  0.2224  0.2044
  995TIP3   OH224475   3.591   3.970   2.842  0.1654 -0.2908 -0.9189
  995TIP3    H124476   3.606   3.886   2.887  0.5010  0.5568  0.6265
  995TIP3    H224477   3.509   4.003   2.881  0.9809  0.9208 -0.1661
  996TIP3   OH224478   0.112   1.855   2.309  0.0577  0.5640 -0.0563
  996TIP3    H124479   0.045   1.879   2.373 -1.0990 -0.3635 -0.8573
  996TIP3    H224480   0.109   1.759   2.307  0.2202  0.5654 -1.3251
  997TIP3   OH224481   1.218   6.502   3.575 -0.2756 -0.3333 -0.6477
  997TIP3    H124482   1.271   6.432   3.613 -1.7681 -0.9885  0.3052
  997TIP3    H224483   1.152   6.457   3.523  0.0611  0.4713 -1.8306
  998TIP3   OH224484   1.259   4.021   0.580 -0.1657  0.6229  0.3698
  998TIP3    H124485   1.254   4.047   0.488  0.7764 -2.0402 -0.5173
  998TIP3    H224486   1.169   4.029   0.612 -0.4959  1.6293 -0.7243
  999TIP3   OH224487   6.605   0.765  13.293  0.3227  0.1002  0.0658
  999TIP3    H124488   6.675   0.740  13.354 -0.2383 -0.3291  0.5378
  999TIP3    H224489   6.557   0.684  13.277  0.4538  0.2012 -0.9591
 1000TIP3   OH224490   4.736   4.910  15.627  0.3943  0.2920  0.6130
 1000TIP3    H124491   4.666   4.921  15.563  1.9059 -1.0124 -1.3910
 1000TIP3    H224492   4.695   4.930  15.711 -2.0955  0.5515 -0.5713
 1001TIP3   OH224493   0.916   2.662  13.627  0.2775  1.1456 -0.8949
 1001TIP3    H124494   0.950   2.607  13.698  1.5150  0.9128 -1.6525
 1001TIP3    H224495   0.964   2.634  13.549  0.9249  3.2654 -1.3286
 1002TIP3   OH224496   2.103   5.302  13.134  0.3758 -0.1317 -0.1328
 1002TIP3    H124497   2.046   5.229  13.110  0.8927 -1.3703  2.0898
 1002TIP3    H224498   2.166   5.308  13.061 -0.3086 -1.2142 -0.8384
 1003TIP3   OH224499   2.212   3.233  15.909 -0.1869 -0.3130  0.4594
 1003TIP3    H124500   2.212   3.301  15.842 -1.2639 -1.1440 -0.4343
 1003TIP3    H224501   2.273   3.263  15.975  0.3040  0.9111 -0.5297
 1004TIP3   OH224502   3.267   2.076   2.892  0.4339  0.1039 -0.6928
 1004TIP3    H124503   3.278   2.131   2.814 -1.2006  2.1284  0.4136
 1004TIP3    H224504   3.257   2.138   2.964  0.7093 -1.7029  0.9969
 1005TIP3   OH224505   3.231   6.428  15.422  0.0214 -0.0382 -0.3437
 1005TIP3    H124506   3.260   6.488  15.491  1.1361  0.2402 -1.0295
 1005TIP3    H224507   3.301   6.362  15.416 -0.3125 -0.3514 -0.8525
 1006TIP3   OH224508   5.778   0.211  15.114 -0.0976 -0.1302  0.4328
 1006TIP3    H124509   5.750   0.123  15.140 -0.3091  0.2944  1.6731
 1006TIP3    H224510   5.763   0.213  15.019  1.8968 -2.1386 -0.0206
 1007TIP3   OH224511   3.874   5.913   1.270 -0.0816 -0.5680  0.3049
 1007TIP3    H124512   3.825   5.995   1.277  1.8982  0.6687  0.5413
 1007TIP3    H224513   3.871   5.891   1.177  1.0504  0.9090 -0.1120
 1008TIP3   OH224514   5.574   1.445   2.024 -0.7092 -0.1392 -0.0764
 1008TIP3    H124515   5.574   1.374   1.960 -2.0448  0.5969 -0.9297
 1008TIP3    H224516   5.612   1.520   1.977  2.5381 -0.6850  1.3890
 1009TIP3   OH224517   4.598   2.114   5.138 -0.3105  0.5367 -0.2478
 1009TIP3    H124518   4.625   2.204   5.156  0.8072  0.5586 -1.8728
 1009TIP3    H224519   4.512   2.106   5.179  0.2556  1.8326  1.3105
 1010TIP3   OH224520   5.437   5.222   5.331  0.3480 -0.0769 -0.1154
 1010TIP3    H124521   5.461   5.290   5.268  0.9836 -1.3641 -1.2991
 1010TIP3    H224522   5.354   5.188   5.299 -1.2113  1.6857  1.7953
 1011TIP3   OH224523   4.500   3.470  13.399  0.1390  0.6507  0.7259
 1011TIP3    H124524   4.446   3.459  13.321 -0.3138  0.8566  1.0087
 1011TIP3    H224525   4.583   3.505  13.365  1.1305 -2.2141 -0.0272
 1012TIP3   OH224526   1.089   4.902   2.983 -0.3940 -0.0853 -0.0549
 1012TIP3    H124527   1.061   4.865   3.067 -1.6700  1.1722  0.1221
 1012TIP3    H224528   1.083   4.997   2.996  1.2109  0.1787 -0.9893
 1013TIP3   OH224529   2.824   5.646  16.763 -0.6388  0.1636  0.3922
 1013TIP3    H124530   2.918   5.638  16.745 -0.5738  1.2860  0.1584
 1013TIP3    H224531   2.819   5.655  16.858 -0.4015  1.2307  0.3181
 1014TIP3   OH224532   2.075   0.884  16.618 -0.3786  0.0138 -0.9333
 1014TIP3    H124533   2.153   0.914  16.666 -2.1630  1.8367  1.0387
 1014TIP3    H224534   2.042   0.963  16.575 -1.9461 -0.3812 -0.5155
 1015TIP3   OH224535   1.764   1.936  13.198 -0.0572 -0.8807  0.1010
 1015TIP3    H124536   1.735   1.967  13.284 -0.9982 -0.3319 -0.3980
 1015TIP3    H224537   1.701   1.974  13.136  1.1375 -0.5153 -0.9293
 1016TIP3   OH224538   2.257   5.783  12.029 -0.0902 -0.3229 -0.2485
 1016TIP3    H124539   2.264   5.870  11.990  1.0248  1.1043  2.7440
 1016TIP3    H224540   2.163   5.765  12.032 -0.4797  1.5546  0.4650
 1017TIP3   OH224541   1.861   0.334  11.288 -0.2233  0.1834  0.1428
 1017TIP3    H124542   1.906   0.282  11.221 -2.7041 -1.1528 -0.6309
 1017TIP3    H224543   1.873   0.424  11.261  3.3109  0.0641  0.9162
 1018TIP3   OH224544   0.749   3.223   1.665  0.7107 -0.2896 -0.1815
 1018TIP3    H124545   0.695   3.202   1.741 -0.4920  1.3537 -0.5362
 1018TIP3    H224546   0.687   3.237   1.594  1.5377  1.9340 -0.5420
 1019TIP3   OH224547   6.283   0.235  11.779  0.2519 -0.0229 -0.5278
 1019TIP3    H124548   6.252   0.321  11.749 -0.3910  1.1776  3.0643
 1019TIP3    H224549   6.210   0.176  11.762 -0.5070  0.8302 -0.3029
 1020TIP3   OH224550   1.068   4.154  12.127  0.8737 -0.2208 -0.0147
 1020TIP3    H124551   1.133   4.141  12.058  2.0526 -1.2214  1.2303
 1020TIP3    H224552   1.082   4.080  12.187 -2.0341 -0.9903 -0.1503
 1021TIP3   OH224553   3.744   1.796   0.392 -0.0153  0.5699  0.6888
 1021TIP3    H124554   3.770   1.877   0.436  1.5736  0.7003 -0.4000
 1021TIP3    H224555   3.707   1.825   0.309 -2.1979  0.2858  1.5133
 1022TIP3   OH224556   4.813   1.862   0.213 -0.2129  0.4732 -0.2370
 1022TIP3    H124557   4.745   1.866   0.281  1.6834  1.1681  1.7656
 1022TIP3    H224558   4.775   1.809   0.144 -3.1295  1.6205  0.3474
 1023TIP3   OH224559   0.867   2.246  11.213  0.4420  0.3925  0.3246
 1023TIP3    H124560   0.863   2.189  11.289  2.1708  1.0211  0.9263
 1023TIP3    H224561   0.777   2.279  11.203 -0.0211 -0.4692  1.4655
 1024TIP3   OH224562   0.302   2.586  14.073 -0.5101 -0.2337  0.0362
 1024TIP3    H124563   0.294   2.605  13.979 -3.1214 -1.5044 -0.1187
 1024TIP3    H224564   0.324   2.669  14.113  0.9418  0.2880 -1.7200
 1025TIP3   OH224565   1.823   5.529   0.094 -0.4256 -0.0648 -0.4865
 1025TIP3    H124566   1.908   5.569   0.116 -1.1467  0.9790  0.4952
 1025TIP3    H224567   1.837   5.435   0.111  0.6359  0.0309 -0.7090
 1026TIP3   OH224568   3.090   2.504  14.989 -0.0133 -0.0549  0.1410
 1026TIP3    H124569   3.141   2.526  15.067 -1.3959  0.2076  1.0166
 1026TIP3    H224570   3.146   2.444  14.939  1.8058  1.5024  0.1999
 1027TIP3   OH224571   3.267   0.810   1.640 -0.3544  0.3465 -0.2882
 1027TIP3    H124572   3.242   0.870   1.570 -2.1749 -0.2698 -0.2249
 1027TIP3    H224573   3.189   0.756   1.654  0.9545 -1.5246  0.1874
 1028TIP3   OH224574   3.640   2.052   4.410 -0.6804 -0.3121  0.1857
 1028TIP3    H124575   3.677   2.105   4.481 -1.1148  0.8576 -0.4254
 1028TIP3    H224576   3.659   2.102   4.331 -0.3848 -1.4933 -0.5083
 1029TIP3   OH224577   2.699   2.514  12.764  0.0620  0.2095  0.1042
 1029TIP3    H124578   2.605   2.528  12.760 -0.0933 -0.7621  0.0959
 1029TIP3    H224579   2.715   2.438  12.707  0.5819 -0.8299  1.5620
 1030TIP3   OH224580   1.585   6.702   0.323  0.0544  0.0786  0.4357
 1030TIP3    H124581   1.505   6.658   0.294 -1.2918  1.0877  2.3554
 1030TIP3    H224582   1.607   6.762   0.252 -0.1941 -1.0256 -0.6158
 1031TIP3   OH224583   5.252   3.161   4.115 -0.0714  0.1100 -1.1575
 1031TIP3    H124584   5.173   3.129   4.157 -0.1662 -0.3265 -1.6522
 1031TIP3    H224585   5.250   3.122   4.028  0.5502  0.3109 -1.2680
 1032TIP3   OH224586   4.184   6.634  11.164  0.0187  0.1266  0.4064
 1032TIP3    H124587   4.124   6.703  11.192  0.2692  0.9530 -1.0315
 1032TIP3    H224588   4.213   6.593  11.246 -0.9844  0.9912  1.2221
 1033TIP3   OH224589   5.731   1.878  11.902 -0.2452 -0.3008 -0.1230
 1033TIP3    H124590   5.757   1.786  11.904  1.5725  0.1687  0.8385
 1033TIP3    H224591   5.808   1.923  11.867  0.2760  1.1606  2.5985
 1034TIP3   OH224592   4.610   3.524   1.271 -0.0068 -0.0665  0.1325
 1034TIP3    H124593   4.563   3.515   1.355  1.9104  1.4231  1.4544
 1034TIP3    H224594   4.605   3.618   1.251  0.1099 -0.3132 -1.1229
 1035TIP3   OH224595   6.435   2.197   0.831 -0.0914 -0.3137 -0.1288
 1035TIP3    H124596   6.491   2.269   0.861 -0.6683  0.1106 -0.0647
 1035TIP3    H224597   6.493   2.144   0.776  0.2282  0.4174 -0.5072
 1036TIP3   OH224598   6.093   3.676   2.143 -0.2230 -0.3063 -0.0591
 1036TIP3    H124599   6.024   3.679   2.077 -1.7311 -1.7705  1.3459
 1036TIP3    H224600   6.174   3.691   2.093 -1.5245  2.1034 -1.6628
 1037TIP3   OH224601   2.633   4.342  15.428 -0.7255  0.0367 -0.4394
 1037TIP3    H124602   2.709   4.291  15.458 -0.3032 -0.1720 -1.8298
 1037TIP3    H224603   2.567   4.326  15.496 -0.2874 -1.5894 -0.3327
 1038TIP3   OH224604   3.196   3.439  13.864 -0.1450 -0.0508 -0.5720
 1038TIP3    H124605   3.125   3.471  13.919  1.3731  0.2556  1.2965
 1038TIP3    H224606   3.206   3.347  13.889 -2.0830 -1.1638 -3.3373
 1039TIP3   OH224607   0.922   2.010  14.932  0.0746 -0.3794 -0.1941
 1039TIP3    H124608   0.964   2.093  14.910 -0.4933 -0.4714 -1.7671
 1039TIP3    H224609   0.898   2.018  15.024  0.5485  0.9700 -0.1779
 1040TIP3   OH224610   5.262   3.004  14.016 -0.0346 -0.1705  0.5089
 1040TIP3    H124611   5.346   2.978  13.977  0.2024  0.3632  0.6614
 1040TIP3    H224612   5.206   3.024  13.941  0.0049 -0.4166  0.4108
 1041TIP3   OH224613   1.372   1.972   5.658  0.6391 -0.5102  0.4137
 1041TIP3    H124614   1.386   1.877   5.663 -1.6227 -1.0976 -2.0235
 1041TIP3    H224615   1.282   1.981   5.627  1.3611  2.4000 -1.2216
 1042TIP3   OH224616   2.623   3.347   3.691  0.2447 -0.5021  0.6987
 1042TIP3    H124617   2.693   3.399   3.731  0.0893 -1.6770  2.6234
 1042TIP3    H224618   2.554   3.411   3.670  1.6408  0.5909 -0.7504
 1043TIP3   OH224619   2.675   3.535   4.305  0.3808 -0.6585 -0.6113
 1043TIP3    H124620   2.679   3.615   4.357 -0.4537 -0.4234 -0.8857
 1043TIP3    H224621   2.632   3.471   4.363  1.3951 -1.0305 -0.2533
 1044TIP3   OH224622   5.961   0.205  17.031  0.4118 -0.0305  0.1041
 1044TIP3    H124623   5.904   0.131  17.056  0.9067 -0.7320 -0.7989
 1044TIP3    H224624   5.931   0.277  17.087 -1.0292 -0.5193  0.0232
 1045TIP3   OH224625   3.494   0.458   0.552  0.0176 -0.5348  0.0926
 1045TIP3    H124626   3.555   0.425   0.486  2.3957 -1.8241  2.7295
 1045TIP3    H224627   3.461   0.380   0.596 -1.0262  0.2953  0.8476
 1046TIP3   OH224628   0.995   3.363   2.733  0.2904 -0.7442  0.0909
 1046TIP3    H124629   0.927   3.385   2.669 -1.1125  0.6587  1.9525
 1046TIP3    H224630   1.004   3.268   2.726  1.3182 -0.5330 -3.1993
 1047TIP3   OH224631   5.410   4.747   4.815 -0.2898 -0.1605  0.6084
 1047TIP3    H124632   5.387   4.831   4.777 -1.6550 -0.5502  0.5028
 1047TIP3    H224633   5.505   4.747   4.818 -0.2306  0.9412 -0.3929
 1048TIP3   OH224634   1.988   3.441  13.076 -0.4257 -0.9051 -0.9703
 1048TIP3    H124635   1.928   3.464  13.006 -2.2761  0.6935  1.0018
 1048TIP3    H224636   1.954   3.487  13.153  2.2095 -1.5456  0.7124
 1049TIP3   OH224637   1.501   1.387  13.272 -0.4680  0.1735  0.0978
 1049TIP3    H124638   1.504   1.423  13.184 -1.1058 -0.0945 -0.0403
 1049TIP3    H224639   1.575   1.326  13.275 -0.9565 -0.4628 -0.5448
 1050TIP3   OH224640   3.306   4.215   1.961  0.1593  0.1859  0.0429
 1050TIP3    H124641   3.295   4.123   1.982 -1.4438  0.3696  0.0928
 1050TIP3    H224642   3.370   4.247   2.025  0.8959 -0.9185 -0.1136
 1051TIP3   OH224643   2.974   6.364   4.228  0.0004  0.2028 -0.0602
 1051TIP3    H124644   2.999   6.300   4.162  0.4986 -0.0838  0.3946
 1051TIP3    H224645   2.896   6.328   4.269  0.4520 -0.2796  0.4013
 1052TIP3   OH224646   0.903   2.798  15.393  0.1487  0.3477 -0.5744
 1052TIP3    H124647   0.812   2.769  15.399 -0.0384  1.1834  1.7826
 1052TIP3    H224648   0.902   2.866  15.326 -1.4449  1.8685  0.9157
 1053TIP3   OH224649   2.781   3.075  16.303  0.0515  0.0552  0.1925
 1053TIP3    H124650   2.753   3.030  16.223 -0.7775  0.4645  0.2485
 1053TIP3    H224651   2.762   3.013  16.374 -0.5234  0.2458  0.2081
 1054TIP3   OH224652   2.028   2.557   0.145  0.1404  0.2559  0.0704
 1054TIP3    H124653   1.942   2.537   0.182  0.5373  1.0289  1.4900
 1054TIP3    H224654   2.033   2.505   0.065 -1.3623 -0.3325  0.3361
 1055TIP3   OH224655   4.352   6.531   5.235 -0.0123  0.0569  0.1220
 1055TIP3    H124656   4.264   6.495   5.226 -0.2140  0.2109  1.4028
 1055TIP3    H224657   4.343   6.623   5.210  0.0309 -0.1856 -0.8422
 1056TIP3   OH224658   1.942   1.329  10.680 -0.3226  0.1955 -0.4219
 1056TIP3    H124659   1.867   1.309  10.623  1.0435 -2.1162 -1.5338
 1056TIP3    H224660   2.018   1.320  10.624  0.8670  2.4412  0.7023
 1057TIP3   OH224661   0.801   5.578  13.402 -0.8116  0.3195 -0.0455
 1057TIP3    H124662   0.847   5.650  13.445  1.9132 -0.5893 -1.1887
 1057TIP3    H224663   0.847   5.566  13.319 -1.9948 -1.9014 -0.4769
 1058TIP3   OH224664   5.073   4.079  12.157  0.9218  0.1255 -0.3712
 1058TIP3    H124665   5.152   4.069  12.210  1.9830  1.0359 -1.7176
 1058TIP3    H224666   5.105   4.106  12.071 -0.7193 -1.5121 -1.5807
 1059TIP3   OH224667   4.534   6.438   1.991  0.6380  0.5722 -0.1962
 1059TIP3    H124668   4.611   6.400   2.033  0.6630  1.6708  0.7990
 1059TIP3    H224669   4.460   6.389   2.028  0.7179  0.9687  0.4918
 1060TIP3   OH224670   3.218   0.519  13.978 -0.1284 -0.2444 -0.1478
 1060TIP3    H124671   3.188   0.603  14.013 -0.9922 -1.0707  1.2283
 1060TIP3    H224672   3.177   0.454  14.035 -0.7910 -1.6703 -2.1440
 1061TIP3   OH224673   2.551   4.125   2.483  0.4517 -0.1225  0.1599
 1061TIP3    H124674   2.563   4.153   2.574 -1.3010 -0.5891  0.5709
 1061TIP3    H224675   2.568   4.031   2.485 -1.2427 -0.4572  0.3916
 1062TIP3   OH224676   0.080   3.542  16.438 -0.0287 -0.3147  0.0233
 1062TIP3    H124677   0.130   3.546  16.520 -0.8307 -2.1688  0.6681
 1062TIP3    H224678   0.125   3.474  16.388  0.0388  0.3270 -0.7990
 1063TIP3   OH224679   3.940   1.488  16.262  0.3512  0.0134  0.3068
 1063TIP3    H124680   3.933   1.463  16.169 -0.6871 -2.3363  0.9323
 1063TIP3    H224681   4.015   1.547  16.265 -0.2966  1.1192 -2.1936
 1064TIP3   OH224682   4.800   4.697  13.416  0.2314 -0.5569  0.3950
 1064TIP3    H124683   4.880   4.649  13.394  1.1643  0.7503  0.8187
 1064TIP3    H224684   4.800   4.701  13.512 -1.8472 -2.9709  0.6062
 1065TIP3   OH224685   1.915   5.847   5.552 -0.6824  0.4297  0.2387
 1065TIP3    H124686   1.839   5.877   5.602 -0.4641  1.7569 -0.1686
 1065TIP3    H224687   1.970   5.800   5.615 -0.8003  1.3604  1.0508
 1066TIP3   OH224688   6.524   1.992  13.352 -0.6908 -0.2572  0.1339
 1066TIP3    H124689   6.472   2.026  13.279  0.3407 -0.0437 -0.5297
 1066TIP3    H224690   6.578   1.923  13.313 -0.6380 -0.6279  0.8481
 1067TIP3   OH224691   3.680   4.400  14.329  0.4205 -0.4714  0.4302
 1067TIP3    H124692   3.648   4.310  14.330 -0.6800 -0.0954  1.4028
 1067TIP3    H224693   3.600   4.453  14.323  1.1017  0.4347 -2.8683
 1068TIP3   OH224694   5.779   0.979  12.165  0.3251 -0.6773  0.6105
 1068TIP3    H124695   5.724   1.048  12.201 -0.8807 -1.2993  0.0213
 1068TIP3    H224696   5.848   1.025  12.116 -0.0010  0.1084  0.8891
 1069TIP3   OH224697   0.246   2.904  12.728  0.4191 -0.3497  0.2028
 1069TIP3    H124698   0.219   2.816  12.701 -2.4626  0.7030 -0.7479
 1069TIP3    H224699   0.222   2.909  12.820  0.6115 -0.5812  0.2644
 1070TIP3   OH224700   0.341   0.467   1.286  0.7096 -0.0298 -0.0917
 1070TIP3    H124701   0.338   0.563   1.291  0.0008 -0.0036 -0.7466
 1070TIP3    H224702   0.409   0.449   1.221  0.1492  0.0783 -0.7283
 1071TIP3   OH224703   1.967   5.535   1.929  0.2094  0.3836 -0.4439
 1071TIP3    H124704   2.023   5.602   1.969 -1.7892  0.9939  1.6039
 1071TIP3    H224705   1.969   5.462   1.991 -1.7434  0.7073  0.0640
 1072TIP3   OH224706   3.938   5.535  13.005  0.3909  0.3523  0.2842
 1072TIP3    H124707   3.946   5.612  13.062  1.0378 -0.4378  1.3110
 1072TIP3    H224708   3.845   5.528  12.987  0.1399  0.5416  1.4065
 1073TIP3   OH224709   4.563   4.447   2.375 -0.0839 -0.4845 -0.2440
 1073TIP3    H124710   4.650   4.424   2.344 -0.8444 -0.9965 -2.1760
 1073TIP3    H224711   4.547   4.535   2.342 -0.6562 -0.7726 -0.7633
 1074TIP3   OH224712   4.570   5.803   5.998  0.0525  0.2669  0.0676
 1074TIP3    H124713   4.481   5.816   5.964  0.4768  0.0997 -1.1671
 1074TIP3    H224714   4.574   5.709   6.018 -0.2303  0.3836  0.7105
 1075TIP3   OH224715   0.635   3.918  14.756  0.1343  0.0391  0.2763
 1075TIP3    H124716   0.719   3.943  14.717  0.0404 -0.9035 -0.5595
 1075TIP3    H224717   0.645   3.825  14.777 -0.4329  0.1136  0.8988
 1076TIP3   OH224718   3.569   3.910  15.830  0.1384 -0.7235 -0.1554
 1076TIP3    H124719   3.483   3.869  15.830  0.8006 -2.2314  0.8934
 1076TIP3    H224720   3.625   3.849  15.783  0.9039 -0.4030  0.3200
 1077TIP3   OH224721   0.413   6.047  13.353  0.5492 -0.1610 -0.1074
 1077TIP3    H124722   0.326   6.050  13.314  0.4586  3.7307  0.0003
 1077TIP3    H224723   0.402   6.090  13.438  2.0137 -2.5730  1.4168
 1078TIP3   OH224724   3.054   1.585   2.761 -0.0569  0.0260  0.3409
 1078TIP3    H124725   3.137   1.587   2.807  0.5152 -1.7030 -0.5075
 1078TIP3    H224726   2.996   1.534   2.818 -0.4591  0.9702  0.7912
 1079TIP3   OH224727   5.957   5.624  14.160  0.1993  0.0442  0.3518
 1079TIP3    H124728   6.022   5.631  14.090 -0.8902 -1.3501 -0.8853
 1079TIP3    H224729   5.920   5.712  14.167  2.6545  1.0723  1.6240
 1080TIP3   OH224730   6.006   4.411   3.431 -0.6565 -0.1741  0.3548
 1080TIP3    H124731   5.978   4.503   3.424  0.9672  0.3491  0.2951
 1080TIP3    H224732   6.009   4.380   3.340 -1.2350 -0.3014  0.3769
 1081TIP3   OH224733   4.483   0.110  13.983  0.1377 -0.1653  0.1733
 1081TIP3    H124734   4.398   0.118  14.027  0.7873  0.1349  1.4037
 1081TIP3    H224735   4.485   0.183  13.921 -0.8605 -0.7002 -0.5389
 1082TIP3   OH224736   6.541   4.493  16.576 -0.7497  0.0013 -0.2220
 1082TIP3    H124737   6.541   4.587  16.597 -0.5970 -0.1840  0.6285
 1082TIP3    H224738   6.494   4.488  16.493 -1.2911  0.7726  0.0220
 1083TIP3   OH224739   5.101   1.656   5.660  0.1526 -0.2332 -0.2079
 1083TIP3    H124740   5.052   1.733   5.689  1.4680  0.0169  1.5399
 1083TIP3    H224741   5.084   1.590   5.726 -0.7997 -1.4302 -1.5869
 1084TIP3   OH224742   0.171   6.287  11.492  1.1397  0.2656 -0.0762
 1084TIP3    H124743   0.133   6.370  11.462  0.1445  0.4155  1.4530
 1084TIP3    H224744   0.101   6.224  11.483  1.0258  0.1782  1.2169
 1085TIP3   OH224745   0.233   1.307  11.659  0.1795 -0.2128  0.1073
 1085TIP3    H124746   0.311   1.256  11.636 -0.7051 -1.8327  0.5103
 1085TIP3    H224747   0.239   1.318  11.754  0.3153  0.3581  0.0341
 1086TIP3   OH224748   0.971   5.958  14.941  0.3175 -0.1555  0.5125
 1086TIP3    H124749   1.009   5.870  14.940 -2.3877 -1.4615  2.2777
 1086TIP3    H224750   0.966   5.981  15.033 -0.3775  1.2500  0.1517
 1087TIP3   OH224751   5.533   5.635   4.256 -0.3365 -0.3404 -0.1586
 1087TIP3    H124752   5.576   5.721   4.263  1.7382 -0.9809 -3.2837
 1087TIP3    H224753   5.524   5.606   4.347  1.3257  2.0079  0.8689
 1088TIP3   OH224754   6.055   5.968  13.017  0.6015  0.1704 -0.0202
 1088TIP3    H124755   6.063   5.882  13.059  1.0703  0.3088  0.1822
 1088TIP3    H224756   5.968   5.966  12.976  0.8892 -0.6623 -0.6250
 1089TIP3   OH224757   0.902   4.886  13.603 -0.1126 -0.3194  0.0979
 1089TIP3    H124758   0.913   4.841  13.687  0.6216  0.2970  0.3457
 1089TIP3    H224759   0.810   4.911  13.601  0.0950  0.6392  1.2422
 1090TIP3   OH224760   6.115   4.431   5.385 -0.9734  0.2536  0.3413
 1090TIP3    H124761   6.067   4.408   5.306 -1.3225 -0.3003  0.7079
 1090TIP3    H224762   6.071   4.509   5.419 -0.2919  1.0047 -0.4639
 1091TIP3   OH224763   2.687   1.414   0.658 -0.1959  0.0362 -0.1995
 1091TIP3    H124764   2.613   1.455   0.702 -0.3745 -0.0449 -0.4263
 1091TIP3    H224765   2.665   1.416   0.565 -0.0458 -0.2484 -0.2435
 1092TIP3   OH224766   2.252   5.860   5.656 -0.0597 -0.2182 -0.1498
 1092TIP3    H124767   2.317   5.832   5.720 -0.1320 -0.7383 -0.2978
 1092TIP3    H224768   2.280   5.821   5.574  0.0158  0.4249 -0.4330
 1093TIP3   OH224769   2.372   3.531   4.373  0.2986  0.8733 -0.2394
 1093TIP3    H124770   2.417   3.461   4.420  1.6389  2.5741  1.1548
 1093TIP3    H224771   2.321   3.577   4.440 -2.4113 -0.0332 -1.5153
 1094TIP3   OH224772   1.236   2.760  16.033 -0.7705  0.2881 -0.0430
 1094TIP3    H124773   1.180   2.696  15.990  0.6051 -1.4157  0.5954
 1094TIP3    H224774   1.285   2.710  16.098 -1.1698  2.3785  2.0180
 1095TIP3   OH224775   2.407   5.986   5.115 -0.0697  0.2634  0.3166
 1095TIP3    H124776   2.438   6.077   5.111 -0.6751  0.4644 -3.5480
 1095TIP3    H224777   2.312   5.994   5.125  0.0724 -0.1187  2.5755
 1096TIP3   OH224778   5.986   4.906   2.290 -0.4552  0.0275  0.5239
 1096TIP3    H124779   5.896   4.876   2.301 -1.2283  2.1377  0.4589
 1096TIP3    H224780   5.977   4.988   2.241  1.7232 -1.1927 -2.1550
 1097TIP3   OH224781   0.031   0.697  14.892 -0.2491 -0.6119  0.0174
 1097TIP3    H124782   0.113   0.651  14.872  1.6430  1.3848  2.4541
 1097TIP3    H224783  -0.004   0.652  14.968  1.9527  2.0006  2.8303
 1098TIP3   OH224784   0.458   0.755  13.673  0.4245 -0.3317  0.5375
 1098TIP3    H124785   0.540   0.740  13.627  0.6081 -3.5892  1.6884
 1098TIP3    H224786   0.403   0.681  13.649 -1.8045  1.1552  0.7198
 1099TIP3   OH224787   2.868   4.674   2.142 -0.2629  0.4020 -0.4299
 1099TIP3    H124788   2.902   4.764   2.150  1.1516 -0.0693 -0.8705
 1099TIP3    H224789   2.945   4.619   2.158 -0.8788 -0.7228 -1.3032
 1100TIP3   OH224790   4.903   0.585  14.455 -0.7303 -0.0657  0.2207
 1100TIP3    H124791   4.907   0.606  14.362 -0.2903  2.1506  0.6721
 1100TIP3    H224792   4.927   0.667  14.499 -1.3804 -0.9182  2.2983
 1101TIP3   OH224793   1.265   0.401   5.870  0.2935  0.2344 -0.1655
 1101TIP3    H124794   1.332   0.357   5.818  0.3118  0.0862 -0.0145
 1101TIP3    H224795   1.245   0.480   5.820  0.4226  0.1696 -0.3212
 1102TIP3   OH224796   0.832   1.170  17.007 -0.6581 -0.3268 -0.6141
 1102TIP3    H124797   0.854   1.105  17.074  2.0173 -0.4766 -1.5172
 1102TIP3    H224798   0.802   1.119  16.932  1.1915 -0.5770 -1.2308
 1103TIP3   OH224799   6.603   3.559  16.143  0.1839  0.3508 -0.5483
 1103TIP3    H124800   6.558   3.608  16.075 -0.1391  2.4970  1.1218
 1103TIP3    H224801   6.680   3.612  16.164 -0.1385  0.1535  1.2680
 1104TIP3   OH224802   2.721   2.442  13.492  0.1814  0.4164  0.3430
 1104TIP3    H124803   2.804   2.469  13.531 -0.5480  0.0834  2.2441
 1104TIP3    H224804   2.690   2.520  13.445  1.1179  0.8402  0.4050
 1105TIP3   OH224805   1.952   4.568   3.708 -0.6660 -0.4891  0.0446
 1105TIP3    H124806   2.030   4.551   3.761 -0.7072  3.4083  1.7364
 1105TIP3    H224807   1.985   4.613   3.631 -1.0894 -0.2003  0.0266
 1106TIP3   OH224808   2.871   0.572   3.915  0.1603 -0.4244  0.1213
 1106TIP3    H124809   2.892   0.662   3.889  2.4171 -0.6393  0.9479
 1106TIP3    H224810   2.813   0.540   3.846 -0.5689  1.5933 -0.2667
 1107TIP3   OH224811   0.822   5.887   6.775 -0.6017 -0.0828  0.2900
 1107TIP3    H124812   0.872   5.824   6.724 -1.9043 -0.4394 -0.6091
 1107TIP3    H224813   0.790   5.838   6.850  1.1112  0.3793  1.3644
 1108TIP3   OH224814   6.284   3.703   3.882  0.1107  0.1495 -0.1816
 1108TIP3    H124815   6.252   3.791   3.899  0.7875  0.7046 -1.6084
 1108TIP3    H224816   6.285   3.696   3.787 -0.2884 -1.5457 -0.0919
 1109TIP3   OH224817   2.434   1.089   0.938  0.0259 -0.0785 -0.1862
 1109TIP3    H124818   2.360   1.059   0.885 -1.0976  2.5581 -0.2430
 1109TIP3    H224819   2.462   1.012   0.986 -2.7757 -1.1662 -0.1445
 1110TIP3   OH224820   1.886   4.532  13.746  0.1294  0.1570  1.3658
 1110TIP3    H124821   1.976   4.538  13.715  0.1756  2.6607  1.7795
 1110TIP3    H224822   1.890   4.559  13.837 -1.2318  1.9476  0.9411
 1111TIP3   OH224823   5.408   4.388   3.335 -0.7101  0.0441 -0.1130
 1111TIP3    H124824   5.380   4.372   3.425  0.4080 -0.2869  0.1928
 1111TIP3    H224825   5.374   4.313   3.286 -0.9427 -0.0022  0.1139
 1112TIP3   OH224826   5.708   1.422   0.011 -0.5657  0.0168  0.4859
 1112TIP3    H124827   5.691   1.417  -0.083  0.9479  0.1645  0.1859
 1112TIP3    H224828   5.642   1.364   0.050 -1.9640  0.8572 -0.5423
 1113TIP3   OH224829   3.795   3.703  13.502  0.0389  0.2557  0.2503
 1113TIP3    H124830   3.813   3.733  13.591  0.2472  1.0510 -0.0514
 1113TIP3    H224831   3.755   3.778  13.458  1.1542  0.3204 -0.7042
 1114TIP3   OH224832   1.638   4.421  15.004 -0.1403  0.3481  0.0452
 1114TIP3    H124833   1.595   4.396  14.922 -1.8110  1.2560  0.5907
 1114TIP3    H224834   1.581   4.488  15.041  1.0154  0.5409  1.5573
 1115TIP3   OH224835   1.782   0.002   3.085 -0.3865 -0.4757 -0.3456
 1115TIP3    H124836   1.837  -0.076   3.089  1.6350  0.8947  0.0907
 1115TIP3    H224837   1.759   0.018   3.177 -0.1994 -0.1710 -0.3515
 1116TIP3   OH224838   1.639   6.453  14.313 -0.2532  0.2180  0.5543
 1116TIP3    H124839   1.716   6.472  14.367  1.1720  0.1516 -1.3438
 1116TIP3    H224840   1.631   6.529  14.255 -0.8823 -0.3107 -0.0766
 1117TIP3   OH224841   0.813   0.240   0.604  0.2188 -0.5949  0.6836
 1117TIP3    H124842   0.887   0.295   0.630 -0.4919  0.8567 -0.2339
 1117TIP3    H224843   0.736   0.292   0.626 -0.4675 -0.9662 -0.7474
 1118TIP3   OH224844   2.214   4.625   5.698  0.1554 -0.3300 -0.0252
 1118TIP3    H124845   2.224   4.596   5.608 -1.6187 -1.6069  0.1555
 1118TIP3    H224846   2.292   4.591   5.743  0.8219 -0.0669 -0.9585
 1119TIP3   OH224847   3.860   6.426   5.480 -0.2136  0.6991  0.2301
 1119TIP3    H124848   3.790   6.448   5.419 -0.2613 -0.4980 -0.1605
 1119TIP3    H224849   3.864   6.331   5.480  2.0441  0.7396 -0.4824
 1120TIP3   OH224850   3.116   5.855  14.936 -1.3391  0.2633  0.1141
 1120TIP3    H124851   3.053   5.919  14.970 -2.7739 -0.9789 -0.0999
 1120TIP3    H224852   3.159   5.820  15.013 -1.7278  0.3130  0.3541
 1121TIP3   OH224853   1.118   6.250  10.777 -0.1888 -0.1782 -0.1258
 1121TIP3    H124854   1.075   6.310  10.715  1.1531  0.4691 -0.4721
 1121TIP3    H224855   1.131   6.169  10.728  0.2034  0.0835 -0.4576
 1122TIP3   OH224856   0.196   3.342   3.445  0.1032  0.0684 -0.0444
 1122TIP3    H124857   0.149   3.360   3.364 -2.2162 -0.4224  1.1345
 1122TIP3    H224858   0.157   3.262   3.479  1.6222 -0.2236  1.1616
 1123TIP3   OH224859   5.820   1.730   1.261 -0.1751 -0.0186  0.5043
 1123TIP3    H124860   5.766   1.809   1.251  0.1138  0.1757  0.4790
 1123TIP3    H224861   5.906   1.756   1.229  0.7784  0.6042  3.2813
 1124TIP3   OH224862   4.121   1.701  16.254  0.0316 -0.7246  0.2638
 1124TIP3    H124863   4.171   1.754  16.315 -1.3970 -0.1792  1.0077
 1124TIP3    H224864   4.185   1.672  16.189  1.2629  0.0538  1.0941
 1125TIP3   OH224865   6.781   2.477  14.674 -0.0756 -0.0197  1.0446
 1125TIP3    H124866   6.866   2.509  14.642 -0.8099 -0.3104 -1.4373
 1125TIP3    H224867   6.718   2.516  14.613 -1.8340  0.7834  3.2624
 1126TIP3   OH224868   3.373   2.445   5.069  0.1188  0.6985 -0.3420
 1126TIP3    H124869   3.452   2.413   5.113 -0.2253  1.1332  0.6084
 1126TIP3    H224870   3.308   2.454   5.139 -0.5563  1.0466 -0.9998
 1127TIP3   OH224871   6.055   4.115  16.834 -0.1276  0.2356 -0.0385
 1127TIP3    H124872   6.049   4.199  16.788 -0.0923  0.3625  0.1878
 1127TIP3    H224873   6.135   4.074  16.800 -0.4923 -0.0018 -0.6365
 1128TIP3   OH224874   4.137   5.085   4.121  0.9201 -0.7741 -0.5796
 1128TIP3    H124875   4.186   5.069   4.201  0.7189  0.2723 -0.2265
 1128TIP3    H224876   4.051   5.115   4.152  1.7344  2.4620 -1.0969
 1129TIP3   OH224877   2.830   4.700  15.550  0.1592 -0.0559  0.1847
 1129TIP3    H124878   2.919   4.716  15.519  0.6861  0.0752  1.7339
 1129TIP3    H224879   2.839   4.632  15.616 -0.9192 -0.1499  0.2526
 1130TIP3   OH224880   3.592   1.349   5.033  0.9150 -0.3179  0.2051
 1130TIP3    H124881   3.554   1.285   4.973  0.6438  0.3288 -0.3306
 1130TIP3    H224882   3.663   1.390   4.983  1.5421 -0.6881  0.7875
 1131TIP3   OH224883   3.417   2.511   5.608  0.1477 -0.5271 -0.3730
 1131TIP3    H124884   3.429   2.594   5.655 -1.3541 -0.5885  0.1848
 1131TIP3    H224885   3.501   2.495   5.565 -0.2950  2.6727 -2.7717
 1132TIP3   OH224886   0.910   4.098   2.594 -0.3996 -0.3020  0.5145
 1132TIP3    H124887   0.963   4.145   2.658  1.3949 -0.9221 -0.4509
 1132TIP3    H224888   0.916   4.006   2.621  0.5612 -0.5981 -0.6164
 1133TIP3   OH224889   1.542   5.669  11.087  0.0816  0.0490 -0.0593
 1133TIP3    H124890   1.621   5.623  11.113  0.9499  0.5525 -1.6757
 1133TIP3    H224891   1.492   5.605  11.035 -1.0297 -0.5434  1.6487
 1134TIP3   OH224892   3.249   6.310  12.248  0.4164  0.7136  0.3002
 1134TIP3    H124893   3.311   6.357  12.192  0.7242 -0.3239 -0.2681
 1134TIP3    H224894   3.197   6.257  12.188  1.1232 -0.8503  0.9933
 1135TIP3   OH224895   0.412   0.248  10.753  0.1666  0.0514  0.6530
 1135TIP3    H124896   0.437   0.338  10.732 -0.9628 -0.0854 -1.4413
 1135TIP3    H224897   0.361   0.218  10.678 -0.6031 -1.9121  1.8780
 1136TIP3   OH224898   1.303   6.575  11.205  0.0594 -0.4015  0.1652
 1136TIP3    H124899   1.257   6.618  11.133  0.7019 -0.4376 -0.2788
 1136TIP3    H224900   1.259   6.490  11.215 -1.7280  0.6254  1.5728
 1137TIP3   OH224901   5.131   6.332   2.128 -0.5429 -0.1695  0.2991
 1137TIP3    H124902   5.185   6.297   2.198  0.9579 -0.7601 -1.1072
 1137TIP3    H224903   5.180   6.407   2.094 -1.2460  0.1204 -0.1059
 1138TIP3   OH224904   5.781   6.334   4.034 -0.2160  0.1813 -0.1054
 1138TIP3    H124905   5.814   6.424   4.043  0.4127  0.1835 -1.9787
 1138TIP3    H224906   5.849   6.288   3.985 -2.2701 -0.2049 -2.8571
 1139TIP3   OH224907   5.102   6.317   4.340 -0.0467 -0.1657  0.0189
 1139TIP3    H124908   5.188   6.276   4.349  0.6535  0.5767 -2.2695
 1139TIP3    H224909   5.041   6.255   4.377  1.4378 -0.9273  1.3006
 1140TIP3   OH224910   3.151   3.729   3.668 -0.1032 -0.0296  0.1718
 1140TIP3    H124911   3.147   3.666   3.740 -0.0111 -0.3554 -0.1049
 1140TIP3    H224912   3.224   3.699   3.614 -0.0257  0.3438  0.0627
 1141TIP3   OH224913   6.515   1.037   4.551 -0.0204  0.5557  0.0702
 1141TIP3    H124914   6.484   1.124   4.578 -1.2045 -0.4562  2.2128
 1141TIP3    H224915   6.610   1.044   4.554 -0.0646  1.1812  2.5862
 1142TIP3   OH224916   5.514   0.002  13.406  0.5855  0.5413 -0.0177
 1142TIP3    H124917   5.447  -0.033  13.347  0.4072  0.7026  0.0864
 1142TIP3    H224918   5.474  -0.002  13.492 -0.8240  4.1538 -0.3380
 1143TIP3   OH224919   1.419   6.272  12.406 -0.1603 -0.4515  0.6012
 1143TIP3    H124920   1.406   6.364  12.428 -0.2415  0.3150 -2.2110
 1143TIP3    H224921   1.414   6.226  12.490  3.0893  2.3710  2.6040
 1144TIP3   OH224922   5.332   3.206   0.102  0.2393 -0.1035 -0.2393
 1144TIP3    H124923   5.393   3.156   0.156  0.4249 -0.9668 -1.2119
 1144TIP3    H224924   5.284   3.261   0.164  0.4927 -1.0179  0.7933
 1145TIP3   OH224925   6.160   0.051   2.520 -0.5746 -0.4330  0.3281
 1145TIP3    H124926   6.085   0.103   2.550 -0.6573  0.1608 -0.8785
 1145TIP3    H224927   6.176  -0.010   2.592 -0.2335  1.4774  1.9597
 1146TIP3   OH224928   6.057   1.529   4.366  0.0901  0.4898 -0.1802
 1146TIP3    H124929   5.973   1.503   4.328  0.6323 -2.2278  0.3097
 1146TIP3    H224930   6.111   1.551   4.290 -0.0793 -0.9807 -0.7612
 1147TIP3   OH224931   0.325   0.072   1.510 -0.4390 -0.7270  0.5941
 1147TIP3    H124932   0.352   0.161   1.529 -4.5599  0.7991  0.3160
 1147TIP3    H224933   0.374   0.048   1.431  1.6130  0.7718  1.3452
 1148TIP3   OH224934   6.584   0.847  12.546  0.0743 -0.3397  0.1513
 1148TIP3    H124935   6.678   0.832  12.556  0.2348  0.8581  0.5284
 1148TIP3    H224936   6.543   0.777  12.598  0.7245 -1.2604 -0.5367
 1149TIP3   OH224937   2.301   0.329  14.751  0.4008  0.0567  0.4971
 1149TIP3    H124938   2.358   0.392  14.706 -1.6076  2.2426  0.8019
 1149TIP3    H224939   2.360   0.279  14.807  2.3346  0.4496 -1.0771
 1150TIP3   OH224940   2.922   1.745   2.556 -1.0074 -1.0977 -1.2736
 1150TIP3    H124941   2.970   1.746   2.639  0.1396  0.3573 -1.9060
 1150TIP3    H224942   2.877   1.660   2.556 -2.4544 -0.4709  1.5901
 1151TIP3   OH224943   2.735   4.408  11.404 -0.0018  0.6809  0.1173
 1151TIP3    H124944   2.810   4.358  11.434 -0.0957  0.5378  0.1172
 1151TIP3    H224945   2.682   4.345  11.355 -0.3641  0.6537  0.5279
 1152TIP3   OH224946   4.871   2.630   3.940 -0.2198 -0.0740 -0.4702
 1152TIP3    H124947   4.926   2.668   4.008  1.6352  0.9834 -2.4274
 1152TIP3    H224948   4.833   2.705   3.895 -1.3788 -0.7511 -0.6754
 1153TIP3   OH224949   6.583   2.150  10.990 -0.7584 -0.2031 -0.6664
 1153TIP3    H124950   6.586   2.095  11.068 -0.2939  0.9763  0.1838
 1153TIP3    H224951   6.492   2.145  10.960 -1.3664  0.6179  0.9259
 1154TIP3   OH224952   1.320   4.896   6.960  0.5831 -0.6322 -0.3449
 1154TIP3    H124953   1.412   4.908   6.984  0.3224  0.6217  0.0951
 1154TIP3    H224954   1.323   4.840   6.882  1.8482  0.9762 -1.5271
 1155TIP3   OH224955   2.410   0.867   5.382  0.5069  0.4081 -0.6912
 1155TIP3    H124956   2.458   0.806   5.438 -1.8452 -2.7057 -1.7885
 1155TIP3    H224957   2.423   0.834   5.294 -3.0209 -0.3232 -1.0958
 1156TIP3   OH224958   0.722   2.346   0.226 -0.2082  1.0203 -0.3313
 1156TIP3    H124959   0.710   2.312   0.137  0.3263  1.4007 -0.5516
 1156TIP3    H224960   0.653   2.303   0.277  2.3883 -3.0517  0.1775
 1157TIP3   OH224961   6.296   1.677   3.064  0.1630 -0.5602  0.0059
 1157TIP3    H124962   6.262   1.636   2.984  0.2425  0.3189 -0.4877
 1157TIP3    H224963   6.390   1.658   3.063  0.4585  0.8014 -0.9627
 1158TIP3   OH224964   6.693   2.715  13.831 -0.4222 -0.2603  0.3658
 1158TIP3    H124965   6.780   2.754  13.826  0.4502 -2.2590 -1.7972
 1158TIP3    H224966   6.683   2.691  13.923  0.2825  2.0523  1.1207
 1159TIP3   OH224967   5.485   1.187   2.274  0.1954 -0.3684  0.3828
 1159TIP3    H124968   5.390   1.184   2.262  0.1018 -0.4456  1.0955
 1159TIP3    H224969   5.504   1.276   2.303  0.5776  0.2109 -1.5018
 1160TIP3   OH224970   5.875   4.314  11.240 -0.3335  0.1561  0.1176
 1160TIP3    H124971   5.872   4.227  11.201  2.2021 -0.3566  0.8581
 1160TIP3    H224972   5.837   4.303  11.327 -1.4796  0.1758 -0.3718
 1161TIP3   OH224973   4.240   0.650  16.729  0.2964  0.0317  0.4287
 1161TIP3    H124974   4.241   0.673  16.822  1.9859 -0.9549  0.6891
 1161TIP3    H224975   4.197   0.724  16.687  1.7753  1.7214  1.7052
 1162TIP3   OH224976   2.892   6.015   0.584  0.4632  0.5305  0.0406
 1162TIP3    H124977   2.824   5.948   0.591  0.4017  0.6460  0.5653
 1162TIP3    H224978   2.974   5.966   0.590  0.4382  0.3444 -1.0069
 1163TIP3   OH224979   6.422   1.713  10.427  0.4087 -0.0358 -0.3176
 1163TIP3    H124980   6.354   1.720  10.360 -0.4004 -1.4833  0.3053
 1163TIP3    H224981   6.500   1.684  10.379  0.5430  1.3008 -0.9780
 1164TIP3   OH224982   5.535   3.777  15.912 -0.7488 -0.3938 -0.1865
 1164TIP3    H124983   5.503   3.744  15.828  1.5570 -1.5647 -0.6891
 1164TIP3    H224984   5.551   3.870  15.897  0.9179 -0.8387 -1.5469
 1165TIP3   OH224985   4.908   2.023   5.063  0.1808  0.6868  0.0143
 1165TIP3    H124986   4.846   1.997   5.131  1.6467 -0.8867  0.8500
 1165TIP3    H224987   4.868   2.099   5.021 -2.3689 -0.3620  0.3752
 1166TIP3   OH224988   0.059   4.933   2.629  0.3904 -0.5728 -0.0229
 1166TIP3    H124989   0.107   5.016   2.628 -0.3097 -0.1486  0.3281
 1166TIP3    H224990   0.122   4.868   2.599  0.6634  0.2349 -1.2830
 1167TIP3   OH224991   2.437   5.128  15.365 -0.1866  0.6923 -0.3305
 1167TIP3    H124992   2.483   5.083  15.435 -0.7517 -1.7341 -1.4349
 1167TIP3    H224993   2.382   5.193  15.409 -0.0913 -0.3671  1.4055
 1168TIP3   OH224994   6.322   2.191  16.255  0.3754 -0.2723 -0.1818
 1168TIP3    H124995   6.270   2.263  16.220 -1.7406 -1.8559 -0.5153
 1168TIP3    H224996   6.412   2.223  16.253 -0.3982  2.0577 -1.0062
 1169TIP3   OH224997   1.863   2.567  12.253 -0.1691  0.2072 -0.5462
 1169TIP3    H124998   1.845   2.488  12.202  1.7603 -0.0774 -0.8564
 1169TIP3    H224999   1.780   2.586  12.297 -1.0561 -1.2096 -1.5020
 1170TIP3   OH225000   6.461   5.422  11.298 -0.3763  0.0464 -0.5325
 1170TIP3    H125001   6.443   5.334  11.330  1.4593  0.7051  2.7615
 1170TIP3    H225002   6.433   5.480  11.369 -1.5003  2.1667 -2.5815
 1171TIP3   OH225003   4.388   2.661  15.763 -0.3031 -0.0283  0.4028
 1171TIP3    H125004   4.400   2.670  15.668 -0.8775  0.1849  0.3488
 1171TIP3    H225005   4.390   2.751  15.796 -0.4441 -0.0804  0.5520
 1172TIP3   OH225006   1.152   0.556   1.962  0.3530 -0.3629 -0.1053
 1172TIP3    H125007   1.222   0.553   1.897 -0.9478  1.6322 -1.6938
 1172TIP3    H225008   1.080   0.602   1.919 -0.3876  1.6068  2.9006
 1173TIP3   OH225009   0.535   3.250   1.311 -0.5040 -0.1283 -0.0813
 1173TIP3    H125010   0.597   3.322   1.320 -1.8877  1.0619  0.3466
 1173TIP3    H225011   0.557   3.211   1.226  0.6106  0.4600 -0.0843
 1174TIP3   OH225012   3.118   5.640  16.094  0.2184 -0.2292 -0.2383
 1174TIP3    H125013   3.194   5.646  16.151  0.1567  0.3424 -0.2143
 1174TIP3    H225014   3.060   5.710  16.123 -0.4545 -0.8504 -0.0544
 1175TIP3   OH225015   0.191   0.007   6.288  0.6604 -0.0583  0.1613
 1175TIP3    H125016   0.253  -0.017   6.220  0.2632 -0.9857  0.1150
 1175TIP3    H225017   0.212   0.099   6.308  1.1174  0.0691 -0.8337
 1176TIP3   OH225018   6.214   3.655  12.904  0.5769 -0.0643  0.9937
 1176TIP3    H125019   6.140   3.662  12.965  0.7760  0.5624  1.1730
 1176TIP3    H225020   6.257   3.740  12.910 -0.1861  0.5322 -1.0502
 1177TIP3   OH225021   3.547   1.184   1.105 -0.2134 -0.1112  0.1456
 1177TIP3    H125022   3.515   1.198   1.016  0.4758 -1.6396 -0.3730
 1177TIP3    H225023   3.493   1.242   1.159 -1.1929  0.2427 -1.1587
 1178TIP3   OH225024   2.122   6.457  16.178 -0.1431  0.1958  0.0128
 1178TIP3    H125025   2.180   6.522  16.139  1.3881 -2.6230 -2.8651
 1178TIP3    H225026   2.037   6.473  16.137  0.6220 -0.5344 -1.9839
 1179TIP3   OH225027   0.109   0.869   3.433  0.1397 -0.4666  0.3682
 1179TIP3    H125028   0.054   0.837   3.361  2.2398  0.4583 -1.8057
 1179TIP3    H225029   0.076   0.958   3.450  0.4368 -0.2004 -0.3884
 1180TIP3   OH225030   0.817   1.365   0.573 -0.0603 -0.6408  0.0346
 1180TIP3    H125031   0.734   1.408   0.593  0.5422  0.2243  0.7583
 1180TIP3    H225032   0.882   1.435   0.575  1.0806 -1.6489  2.0116
 1181TIP3   OH225033   2.806   0.699   5.534  0.5528  0.0122  0.3009
 1181TIP3    H125034   2.898   0.703   5.560  0.3610  0.2371  0.9577
 1181TIP3    H225035   2.758   0.725   5.612  0.0041  2.2615 -0.7129
 1182TIP3   OH225036   2.389   3.825   6.202  0.6879 -0.4922 -0.4369
 1182TIP3    H125037   2.299   3.857   6.208  0.2968 -1.7283  1.0277
 1182TIP3    H225038   2.380   3.732   6.182  1.4293 -1.4121  2.8483
 1183TIP3   OH225039   5.581   5.766   3.237 -0.0998  0.5524 -0.1143
 1183TIP3    H125040   5.672   5.740   3.227 -0.2567  0.6542 -2.4887
 1183TIP3    H225041   5.583   5.841   3.296  1.3065  0.2918  0.1992
 1184TIP3   OH225042   1.739   2.655   4.737  0.0072 -0.5693 -0.0636
 1184TIP3    H125043   1.686   2.581   4.704  0.2031 -0.5980 -0.3176
 1184TIP3    H225044   1.741   2.717   4.664 -1.3494  0.3442  0.6242
 1185TIP3   OH225045   3.468   0.956  15.744  0.1794 -0.0016 -0.3782
 1185TIP3    H125046   3.544   0.898  15.742  1.0361  1.1088 -1.1413
 1185TIP3    H225047   3.408   0.919  15.680 -0.1977 -1.1947  0.6087
 1186TIP3   OH225048   0.957   3.292  11.298  0.3336 -0.1581  0.3067
 1186TIP3    H125049   1.025   3.351  11.263 -0.4671 -0.9556 -2.9855
 1186TIP3    H225050   0.984   3.205  11.268 -1.1566 -0.7353  0.5671
 1187TIP3   OH225051   2.728   4.208   6.115  0.4670  0.6534  0.4159
 1187TIP3    H125052   2.683   4.130   6.083  0.3304  0.8769  0.0645
 1187TIP3    H225053   2.775   4.178   6.194  2.0570 -0.2703 -0.8161
 1188TIP3   OH225054   4.875   5.792   3.307  0.2874  0.0948  0.1194
 1188TIP3    H125055   4.960   5.794   3.263 -0.2558 -0.7837 -1.0177
 1188TIP3    H225056   4.874   5.871   3.362  1.3254  0.7658 -0.8009
 1189TIP3   OH225057   2.658   0.639  12.047  0.1273  0.4103 -0.1062
 1189TIP3    H125058   2.675   0.583  11.971 -0.3414 -0.9177  0.7504
 1189TIP3    H225059   2.663   0.728  12.012 -1.4587 -0.1797 -2.0193
 1190TIP3   OH225060   4.044   3.346  12.888 -0.3689 -0.3197 -0.3217
 1190TIP3    H125061   4.027   3.297  12.807 -2.5898  0.8705 -0.6445
 1190TIP3    H225062   4.138   3.361  12.886 -0.1593 -1.4766 -2.0013
 1191TIP3   OH225063   4.796   5.248   5.245 -0.2908  0.4409  0.4824
 1191TIP3    H125064   4.820   5.289   5.328 -0.1549  0.3555  0.4855
 1191TIP3    H225065   4.821   5.156   5.256 -2.4527 -0.1207  1.2482
 1192TIP3   OH225066   4.942   1.888   5.681 -0.2843  0.0503 -0.1458
 1192TIP3    H125067   5.024   1.929   5.706  0.1212  0.3997 -1.8847
 1192TIP3    H225068   4.883   1.906   5.754  0.9099  0.5997  0.7170
 1193TIP3   OH225069   6.658   1.402  12.859  0.9697 -0.2700  0.6192
 1193TIP3    H125070   6.599   1.327  12.850 -0.5453  0.8346  0.9263
 1193TIP3    H225071   6.605   1.469  12.902  1.6385  1.6622 -1.3566
 1194TIP3   OH225072   0.982   3.422  12.785  0.1451  0.2217 -0.1273
 1194TIP3    H125073   0.905   3.365  12.788 -0.0906  0.5618  1.5444
 1194TIP3    H225074   0.949   3.505  12.750  0.4953 -0.5961 -2.5982
 1195TIP3   OH225075   4.885   0.390   1.166  0.1979  0.6187  0.0401
 1195TIP3    H125076   4.930   0.459   1.214  0.7360 -0.4414  1.1177
 1195TIP3    H225077   4.910   0.403   1.075 -0.3374  2.3004  0.1123
 1196TIP3   OH225078   1.530   2.741   5.089  0.1245  0.0244  0.7067
 1196TIP3    H125079   1.551   2.753   4.996  1.1053  0.5696  0.9826
 1196TIP3    H225080   1.584   2.667   5.116  0.1953  0.1646  0.9520
 1197TIP3   OH225081   3.316   5.532   6.353  0.1631  0.8620 -0.8454
 1197TIP3    H125082   3.399   5.485   6.345 -0.3759 -0.4986  0.8159
 1197TIP3    H225083   3.271   5.488   6.425 -1.6010  2.1794 -1.0777
 1198TIP3   OH225084   4.127   2.778  13.964  0.1379  0.2337  0.1855
 1198TIP3    H125085   4.061   2.785  13.896 -2.0314 -1.1161  1.9956
 1198TIP3    H225086   4.155   2.686  13.962  0.1180  0.1958  1.0240
 1199TIP3   OH225087   2.771   2.860   0.272  0.9811 -0.1570 -0.6562
 1199TIP3    H125088   2.815   2.915   0.337  1.0854 -0.5096 -0.4232
 1199TIP3    H225089   2.692   2.909   0.247  1.1470  0.1609 -0.5618
 1200TIP3   OH225090   2.604   5.791  11.156 -0.8773  0.1506 -0.5191
 1200TIP3    H125091   2.657   5.750  11.088 -1.5705 -0.4987 -0.6774
 1200TIP3    H225092   2.662   5.857  11.195  0.0301 -0.5123 -0.7100
 1201TIP3   OH225093   6.686   6.625   0.631  0.2099 -0.1997  0.3293
 1201TIP3    H125094   6.594   6.633   0.608  0.0549 -0.9300  0.6760
 1201TIP3    H225095   6.730   6.691   0.576 -0.2076 -1.4328 -1.5743
 1202TIP3   OH225096   2.398   0.753  13.763  0.6678 -0.5982  0.7220
 1202TIP3    H125097   2.386   0.837  13.809  1.2993  0.1568 -0.4326
 1202TIP3    H225098   2.487   0.727  13.784  0.6780 -0.6670  0.5906
 1203TIP3   OH225099   4.386   1.681   1.844  0.5142 -0.1593 -0.8368
 1203TIP3    H125100   4.464   1.731   1.821 -0.5855  1.3144 -1.5577
 1203TIP3    H225101   4.336   1.740   1.901  1.5292 -2.4075  2.7330
 1204TIP3   OH225102   6.044   2.391  13.978  0.3520 -0.1639  0.0927
 1204TIP3    H125103   6.081   2.394  14.066 -0.0963 -0.5337  0.2928
 1204TIP3    H225104   6.080   2.311  13.940 -1.1938 -1.2116  0.7249
 1205TIP3   OH225105   2.411   3.514   3.637 -0.4995  0.2738  0.6115
 1205TIP3    H125106   2.343   3.467   3.589 -2.0082  2.3233  0.6048
 1205TIP3    H225107   2.435   3.586   3.579  0.6534  0.4117  1.2370
 1206TIP3   OH225108   3.736   4.443  11.993  0.0800 -0.2113 -0.6477
 1206TIP3    H125109   3.766   4.409  12.078 -0.7245 -0.4396 -0.4499
 1206TIP3    H225110   3.796   4.402  11.929  3.2106  2.8924  0.0152
 1207TIP3   OH225111   4.950   0.451   0.881  0.0447  0.6848  0.0442
 1207TIP3    H125112   5.007   0.380   0.851  0.2589  0.2987  1.3122
 1207TIP3    H225113   4.896   0.471   0.805 -1.1233 -1.9169  0.0732
 1208TIP3   OH225114   3.007   6.761   4.003 -0.0707  0.5060 -0.4964
 1208TIP3    H125115   2.919   6.772   4.040 -0.0753 -1.4209  0.2338
 1208TIP3    H225116   3.066   6.790   4.073 -0.1220  0.9180 -0.6257
 1209TIP3   OH225117   5.978   0.332  15.359  0.9736 -0.0421 -0.1759
 1209TIP3    H125118   6.000   0.239  15.358 -2.6489 -1.1249  1.0581
 1209TIP3    H225119   5.898   0.338  15.306 -0.2877  1.8127  1.7535
 1210TIP3   OH225120   4.777   3.628  13.369  0.6723  0.1536 -0.6255
 1210TIP3    H125121   4.720   3.689  13.415  0.3963  0.9938 -2.0155
 1210TIP3    H225122   4.832   3.683  13.313  1.9868 -0.7370 -0.2509
 1211TIP3   OH225123   5.139   0.302   1.042 -0.7752 -0.3518 -0.3228
 1211TIP3    H125124   5.176   0.335   1.124 -1.3322 -0.7625  0.1019
 1211TIP3    H225125   5.209   0.313   0.978 -0.2382 -0.2705  0.2668
 1212TIP3   OH225126   5.370   1.135  15.156 -0.3371 -0.1977  0.2205
 1212TIP3    H125127   5.390   1.041  15.153  1.3357  0.1124  0.6892
 1212TIP3    H225128   5.453   1.178  15.137 -0.8756  1.2053  0.8808
 1213TIP3   OH225129   3.758   4.315  13.840 -0.0575  0.7494 -0.0050
 1213TIP3    H125130   3.794   4.228  13.823 -0.7981  0.3464  0.4348
 1213TIP3    H225131   3.678   4.318  13.787  0.6042  1.6472 -1.0021
 1214TIP3   OH225132   3.375   2.214   4.283  0.6617 -0.6755  0.7314
 1214TIP3    H125133   3.317   2.157   4.232  2.2388 -1.3330 -0.4264
 1214TIP3    H225134   3.331   2.299   4.284  1.1092 -0.2255 -2.9575
 1215TIP3   OH225135   2.453   2.719  13.821 -0.7595  0.1597 -0.0737
 1215TIP3    H125136   2.396   2.668  13.878 -0.2399  0.0940  0.3853
 1215TIP3    H225137   2.541   2.689  13.840 -0.3323  1.8920  0.9394
 1216TIP3   OH225138   0.118   3.283  12.734  0.2230 -0.0730  0.2353
 1216TIP3    H125139   0.130   3.235  12.816  2.2079  0.7132  0.4412
 1216TIP3    H225140   0.201   3.273  12.688 -0.5607  0.2444 -1.3108
 1217TIP3   OH225141   0.922   5.030  15.140  0.1895  0.0004 -0.3528
 1217TIP3    H125142   1.013   5.004  15.146 -0.0975 -0.9630 -0.1110
 1217TIP3    H225143   0.876   4.975  15.204 -0.4202  1.1513  0.2520
 1218TIP3   OH225144   0.256   4.829  13.866 -0.1749  0.1474 -0.0693
 1218TIP3    H125145   0.189   4.887  13.830 -0.2646  0.1399  0.0833
 1218TIP3    H225146   0.260   4.756  13.804  0.7202  0.8371 -0.8420
 1219TIP3   OH225147   0.294   2.566   2.322  0.1090  0.1500 -0.1303
 1219TIP3    H125148   0.227   2.621   2.363 -1.6216 -1.5943 -0.4617
 1219TIP3    H225149   0.256   2.542   2.237  2.0206  0.6849 -1.1737
 1220TIP3   OH225150   0.930   3.175   1.223  0.0001  0.0878 -0.5304
 1220TIP3    H125151   1.000   3.184   1.159  0.5579 -0.7262 -0.0564
 1220TIP3    H225152   0.852   3.155   1.171  0.1639  0.7544 -1.0417
 1221TIP3   OH225153   2.810   2.779  11.430  0.2763  0.2390  0.3029
 1221TIP3    H125154   2.802   2.851  11.368  0.5718 -0.7448 -0.9235
 1221TIP3    H225155   2.899   2.785  11.463 -0.1953  1.3827  1.4613
 1222TIP3   OH225156   3.850   3.331   2.661  0.1666  0.7301  0.6444
 1222TIP3    H125157   3.921   3.374   2.614  0.1153 -0.7058 -0.8287
 1222TIP3    H225158   3.837   3.385   2.740  2.1857  1.5768  0.4479
 1223TIP3   OH225159   5.820   2.992  12.788 -0.0103  0.2385  0.2684
 1223TIP3    H125160   5.736   3.037  12.779 -0.0610  0.1971  0.5303
 1223TIP3    H225161   5.812   2.914  12.734 -0.7472 -0.6402  1.6030
 1224TIP3   OH225162   6.236   6.516   4.544  0.0216  0.2729 -0.2743
 1224TIP3    H125163   6.321   6.551   4.515  0.8968 -2.4007 -1.2169
 1224TIP3    H225164   6.253   6.424   4.561 -2.5513 -0.1401  0.3497
 1225TIP3   OH225165   4.905   2.565  11.599  0.1134 -0.1006 -0.3592
 1225TIP3    H125166   4.888   2.535  11.510  1.6632 -1.1735 -0.3291
 1225TIP3    H225167   4.822   2.549  11.645 -0.8140  0.7760 -1.6532
 1226TIP3   OH225168   6.329   1.586   5.481 -0.5473  0.6572  0.3753
 1226TIP3    H125169   6.376   1.659   5.441 -0.7008 -0.0539 -1.1821
 1226TIP3    H225170   6.378   1.566   5.560  1.4696  0.3024 -0.8934
 1227TIP3   OH225171   2.283   2.788   1.566 -0.2125  0.5895  0.1200
 1227TIP3    H125172   2.321   2.833   1.491  1.3033  1.4399  1.3552
 1227TIP3    H225173   2.347   2.798   1.636 -1.5330 -0.2726  1.5224
 1228TIP3   OH225174   3.379   0.610  15.477  0.1558 -0.4044  0.6679
 1228TIP3    H125175   3.342   0.673  15.539  0.9844  1.1085 -0.3080
 1228TIP3    H225176   3.470   0.638  15.466  0.0291 -0.5950 -1.2189
 1229TIP3   OH225177   2.488   1.846  13.799  0.2442 -0.3284  0.0534
 1229TIP3    H125178   2.516   1.754  13.797 -0.0237 -0.4054 -0.6413
 1229TIP3    H225179   2.395   1.842  13.777  0.3470  0.1454 -0.4954
 1230TIP3   OH225180   5.951   6.278  11.289 -0.7759 -0.1672  0.3566
 1230TIP3    H125181   5.973   6.290  11.196 -0.8881 -3.0992 -0.1399
 1230TIP3    H225182   5.922   6.365  11.317  0.5258  1.1502 -1.9656
 1231TIP3   OH225183   5.237   5.023   5.262  0.0784  0.0464 -0.1476
 1231TIP3    H125184   5.297   4.973   5.317 -2.1197 -2.3736  0.2512
 1231TIP3    H225185   5.221   4.966   5.187 -0.0956  1.5692 -1.3030
 1232TIP3   OH225186   5.078   5.413  11.919  0.0852 -0.2758 -0.1046
 1232TIP3    H125187   5.135   5.437  11.993  1.3711  0.1107 -1.1813
 1232TIP3    H225188   4.992   5.446  11.945  0.9503  1.8772  0.2961
 1233TIP3   OH225189   2.240   4.702  13.821 -0.1587 -0.1301  0.0955
 1233TIP3    H125190   2.206   4.642  13.756  0.3490  0.7196 -0.9858
 1233TIP3    H225191   2.324   4.665  13.847  0.1276  0.0761 -0.5268
 1234TIP3   OH225192   1.519   4.010   2.961  0.4145  0.1823 -0.2650
 1234TIP3    H125193   1.504   3.919   2.989  2.6245  0.5239  2.5050
 1234TIP3    H225194   1.451   4.060   3.005  0.4277  0.0836 -0.1310
 1235TIP3   OH225195   5.511   0.892   0.541  0.6934 -0.1936 -0.1096
 1235TIP3    H125196   5.458   0.813   0.534 -3.4470  2.3668 -2.0352
 1235TIP3    H225197   5.483   0.932   0.624 -0.1919  1.0191 -0.9652
 1236TIP3   OH225198   2.452   3.458   3.931  0.3479  0.6025 -0.0168
 1236TIP3    H125199   2.402   3.475   3.851  0.9362  2.9311  0.0255
 1236TIP3    H225200   2.532   3.509   3.920  0.8578  0.2127  1.6651
 1237TIP3   OH225201   3.231   3.930  16.448  0.0898  0.1048 -0.3081
 1237TIP3    H125202   3.155   3.874  16.460  0.9304 -1.0019 -0.0268
 1237TIP3    H225203   3.199   4.002  16.394 -2.2251  1.9054  3.1066
 1238TIP3   OH225204   6.087   1.807   1.171 -0.3434  0.1485  0.4792
 1238TIP3    H125205   6.050   1.876   1.115 -0.4987 -0.8706 -0.7210
 1238TIP3    H225206   6.123   1.854   1.246 -2.1412  1.3694  0.6348
 1239TIP3   OH225207   6.676   1.955  14.957  0.3425  0.6155 -0.1508
 1239TIP3    H125208   6.770   1.938  14.954  0.7879  2.3626  1.8430
 1239TIP3    H225209   6.637   1.868  14.964  1.9152 -0.0701  0.5829
 1240TIP3   OH225210   5.230   5.391  11.206 -0.5615  0.1596 -0.4843
 1240TIP3    H125211   5.260   5.342  11.129  1.5373 -0.5403  0.7065
 1240TIP3    H225212   5.278   5.474  11.201 -0.2037 -0.0011  0.1920
 1241TIP3   OH225213   5.610   1.717   2.965  0.4436 -0.4554 -1.0059
 1241TIP3    H125214   5.657   1.778   3.022 -0.7582 -2.8948  2.9964
 1241TIP3    H225215   5.662   1.637   2.967 -1.8810 -2.0481  0.5636
 1242TIP3   OH225216   4.637   1.951   2.259 -0.3131 -0.2232  0.2730
 1242TIP3    H125217   4.697   2.020   2.289  0.5058 -0.5785 -0.4813
 1242TIP3    H225218   4.587   1.991   2.188  2.4496 -1.2237 -2.4943
 1243TIP3   OH225219   1.619   2.896  10.927 -0.1558  0.0117 -0.0564
 1243TIP3    H125220   1.700   2.905  10.976 -1.0720 -1.9129  2.0045
 1243TIP3    H225221   1.642   2.838  10.854  1.0959  2.4949 -1.7850
 1244TIP3   OH225222   4.881   0.843  15.548 -0.6396  0.1422 -0.2412
 1244TIP3    H125223   4.854   0.912  15.488  0.6909  2.1118  1.2849
 1244TIP3    H225224   4.874   0.884  15.635 -0.2461 -1.8204  0.7585
 1245TIP3   OH225225   2.695   3.794   5.860 -0.0871  0.2049 -0.2255
 1245TIP3    H125226   2.624   3.741   5.824 -1.1504  2.0469 -0.9344
 1245TIP3    H225227   2.749   3.818   5.785  0.0050  0.6733 -0.0159
 1246TIP3   OH225228   5.096   3.532  14.658  0.1443 -0.0349 -0.6312
 1246TIP3    H125229   5.088   3.523  14.563  1.3172 -0.3627 -0.7070
 1246TIP3    H225230   5.133   3.448  14.687 -1.4700 -0.4819  0.2995
 1247TIP3   OH225231   1.617   6.241  15.786 -0.0998 -1.6683  0.2197
 1247TIP3    H125232   1.620   6.332  15.757  0.7286 -1.6595  0.3178
 1247TIP3    H225233   1.699   6.228  15.833 -0.0037 -2.5930 -0.1801
 1248TIP3   OH225234   6.739   3.539  13.367  0.5209 -0.1255 -0.1900
 1248TIP3    H125235   6.779   3.575  13.446 -0.8582  0.3343  0.3296
 1248TIP3    H225236   6.680   3.471  13.399  0.3775 -0.3300 -0.8721
 1249TIP3   OH225237   5.128   0.798   1.410 -0.0854 -0.4506  0.3758
 1249TIP3    H125238   5.098   0.714   1.443 -2.2303  0.1332  0.0238
 1249TIP3    H225239   5.088   0.807   1.324  0.0978  0.9282  0.4049
 1250TIP3   OH225240   5.832   5.945   1.011  0.8268 -0.5082  0.6776
 1250TIP3    H125241   5.812   5.857   0.978 -0.1309  0.3754 -1.2336
 1250TIP3    H225242   5.819   5.938   1.106  0.1083 -2.2498  0.5006
 1251TIP3   OH225243   1.807   3.644  13.851 -0.2460 -0.1710  0.8822
 1251TIP3    H125244   1.821   3.574  13.914 -1.3190 -0.0752  1.2547
 1251TIP3    H225245   1.766   3.714  13.902 -1.0598 -0.0629  0.1189
 1252TIP3   OH225246   1.791   3.148   5.103 -0.0470  0.1881  0.5218
 1252TIP3    H125247   1.836   3.099   5.034 -2.1506  1.6905 -2.0427
 1252TIP3    H225248   1.859   3.161   5.170  1.5351 -3.0736 -0.2319
 1253TIP3   OH225249   1.707   3.284  12.668 -0.2267 -0.1074  0.3713
 1253TIP3    H125250   1.763   3.214  12.703  1.0563  1.1122  0.8868
 1253TIP3    H225251   1.618   3.250  12.674  0.3747 -1.7152  0.5262
 1254TIP3   OH225252   1.357   1.356  12.116 -0.2626 -0.1624 -0.3917
 1254TIP3    H125253   1.358   1.267  12.082 -2.8092 -0.5284  0.2202
 1254TIP3    H225254   1.280   1.396  12.076  1.4393  2.1870 -1.5223
 1255TIP3   OH225255   4.253   0.848  16.532  0.2013  0.9834  0.0398
 1255TIP3    H125256   4.327   0.908  16.538  0.6835  0.2538  1.7673
 1255TIP3    H225257   4.292   0.761  16.530 -0.5745  0.6298 -0.0982
 1256TIP3   OH225258   2.339   5.595  16.429 -0.0562  0.6252 -0.1350
 1256TIP3    H125259   2.274   5.624  16.366 -0.6943  0.1641  0.3003
 1256TIP3    H225260   2.297   5.606  16.514  0.6023  0.7494  0.1879
 1257TIP3   OH225261   0.667   0.307  10.350 -0.6358  0.2560 -0.0437
 1257TIP3    H125262   0.676   0.211  10.350 -0.6617  0.1662 -2.5903
 1257TIP3    H225263   0.573   0.323  10.347 -0.6245  0.2245 -1.9406
 1258TIP3   OH225264   1.878   6.248  12.844 -0.1283 -0.1866 -0.0694
 1258TIP3    H125265   1.873   6.341  12.821  1.9630  0.2132  0.8877
 1258TIP3    H225266   1.836   6.203  12.770 -0.0763  1.4367 -1.1376
 1259TIP3   OH225267   6.533   4.704  14.049  0.2817  0.5562  0.3183
 1259TIP3    H125268   6.540   4.733  13.958  0.2299 -1.7988 -0.5010
 1259TIP3    H225269   6.454   4.650  14.051  0.4419  0.3400  1.6965
 1260TIP3   OH225270   1.433   2.472   3.668 -0.0799 -0.0617  0.0183
 1260TIP3    H125271   1.475   2.402   3.718  0.5602  0.4316  0.1782
 1260TIP3    H225272   1.504   2.533   3.648 -0.8047  1.0327  0.7001
 1261TIP3   OH225273   0.083   6.068  15.315  0.3782 -0.4095 -0.1828
 1261TIP3    H125274   0.164   6.118  15.325 -1.1843  2.0807  1.1120
 1261TIP3    H225275   0.016   6.122  15.357 -1.5337 -3.6221  1.3052
 1262TIP3   OH225276   6.696   0.163  12.674 -0.1499 -0.3258  0.1279
 1262TIP3    H125277   6.748   0.120  12.742  0.2347  0.6392  0.4668
 1262TIP3    H225278   6.719   0.117  12.593 -1.2172 -2.0246  0.7249
 1263TIP3   OH225279   0.832   3.759   3.270 -0.0875  0.3864  0.2796
 1263TIP3    H125280   0.886   3.719   3.338  1.6959 -0.1993 -1.3916
 1263TIP3    H225281   0.748   3.713   3.275  0.0409  0.2762  1.9623
 1264TIP3   OH225282   5.651   1.867  11.420 -0.0203 -0.0881 -0.0071
 1264TIP3    H125283   5.651   1.883  11.326  0.3769  0.6219  0.1080
 1264TIP3    H225284   5.571   1.816  11.435  0.8855 -1.9112 -0.9899
 1265TIP3   OH225285   6.392   6.169  15.220 -0.5607 -0.0906 -0.0011
 1265TIP3    H125286   6.323   6.227  15.252 -0.1989  1.2219 -1.5060
 1265TIP3    H225287   6.347   6.087  15.199 -1.2284 -0.0778  1.3069
 1266TIP3   OH225288   6.408   2.337  12.997 -0.3786  0.0397  0.0849
 1266TIP3    H125289   6.335   2.318  12.938 -0.2247  0.3569 -0.2166
 1266TIP3    H225290   6.451   2.413  12.957  2.1670 -2.1507 -1.6320
 1267TIP3   OH225291   0.294   1.332   1.304  0.2957 -0.2446  0.4836
 1267TIP3    H125292   0.284   1.366   1.216 -1.2262  0.1575  0.7847
 1267TIP3    H225293   0.206   1.303   1.329  1.1238 -2.4874  1.0156
 1268TIP3   OH225294   1.693   1.187  13.218  0.0657 -0.2078  0.1523
 1268TIP3    H125295   1.748   1.254  13.261  0.7744  0.3842 -1.5820
 1268TIP3    H225296   1.705   1.203  13.125 -2.9303 -0.2210 -0.3058
 1269TIP3   OH225297   1.451   5.437  11.486  0.6786 -0.2202  0.6097
 1269TIP3    H125298   1.360   5.407  11.480  0.5841 -0.7824  3.4665
 1269TIP3    H225299   1.455   5.483  11.570  2.7179  1.0562 -0.1250
 1270TIP3   OH225300   2.820   5.372  13.999 -0.4736 -0.5517  0.4087
 1270TIP3    H125301   2.823   5.384  13.904  1.3005 -1.0136  0.3806
 1270TIP3    H225302   2.737   5.326  14.014 -1.9543  1.5370 -0.6246
 1271TIP3   OH225303   6.466   1.011  13.278  0.3139 -0.2086  0.2485
 1271TIP3    H125304   6.515   0.934  13.308  1.4963  1.0488  1.7071
 1271TIP3    H225305   6.525   1.055  13.217 -0.6592 -0.8275 -1.1720
 1272TIP3   OH225306   1.877   4.543  13.436  0.1432  0.2029  0.1680
 1272TIP3    H125307   1.887   4.598  13.359  0.6076 -0.9574 -0.6394
 1272TIP3    H225308   1.818   4.591  13.493 -1.1310  0.5921 -1.4039
 1273TIP3   OH225309   0.364   2.516   0.023 -0.1834  0.2058  0.0533
 1273TIP3    H125310   0.399   2.569   0.095  0.9538 -1.9935  1.1986
 1273TIP3    H225311   0.430   2.522  -0.046 -0.4480  0.8978 -0.1529
 1274TIP3   OH225312   3.456   1.604   3.472 -0.4301  0.2633  0.5079
 1274TIP3    H125313   3.392   1.664   3.509 -0.7824 -0.2470  0.7278
 1274TIP3    H225314   3.533   1.613   3.528 -1.1607 -0.9608  1.7764
 1275TIP3   OH225315   5.823   6.423   4.426  0.2016  0.3242 -0.3406
 1275TIP3    H125316   5.784   6.431   4.513  0.6763  1.3962 -0.2152
 1275TIP3    H225317   5.868   6.339   4.428 -1.4597 -0.6092 -0.2511
 1276TIP3   OH225318   4.605   0.976  11.445  0.1700  0.1178  0.3320
 1276TIP3    H125319   4.577   1.049  11.389 -0.7595 -0.9365 -0.6141
 1276TIP3    H225320   4.524   0.934  11.471  0.7379 -1.5589 -0.4834
 1277TIP3   OH225321   2.932   1.341  10.368  0.2401  0.3704 -0.5617
 1277TIP3    H125322   2.974   1.375  10.289  0.3758  0.5046 -0.4314
 1277TIP3    H225323   2.886   1.416  10.405  0.6911  0.4622 -0.1755
 1278TIP3   OH225324   4.550   4.922  10.739 -0.0578  0.5143  0.1376
 1278TIP3    H125325   4.480   4.859  10.755  1.2093 -0.5591  1.8071
 1278TIP3    H225326   4.514   5.006  10.769 -0.0646 -0.3415  2.7561
 1279TIP3   OH225327   5.296   2.432   1.988 -0.0989  0.5215  0.4747
 1279TIP3    H125328   5.322   2.360   2.046 -0.3883  0.4687  0.5407
 1279TIP3    H225329   5.375   2.451   1.936 -0.6436 -1.3616 -1.1450
 1280TIP3   OH225330   4.301   0.304   0.889  0.3216 -0.2812  0.1080
 1280TIP3    H125331   4.226   0.247   0.907 -2.2428  2.5713 -0.8518
 1280TIP3    H225332   4.316   0.295   0.795 -0.7665  1.2725 -0.2507
 1281TIP3   OH225333   3.469   6.667   4.391  0.5549 -0.4057  0.1297
 1281TIP3    H125334   3.539   6.603   4.404 -0.5417 -1.2003  3.0221
 1281TIP3    H225335   3.405   6.621   4.336  1.1962 -0.5748 -0.4845
 1282TIP3   OH225336   0.630   3.655  14.799  1.1481  0.5491 -0.1052
 1282TIP3    H125337   0.690   3.580  14.795  0.7322  0.2337 -0.4246
 1282TIP3    H225338   0.545   3.617  14.818  0.7488  0.8425 -1.2413
 1283TIP3   OH225339   1.785   4.368   0.806 -0.5344  0.3624  0.1444
 1283TIP3    H125340   1.870   4.325   0.800  0.0298  1.3614  0.7120
 1283TIP3    H225341   1.806   4.461   0.817 -1.7092  0.7608 -0.7637
 1284TIP3   OH225342   3.511   1.571  15.605  0.7875  0.0244  0.1706
 1284TIP3    H125343   3.506   1.490  15.656  1.2956  0.0477  0.2612
 1284TIP3    H225344   3.421   1.604  15.604  0.4164 -0.9289 -0.5021
 1285TIP3   OH225345   1.979   3.095   3.738 -0.2397 -0.0205  0.5305
 1285TIP3    H125346   1.945   3.024   3.794 -1.3577  0.3412  0.3406
 1285TIP3    H225347   1.958   3.175   3.786  0.4981  0.2150  0.4699
 1286TIP3   OH225348   1.639   2.533  13.091  0.2600 -0.1604 -0.2478
 1286TIP3    H125349   1.642   2.538  13.186 -1.4371  2.2130 -0.2207
 1286TIP3    H225350   1.730   2.544  13.063  0.5764  0.9167  1.0993
 1287TIP3   OH225351   5.792   3.268   3.809  0.4460 -0.1901  0.8214
 1287TIP3    H125352   5.745   3.352   3.816  0.0997 -0.4704  2.2911
 1287TIP3    H225353   5.883   3.290   3.826  0.4306 -0.0425  0.7140
 1288TIP3   OH225354   5.449   0.205   5.823 -0.9089 -0.1624 -0.0142
 1288TIP3    H125355   5.362   0.237   5.846 -2.0921 -2.9694 -0.2192
 1288TIP3    H225356   5.457   0.220   5.729 -0.2113  2.0175  0.3171
 1289TIP3   OH225357   5.593   4.768  12.547  0.2205  0.2415 -0.8389
 1289TIP3    H125358   5.624   4.734  12.463 -1.2911  0.2696 -1.4356
 1289TIP3    H225359   5.673   4.795  12.592  1.1708 -0.9606 -1.7237
 1290TIP3   OH225360   4.115   4.637  13.655 -0.0429  0.5267  0.0076
 1290TIP3    H125361   4.167   4.636  13.736  1.2348 -0.4430 -0.7775
 1290TIP3    H225362   4.091   4.545  13.641 -0.4128  0.7143 -0.6181
 1291TIP3   OH225363   4.436   0.006  11.229 -0.0158 -0.1421 -0.3507
 1291TIP3    H125364   4.414  -0.001  11.136  0.3381  4.9204 -1.1333
 1291TIP3    H225365   4.525  -0.028  11.235 -0.0321 -0.5398 -1.8798
 1292TIP3   OH225366   5.471   0.831   1.830 -0.7073 -0.0187  0.0558
 1292TIP3    H125367   5.448   0.743   1.800 -1.0956  0.4274 -1.0136
 1292TIP3    H225368   5.552   0.852   1.784 -1.1760  0.5820 -0.5114
 1293TIP3   OH225369   2.759   4.189  12.039  0.0283  0.0592 -0.4509
 1293TIP3    H125370   2.740   4.107  11.993 -0.4858  0.7157 -1.4547
 1293TIP3    H225371   2.826   4.166  12.103 -1.4938 -1.5623  0.6423
 1294TIP3   OH225372   3.621   5.073   6.448 -0.3170 -0.6301  0.6658
 1294TIP3    H125373   3.614   5.041   6.358 -0.1189 -0.3126  0.5349
 1294TIP3    H225374   3.711   5.103   6.456 -0.4847 -0.1535  0.8015
 1295TIP3   OH225375   4.950   3.317  15.947  0.3815 -0.2961 -0.1405
 1295TIP3    H125376   4.869   3.333  15.994  0.0982  2.1205 -1.3104
 1295TIP3    H225377   5.007   3.272  16.010 -1.9514 -2.5176  0.5540
 1296TIP3   OH225378   2.701   5.390  13.744  0.2105  0.2222  0.0290
 1296TIP3    H125379   2.609   5.391  13.770  0.2109 -0.9650  0.1545
 1296TIP3    H225380   2.717   5.299  13.719  1.2569  0.5005 -0.3412
 1297TIP3   OH225381   3.668   3.358   4.870 -0.4586  0.0409  0.6088
 1297TIP3    H125382   3.755   3.397   4.875 -0.3959 -0.1236  0.7962
 1297TIP3    H225383   3.610   3.432   4.854 -0.1566  0.0213 -0.6595
 1298TIP3   OH225384   0.475   2.163  15.402  0.2798  0.5222 -0.3024
 1298TIP3    H125385   0.412   2.164  15.475  0.1999  1.6025 -0.3650
 1298TIP3    H225386   0.451   2.240  15.350  0.6733  0.0522 -1.1865
 1299TIP3   OH225387   5.773   2.453  11.780  0.3769  0.5723  0.3121
 1299TIP3    H125388   5.743   2.540  11.808 -0.4719  0.3990 -0.0489
 1299TIP3    H225389   5.868   2.460  11.781  0.3201  1.4751  0.3986
 1300TIP3   OH225390   4.797   1.192  13.999  0.4418 -0.3228 -0.1019
 1300TIP3    H125391   4.734   1.142  14.049  1.2918 -1.2608  0.0515
 1300TIP3    H225392   4.829   1.132  13.932  0.2005  0.5449 -1.0301
 1301TIP3   OH225393   4.968   1.285  15.657 -0.0324  0.1013 -0.1155
 1301TIP3    H125394   4.947   1.337  15.734  3.7702  0.8667  0.6248
 1301TIP3    H225395   4.991   1.350  15.590  3.5103 -0.3654  0.4240
 1302TIP3   OH225396   3.841   3.863  14.766  0.5254 -0.1421 -0.1999
 1302TIP3    H125397   3.880   3.948  14.747 -0.1802  0.0662 -0.7440
 1302TIP3    H225398   3.788   3.878  14.844 -0.9142  0.3450 -1.2247
 1303TIP3   OH225399   1.730   0.697  11.902 -0.9351  0.0117 -0.3075
 1303TIP3    H125400   1.689   0.709  11.816  2.2526 -1.5901 -2.2437
 1303TIP3    H225401   1.713   0.606  11.925 -1.1838  0.2404  0.4519
 1304TIP3   OH225402   5.906   5.917   3.915  0.0791  0.3380 -1.1377
 1304TIP3    H125403   5.982   5.973   3.900 -0.2220  1.0047 -0.2735
 1304TIP3    H225404   5.938   5.828   3.898  2.2140  0.0924  2.8400
 1305TIP3   OH225405   0.931   6.403  12.332 -0.2934 -0.3232  0.4271
 1305TIP3    H125406   0.989   6.334  12.365 -1.0779 -0.5583  1.3525
 1305TIP3    H225407   0.903   6.372  12.246 -1.5779 -1.7791  1.3138
 1306TIP3   OH225408   0.306   2.103  13.460 -0.0397 -0.3809  0.7114
 1306TIP3    H125409   0.211   2.118  13.456  0.0968  0.4374  0.3417
 1306TIP3    H225410   0.316   2.012  13.433 -0.6369 -0.1209 -0.5058
 1307TIP3   OH225411   1.321   3.972   4.967  0.1647  0.1423 -0.2167
 1307TIP3    H125412   1.382   3.959   5.040  2.4963  3.1669 -1.4160
 1307TIP3    H225413   1.259   4.038   4.998  1.9308  2.4040 -1.2166
 1308TIP3   OH225414   6.183   2.543  13.691 -0.0589 -0.1414 -0.3879
 1308TIP3    H125415   6.229   2.478  13.638 -1.5310 -1.0099 -0.6257
 1308TIP3    H225416   6.094   2.511  13.698 -1.0416  2.1760 -1.1109
 1309TIP3   OH225417   1.531   5.528   2.546  0.0491 -0.0461 -0.1786
 1309TIP3    H125418   1.491   5.446   2.575 -0.4096  0.3967  0.4608
 1309TIP3    H225419   1.492   5.545   2.461  0.0108 -0.3961 -0.2328
 1310TIP3   OH225420   3.360   4.330  14.697 -0.3815  0.7313 -0.1193
 1310TIP3    H125421   3.274   4.368  14.682  0.1674  2.1324  0.1240
 1310TIP3    H225422   3.386   4.363  14.783  0.1510 -0.1739  0.0850
 1311TIP3   OH225423   0.739   1.779   4.611 -0.0757 -0.9056  0.0344
 1311TIP3    H125424   0.716   1.731   4.531 -2.3773 -0.6684  0.4944
 1311TIP3    H225425   0.742   1.871   4.585 -0.7547 -0.8353  0.1816
 1312TIP3   OH225426   0.172   1.647   2.962 -0.6108  0.5204  0.0809
 1312TIP3    H125427   0.138   1.557   2.961 -1.8394  0.7963  3.2490
 1312TIP3    H225428   0.247   1.645   2.903 -1.0730 -2.3921 -0.5743
 1313TIP3   OH225429   6.741   1.028   0.949  0.8847 -0.5811  0.7402
 1313TIP3    H125430   6.696   1.082   1.015 -1.4002 -0.8536 -0.4989
 1313TIP3    H225431   6.699   0.942   0.956 -0.5030 -0.2277 -2.0080
 1314TIP3   OH225432   3.868   1.813   4.029 -0.2263  0.8393  0.9729
 1314TIP3    H125433   3.910   1.884   4.078  1.8527 -0.1540  0.7576
 1314TIP3    H225434   3.933   1.787   3.964 -2.2120  0.8716 -1.1464
 1315TIP3   OH225435   4.632   3.889  11.508  0.0366  0.4778  0.1176
 1315TIP3    H125436   4.612   3.976  11.473 -1.0527  0.3064  0.2571
 1315TIP3    H225437   4.587   3.886  11.592  1.5176  0.3902  0.9382
 1316TIP3   OH225438   1.491   5.097   0.963  0.5766  0.5655  0.0993
 1316TIP3    H125439   1.430   5.058   1.025 -0.0374 -0.2430 -0.9891
 1316TIP3    H225440   1.538   5.163   1.014  0.0778 -0.0601  1.4131
 1317TIP3   OH225441   6.005   4.602   3.953 -0.1116 -0.1348  0.2228
 1317TIP3    H125442   6.013   4.625   3.861 -1.5642  1.3552  0.4249
 1317TIP3    H225443   6.065   4.528   3.965 -1.8285 -2.1280 -2.4999
 1318TIP3   OH225444   1.425   6.334   3.363  0.1845  0.1271 -0.3280
 1318TIP3    H125445   1.410   6.418   3.320  1.2937  1.1277  1.1547
 1318TIP3    H225446   1.341   6.289   3.358  0.2529  0.1052 -3.5901
 1319TIP3   OH225447   1.189   6.568   5.705  0.1726 -0.4509 -0.4981
 1319TIP3    H125448   1.227   6.519   5.632 -0.5456 -0.3916 -0.9170
 1319TIP3    H225449   1.250   6.640   5.719  2.4753 -2.5991  1.5657
 1320TIP3   OH225450   0.892   4.661  11.982 -0.1102 -0.0884  0.0193
 1320TIP3    H125451   0.916   4.616  12.063  0.8681  2.2589  1.1314
 1320TIP3    H225452   0.969   4.651  11.925  0.5380  0.9434  0.6633
 1321TIP3   OH225453   0.437   3.212  14.310  0.9309  0.5530 -0.1662
 1321TIP3    H125454   0.469   3.123  14.298  3.9171  1.1007  2.4297
 1321TIP3    H225455   0.510   3.267  14.283  0.4461  2.0830  1.4613
 1322TIP3   OH225456   5.762   5.842   4.537 -0.3742 -0.2305 -0.0937
 1322TIP3    H125457   5.799   5.765   4.495  1.5700  0.3154  0.5233
 1322TIP3    H225458   5.728   5.810   4.620  2.5299 -0.1518  1.2541
 1323TIP3   OH225459   4.092   0.465   3.668 -0.7603  0.0652  0.0964
 1323TIP3    H125460   4.031   0.509   3.726 -1.5618  0.6049 -1.1172
 1323TIP3    H225461   4.039   0.399   3.622  0.1946 -1.4925  1.1137
 1324TIP3   OH225462   2.506   4.882  11.781  0.6502 -0.1254 -0.1555
 1324TIP3    H125463   2.517   4.975  11.758 -0.3458 -0.1974 -0.9955
 1324TIP3    H225464   2.492   4.883  11.876  0.5316  0.5979 -0.1686
 1325TIP3   OH225465   1.778   2.307  14.394  0.8562  0.4676  0.1683
 1325TIP3    H125466   1.834   2.326  14.469  0.1099 -0.2985  0.9370
 1325TIP3    H225467   1.820   2.352  14.321  3.2462 -1.1584  0.4232
 1326TIP3   OH225468   1.507   0.898  12.412 -0.2221  0.5683 -0.4768
 1326TIP3    H125469   1.415   0.869  12.418  0.2093 -0.7864  0.2218
 1326TIP3    H225470   1.542   0.849  12.338 -0.3157  1.8871 -1.4091
 1327TIP3   OH225471   0.531   4.857  14.532 -0.3777  0.4799 -0.4695
 1327TIP3    H125472   0.441   4.837  14.509 -0.5279 -1.6164  1.5398
 1327TIP3    H225473   0.524   4.913  14.610  0.0472  0.2964 -0.2983
 1328TIP3   OH225474   1.327   0.685  16.583 -0.0521  0.3906 -0.4170
 1328TIP3    H125475   1.353   0.593  16.584 -0.5045  0.2606 -0.4550
 1328TIP3    H225476   1.407   0.732  16.557  0.4533  0.1033  0.5713
 1329TIP3   OH225477   0.576   2.902  12.411 -0.2933  0.4958 -0.0581
 1329TIP3    H125478   0.587   2.817  12.455  0.9928 -0.1881 -1.5788
 1329TIP3    H225479   0.484   2.923  12.422 -1.0144 -1.8760 -0.9304
 1330TIP3   OH225480   6.484   2.040   0.325  0.4729  0.4109  0.3376
 1330TIP3    H125481   6.511   1.954   0.357  0.7735  1.1824  2.3222
 1330TIP3    H225482   6.565   2.092   0.327  0.1988  0.8752 -0.3595
 1331TIP3   OH225483   3.316   2.269  10.944  0.2940 -0.1949 -0.1820
 1331TIP3    H125484   3.391   2.327  10.929 -0.5124  0.6580 -0.9840
 1331TIP3    H225485   3.270   2.309  11.018 -1.9527  2.0391 -2.5628
 1332TIP3   OH225486   0.546   0.294   5.546 -0.5960 -0.5272  0.0399
 1332TIP3    H125487   0.584   0.209   5.564  0.0875 -0.1222  0.5386
 1332TIP3    H225488   0.610   0.357   5.578 -0.9618  0.1812 -0.5724
 1333TIP3   OH225489   4.504   3.160  15.511  0.0899 -0.3319  0.4721
 1333TIP3    H125490   4.542   3.115  15.586  0.2564 -1.8562 -0.4950
 1333TIP3    H225491   4.512   3.098  15.439  0.8603  1.4693 -1.0769
 1334TIP3   OH225492   1.101   2.686  11.580 -0.2288  0.0293 -0.3361
 1334TIP3    H125493   1.164   2.714  11.513 -0.4709 -0.2916 -0.7015
 1334TIP3    H225494   1.053   2.614  11.539 -1.9618  1.3312 -0.6696
 1335TIP3   OH225495   4.496   3.317   0.272  0.0911  0.8211  0.1359
 1335TIP3    H125496   4.465   3.405   0.249 -2.1119 -0.0781 -0.5748
 1335TIP3    H225497   4.420   3.275   0.314  1.7545 -0.0723  2.4824
 1336TIP3   OH225498   3.864   4.421  16.277  0.6176  0.2733  0.0315
 1336TIP3    H125499   3.932   4.446  16.214  1.3203 -1.5197  0.0076
 1336TIP3    H225500   3.808   4.360  16.229  0.4184 -0.1265  0.7531
 1337TIP3   OH225501   5.291   2.009   4.917  0.2839 -0.1895  0.0320
 1337TIP3    H125502   5.266   1.942   4.981  2.6845 -0.5472  0.6698
 1337TIP3    H225503   5.349   2.068   4.965 -0.7046  1.6249 -0.8888
 1338TIP3   OH225504   0.947   2.331   4.574  0.1010  0.5883 -0.5719
 1338TIP3    H125505   0.920   2.278   4.649 -2.6941  0.6144 -1.4765
 1338TIP3    H225506   1.016   2.279   4.532  0.5044 -0.2219  0.9997
 1339TIP3   OH225507   2.338   1.483  10.132  0.2359  0.0179 -1.0886
 1339TIP3    H125508   2.264   1.529  10.091 -0.6236 -0.4557 -0.1241
 1339TIP3    H225509   2.316   1.482  10.225  1.8675  0.5745 -0.6776
 1340TIP3   OH225510   6.095   6.790  11.411  0.3528  0.1340  0.7233
 1340TIP3    H125511   6.055   6.742  11.484  0.8669 -1.1717  0.1857
 1340TIP3    H225512   6.189   6.779  11.425  0.4837  1.0464  0.6067
 1341TIP3   OH225513   5.917   1.829   5.818 -0.2341 -0.1188 -0.3760
 1341TIP3    H125514   5.941   1.874   5.900  0.1924 -2.3469  0.7986
 1341TIP3    H225515   6.000   1.816   5.772 -0.0465 -1.6080  0.3446
 1342TIP3   OH225516   3.604   6.807  15.878  0.0171 -0.0203 -0.1833
 1342TIP3    H125517   3.694   6.828  15.855 -0.1084 -0.0814 -0.7536
 1342TIP3    H225518   3.597   6.825  15.972  1.0562 -1.4899  0.2036
 1343TIP3   OH225519   3.270   2.266  14.062  0.0539 -0.3188 -0.4113
 1343TIP3    H125520   3.352   2.301  14.027 -0.7132  1.8720 -0.1794
 1343TIP3    H225521   3.297   2.211  14.135  1.3119  1.2788  0.3985
 1344TIP3   OH225522   2.341   6.264   1.630 -0.2702  0.1156 -0.3681
 1344TIP3    H125523   2.313   6.355   1.646 -2.0824 -0.2870 -0.9533
 1344TIP3    H225524   2.369   6.264   1.539 -0.4170  0.0621 -0.4137
 1345TIP3   OH225525   0.164   2.109   1.899 -0.5799  0.0858 -0.0053
 1345TIP3    H125526   0.107   2.102   1.976  0.2172  2.1190  0.8338
 1345TIP3    H225527   0.227   2.037   1.909  1.6318  2.2056  3.1799
 1346TIP3   OH225528   1.149   4.991  12.927  0.0355 -0.1753  0.0869
 1346TIP3    H125529   1.158   4.938  13.007  0.7587  0.0548  0.1717
 1346TIP3    H225530   1.166   4.930  12.856 -2.5650 -0.8584 -0.0482
 1347TIP3   OH225531   0.826   1.835   1.330  0.1939 -0.2199  0.0534
 1347TIP3    H125532   0.756   1.896   1.349  0.4618  0.0980  0.0360
 1347TIP3    H225533   0.888   1.885   1.278  1.7513  0.3470  2.2964
 1348TIP3   OH225534   2.960   4.044  13.062 -0.0988 -0.0241 -0.0745
 1348TIP3    H125535   2.882   3.987  13.062  0.6828 -1.1379  0.0576
 1348TIP3    H225536   2.995   4.035  13.150  1.0969 -0.8737 -0.6112
 1349TIP3   OH225537   3.954   0.208   2.476 -0.3084  0.3361  0.0964
 1349TIP3    H125538   3.900   0.178   2.403 -1.6656  1.2097  0.7115
 1349TIP3    H225539   4.044   0.203   2.443 -0.9029  0.9018 -1.7123
 1350TIP3   OH225540   2.858   2.049   6.017 -0.6261  0.1014 -0.0047
 1350TIP3    H125541   2.879   1.991   6.090 -1.1751 -0.3734 -0.2187
 1350TIP3    H225542   2.811   2.122   6.057 -1.3458 -0.3880  0.0628
 1351TIP3   OH225543   3.133   3.413  11.431  0.4615  0.6007  0.3339
 1351TIP3    H125544   3.070   3.380  11.496 -0.9539  0.1458 -1.2031
 1351TIP3    H225545   3.111   3.506  11.421  0.1312  0.4820 -0.0751
 1352TIP3   OH225546   2.128   5.212  15.702 -0.1170  0.2991  0.1535
 1352TIP3    H125547   2.173   5.268  15.765  1.2581  0.5503 -1.0180
 1352TIP3    H225548   2.040   5.250  15.695 -0.2448  0.3705  1.7511
 1353TIP3   OH225549   5.163   6.507   0.980 -0.2159 -0.0239 -0.6159
 1353TIP3    H125550   5.236   6.564   0.958 -1.7979  1.7842 -1.4169
 1353TIP3    H225551   5.159   6.508   1.076  1.2264 -0.7608 -0.5250
 1354TIP3   OH225552   2.152   5.356   2.876 -0.2384  0.4835  0.6202
 1354TIP3    H125553   2.117   5.399   2.798 -1.0126  0.6806  1.0635
 1354TIP3    H225554   2.191   5.275   2.843 -1.0731  0.2850  0.1027
 1355TIP3   OH225555   3.559   3.400   5.675 -0.3445  0.2489  0.1197
 1355TIP3    H125556   3.567   3.484   5.629 -1.4363  0.2915 -0.0173
 1355TIP3    H225557   3.487   3.355   5.631  0.5728 -1.0028 -0.1420
 1356TIP3   OH225558   4.876   4.280  12.159 -0.6815 -0.1614  0.0627
 1356TIP3    H125559   4.805   4.266  12.097 -0.6802  0.2620 -0.0415
 1356TIP3    H225560   4.935   4.206  12.147  0.0212  0.6020 -1.4179
 1357TIP3   OH225561   5.193   0.355   2.217  0.5054  0.4178 -0.4526
 1357TIP3    H125562   5.105   0.391   2.210  0.0915 -0.3609  0.5578
 1357TIP3    H225563   5.209   0.315   2.131 -0.0817  0.6584 -0.6787
 1358TIP3   OH225564   4.268   6.500   2.439 -0.0278 -0.3706  0.4608
 1358TIP3    H125565   4.257   6.461   2.525 -1.7460  0.5138  0.6892
 1358TIP3    H225566   4.344   6.456   2.402  1.6087  0.1573  2.9312
 1359TIP3   OH225567   6.631   6.581   2.346 -1.0143  0.4957  0.1085
 1359TIP3    H125568   6.575   6.658   2.353  1.1660  2.4337 -2.0201
 1359TIP3    H225569   6.714   6.607   2.384 -0.3316 -0.9264 -0.3234
 1360TIP3   OH225570   4.452   6.405  15.614  0.4164 -0.1354  0.1044
 1360TIP3    H125571   4.358   6.421  15.610  0.0969 -1.9368 -0.3955
 1360TIP3    H225572   4.492   6.491  15.599 -1.1273  0.7713  0.9507
 1361TIP3   OH225573   6.575   6.544  16.104 -0.5039 -0.9101 -0.0068
 1361TIP3    H125574   6.661   6.510  16.079  0.0065  0.1522  0.2560
 1361TIP3    H225575   6.589   6.585  16.189 -0.7171  1.2789 -0.9363
 1362TIP3   OH225576   2.596   2.648  13.375 -0.1356 -0.2638  0.2064
 1362TIP3    H125577   2.579   2.686  13.461  1.1227 -0.8091  0.7206
 1362TIP3    H225578   2.539   2.697  13.315 -1.0072  0.1370  1.3325
 1363TIP3   OH225579   0.050   0.035  12.774  0.2550 -0.3825 -0.3589
 1363TIP3    H125580   0.084   0.048  12.862 -0.8919 -0.2836  0.0929
 1363TIP3    H225581   0.127   0.040  12.717  1.0257 -0.5666  0.6399
 1364TIP3   OH225582   6.734   4.640   1.965  0.2746 -0.2043  0.0264
 1364TIP3    H125583   6.642   4.641   1.992  0.2505 -1.1138 -0.0122
 1364TIP3    H225584   6.742   4.714   1.904 -0.4000 -0.0499  0.1233
 1365TIP3   OH225585   0.527   0.945   2.196 -0.2942  0.1388  0.3082
 1365TIP3    H125586   0.579   0.982   2.268  0.5632  0.0176 -0.2278
 1365TIP3    H225587   0.575   0.971   2.117 -1.5035  0.7279 -0.2676
 1366TIP3   OH225588   2.249   6.230  11.057  0.5651  1.4227  0.3935
 1366TIP3    H125589   2.325   6.195  11.103  0.2626 -0.1691 -0.2515
 1366TIP3    H225590   2.176   6.217  11.118 -0.1191 -2.0974 -0.9423
 1367TIP3   OH225591   3.497   1.843   4.309  0.1560 -0.0028  0.4805
 1367TIP3    H125592   3.512   1.785   4.385  2.3313 -1.4372 -0.9268
 1367TIP3    H225593   3.554   1.918   4.324 -0.1655  0.2024  0.7064
 1368TIP3   OH225594   6.749   0.550   5.427 -0.1260 -0.0759  0.1486
 1368TIP3    H125595   6.772   0.576   5.338 -1.6203 -0.8039 -0.4940
 1368TIP3    H225596   6.766   0.627   5.480  1.0602  0.2760 -0.7172
 1369TIP3   OH225597   5.169   5.599   0.859 -0.8169 -0.1565  0.0417
 1369TIP3    H125598   5.084   5.561   0.884 -1.3836 -0.6091 -2.3415
 1369TIP3    H225599   5.227   5.523   0.852 -0.8046 -0.1031 -0.4637
 1370TIP3   OH225600   0.770   0.908  11.214  0.2913  0.0138  0.1470
 1370TIP3    H125601   0.837   0.912  11.146  2.6552 -0.2002  2.3188
 1370TIP3    H225602   0.739   0.817  11.213 -1.3831  0.5305 -2.0483
 1371TIP3   OH225603   2.473   3.400  11.719  0.5995 -0.0735 -0.1723
 1371TIP3    H125604   2.392   3.396  11.769  0.0335 -1.2574 -1.1256
 1371TIP3    H225605   2.532   3.338  11.764 -0.3320 -2.1129 -1.6085
 1372TIP3   OH225606   6.465   0.681   0.454 -0.1891  0.3008  0.0327
 1372TIP3    H125607   6.382   0.676   0.408  0.6328 -0.2798 -1.4476
 1372TIP3    H225608   6.469   0.771   0.487 -0.2457  1.1469 -2.1494
 1373TIP3   OH225609   2.035   0.022   5.450  0.2553 -0.0132 -0.2920
 1373TIP3    H125610   2.067  -0.065   5.425 -0.8610 -0.2850 -0.8274
 1373TIP3    H225611   1.945   0.008   5.477  0.0283  0.9972 -0.4816
 1374TIP3   OH225612   6.132   2.408  12.831 -0.4401 -0.5615  0.4452
 1374TIP3    H125613   6.125   2.458  12.912  0.0912 -1.3246  0.9681
 1374TIP3    H225614   6.145   2.475  12.763  0.0493  0.0316  1.1079
 1375TIP3   OH225615   2.618   3.244   6.332 -0.0206  0.1698 -0.0898
 1375TIP3    H125616   2.529   3.272   6.311 -0.2274  0.6027  1.2492
 1375TIP3    H225617   2.607   3.165   6.385  0.3822  0.2957  0.1862
 1376TIP3   OH225618   1.541   2.844   2.155  0.1007 -0.2823  0.1274
 1376TIP3    H125619   1.592   2.818   2.078  0.2278  4.0563 -1.5235
 1376TIP3    H225620   1.565   2.935   2.171 -3.1453  0.3453  2.6338
 1377TIP3   OH225621   5.482   0.854   2.234 -0.0320 -0.3732  0.0022
 1377TIP3    H125622   5.443   0.879   2.317  0.5821  0.2656  0.1082
 1377TIP3    H225623   5.542   0.783   2.256 -1.5316 -1.7922 -0.2510
 1378TIP3   OH225624   2.158   1.437  14.616  0.0013  0.4610 -0.1615
 1378TIP3    H125625   2.083   1.412  14.562 -0.1630 -0.4381  0.4527
 1378TIP3    H225626   2.197   1.512  14.571  0.7418 -1.1145 -2.3350
 1379TIP3   OH225627   5.528   5.665  15.132 -0.2524  0.1205 -0.4231
 1379TIP3    H125628   5.440   5.697  15.116  0.2464  0.9146 -1.7890
 1379TIP3    H225629   5.519   5.571  15.141 -1.2000  0.1462 -0.9889
 1380TIP3   OH225630   3.635   4.078  12.765 -0.0268 -0.3036  0.0418
 1380TIP3    H125631   3.642   4.173  12.771 -0.4182 -0.3084  0.8183
 1380TIP3    H225632   3.663   4.056  12.677  0.5625  0.4871  0.0267
 1381TIP3   OH225633   5.168   5.360  16.719 -0.8795 -0.3076  0.0885
 1381TIP3    H125634   5.226   5.434  16.738 -0.5290 -0.3213 -0.8606
 1381TIP3    H225635   5.084   5.385  16.758  0.0479 -0.8263  2.5669
 1382TIP3   OH225636   1.596   0.120   3.867 -0.0851  0.0281 -0.2903
 1382TIP3    H125637   1.567   0.153   3.952 -0.5773 -0.6824 -0.1723
 1382TIP3    H225638   1.689   0.139   3.864  0.2099 -1.0682  0.9620
 1383TIP3   OH225639   0.175   3.487   4.468  1.1497 -0.3515  0.8143
 1383TIP3    H125640   0.198   3.441   4.549  1.1495 -1.6019  0.1373
 1383TIP3    H225641   0.119   3.425   4.421  0.9841  0.4375 -0.0578
 1384TIP3   OH225642   3.871   4.897   0.309 -0.6438  0.8209  0.2265
 1384TIP3    H125643   3.778   4.909   0.287 -0.7527  3.3309  1.6689
 1384TIP3    H225644   3.918   4.917   0.229 -1.2982  0.6488 -0.2074
 1385TIP3   OH225645   3.120   5.096   5.967 -0.2903  0.5162 -0.1378
 1385TIP3    H125646   3.156   5.114   6.054  0.9716  2.4991 -0.9751
 1385TIP3    H225647   3.043   5.153   5.961 -2.8489 -2.5180  1.0363
 1386TIP3   OH225648   2.747   2.056  11.394  0.2269 -0.0926  0.3055
 1386TIP3    H125649   2.729   2.081  11.485  1.2846  0.1305  0.4692
 1386TIP3    H225650   2.680   1.991  11.373 -1.1543  1.1648  0.6429
 1387TIP3   OH225651   3.861   1.795   4.537 -0.1558 -0.4566  0.4115
 1387TIP3    H125652   3.865   1.746   4.454  0.1312 -0.7709  0.6057
 1387TIP3    H225653   3.921   1.868   4.523 -1.5105  0.5555 -0.3230
 1388TIP3   OH225654   6.514   5.983  16.430 -0.3033  0.2414  0.2057
 1388TIP3    H125655   6.593   5.990  16.376  0.4575 -2.3397  0.8583
 1388TIP3    H225656   6.446   5.958  16.368 -0.0311 -0.0874  0.0352
 1389TIP3   OH225657   4.305   4.793   6.403 -0.3528 -0.0213 -0.2040
 1389TIP3    H125658   4.379   4.801   6.463 -0.2092 -0.7564 -0.2713
 1389TIP3    H225659   4.281   4.883   6.383 -0.0015  0.2330  0.4621
 1390TIP3   OH225660   0.298   3.460  13.341  0.2678 -0.4771  0.5430
 1390TIP3    H125661   0.325   3.371  13.316  0.1842 -0.0157 -1.3466
 1390TIP3    H225662   0.380   3.505  13.361  0.7149 -0.0243 -1.9514
 1391TIP3   OH225663   2.961   5.073  12.166  0.1740 -0.0745 -0.8338
 1391TIP3    H125664   2.906   5.087  12.090 -1.1413  0.7428  0.2263
 1391TIP3    H225665   2.925   5.130  12.233 -0.4803 -2.7590  1.2961
 1392TIP3   OH225666   6.812   1.457   1.008 -0.5007  0.1889 -0.4719
 1392TIP3    H125667   6.816   1.529   1.071 -1.6255 -1.6000  1.7344
 1392TIP3    H225668   6.900   1.419   1.009 -0.5383  0.1137  0.0935
 1393TIP3   OH225669   1.432   1.915  15.606 -0.3726  0.2509 -0.5025
 1393TIP3    H125670   1.433   2.010  15.602  0.4141  0.2407 -0.5933
 1393TIP3    H225671   1.524   1.889  15.610 -0.5982 -0.4090  1.8275
 1394TIP3   OH225672   4.367   1.530  16.823 -0.3030  0.2612 -0.3645
 1394TIP3    H125673   4.450   1.557  16.784 -1.5018 -0.9839 -4.2580
 1394TIP3    H225674   4.318   1.611  16.837 -0.1835  0.7761 -2.6332
 1395TIP3   OH225675   5.825   2.875   2.763  0.4016 -0.0516  0.4010
 1395TIP3    H125676   5.823   2.792   2.810 -1.1028 -0.6363 -0.6341
 1395TIP3    H225677   5.807   2.852   2.672  0.2054  1.3753  0.0473
 1396TIP3   OH225678   4.628   1.896   2.836  0.7321  0.0090 -0.0475
 1396TIP3    H125679   4.692   1.904   2.766  1.0560 -0.2142  0.2206
 1396TIP3    H225680   4.612   1.802   2.843  0.3700  0.0637 -0.1183
 1397TIP3   OH225681   2.612   1.785   1.289 -0.4071 -0.4041  0.1367
 1397TIP3    H125682   2.683   1.849   1.284 -1.1355  0.6005  1.6931
 1397TIP3    H225683   2.539   1.826   1.243 -0.1687 -1.1973 -0.9812
 1398TIP3   OH225684   4.944   6.055   4.087 -0.0508 -0.3595  0.3574
 1398TIP3    H125685   5.031   6.049   4.127 -0.4497 -2.3821  1.0396
 1398TIP3    H225686   4.896   5.980   4.122 -1.6939  0.0174 -0.9490
 1399TIP3   OH225687   1.874   3.330   3.848 -0.3170 -0.3072  0.0757
 1399TIP3    H125688   1.872   3.352   3.941 -0.6308  0.8434 -0.1822
 1399TIP3    H225689   1.783   3.341   3.819  0.3029  2.6724 -1.0634
 1400TIP3   OH225690   4.765   1.813   5.174  0.1532  0.5364 -0.1247
 1400TIP3    H125691   4.776   1.744   5.239 -0.1125  2.2046  1.7834
 1400TIP3    H225692   4.772   1.768   5.090 -2.6576 -2.2843  0.9444
 1401TIP3   OH225693   5.018   3.257  10.885  0.4401  0.0418 -0.3237
 1401TIP3    H125694   4.997   3.164  10.873 -0.4886  0.2236 -0.1326
 1401TIP3    H225695   4.947   3.304  10.843 -0.5280  0.6789  1.8593
 1402TIP3   OH225696   4.465   1.788  14.573  0.3336 -0.2243  0.6987
 1402TIP3    H125697   4.503   1.730  14.639  1.5500 -0.2588 -0.0124
 1402TIP3    H225698   4.505   1.873  14.590 -0.4062  0.0979  0.8656
 1403TIP3   OH225699   5.844   2.883   5.517 -0.5234 -0.2313  0.1594
 1403TIP3    H125700   5.834   2.968   5.476 -1.8906 -1.4224 -2.2226
 1403TIP3    H225701   5.833   2.899   5.611  1.1559  2.4161 -0.0130
 1404TIP3   OH225702   6.438   6.052  13.883  0.2122 -0.1750  0.5908
 1404TIP3    H125703   6.416   6.062  13.975  0.0380  0.0371  0.5248
 1404TIP3    H225704   6.509   5.987  13.882 -0.5358 -1.0138  0.7882
 1405TIP3   OH225705   6.522   5.034  12.834 -0.1598 -0.2356 -0.2020
 1405TIP3    H125706   6.541   5.022  12.741  1.6621  0.8626 -0.0264
 1405TIP3    H225707   6.451   5.098  12.836  0.3312  0.3541 -0.8429
 1406TIP3   OH225708   5.771   6.802   6.374 -0.0633  0.3990 -0.4591
 1406TIP3    H125709   5.815   6.822   6.456 -0.4160 -1.2559  0.1742
 1406TIP3    H225710   5.683   6.774   6.401 -0.1171 -0.3477 -1.3891
 1407TIP3   OH225711   3.538   2.534  15.959 -0.7404  0.7088  0.5305
 1407TIP3    H125712   3.620   2.582  15.960 -0.6285  0.5336  1.6947
 1407TIP3    H225713   3.556   2.456  15.907  0.2452  0.0240  1.8365
 1408TIP3   OH225714   4.263   1.734  12.546 -0.4711  0.1529 -0.7860
 1408TIP3    H125715   4.356   1.717  12.562 -0.8117 -0.2510  0.9882
 1408TIP3    H225716   4.238   1.669  12.481  0.0676 -1.0456  0.1562
 1409TIP3   OH225717   5.442   5.428  13.777 -0.1175 -0.4788 -0.4738
 1409TIP3    H125718   5.443   5.501  13.716 -0.2518 -0.4774 -0.4739
 1409TIP3    H225719   5.358   5.436  13.823  0.5942  0.3713  0.7293
 1410TIP3   OH225720   6.504   6.766   2.938 -0.0939  0.7046  0.3373
 1410TIP3    H125721   6.445   6.828   2.980 -0.1207  0.3885  0.7730
 1410TIP3    H225722   6.562   6.820   2.884 -0.3992  1.0655  0.3704
 1411TIP3   OH225723   5.609   1.760   2.467  0.3049  0.5661  0.2753
 1411TIP3    H125724   5.658   1.714   2.535 -0.6812 -0.0665  0.5808
 1411TIP3    H225725   5.526   1.785   2.510  0.3167  1.5641 -0.2362
 1412TIP3   OH225726   0.801   1.124   2.525 -0.3298 -0.1775  0.1874
 1412TIP3    H125727   0.800   1.159   2.435 -1.0953 -0.4748  0.0734
 1412TIP3    H225728   0.801   1.202   2.580 -0.8418  0.0152 -0.0739
 1413TIP3   OH225729   2.319   4.599  14.115 -0.3460  0.0384  0.4977
 1413TIP3    H125730   2.243   4.650  14.086 -1.6911 -0.8572  2.2483
 1413TIP3    H225731   2.382   4.608  14.044 -0.8994  3.2506  0.2458
 1414TIP3   OH225732   5.748   5.104  16.130 -0.6142 -0.3456  0.0844
 1414TIP3    H125733   5.841   5.124  16.126 -0.3321 -1.7901 -2.4840
 1414TIP3    H225734   5.707   5.188  16.152  1.1962  0.5663  0.1773
 1415TIP3   OH225735   2.079   4.438   4.332 -0.1832  0.4470 -0.0958
 1415TIP3    H125736   1.998   4.437   4.280 -1.5672  0.1945  1.9519
 1415TIP3    H225737   2.075   4.520   4.381  0.2939 -0.0176  0.7490
 1416TIP3   OH225738   3.124   5.527  15.605 -0.2195  0.3554 -0.0648
 1416TIP3    H125739   3.151   5.442  15.637  2.5114  1.5985  1.2691
 1416TIP3    H225740   3.075   5.566  15.677 -2.3083 -0.3916 -1.0286
 1417TIP3   OH225741   5.408   2.215   2.103 -0.5183  0.2032  0.2431
 1417TIP3    H125742   5.417   2.222   2.198 -1.0084  1.8799  0.2147
 1417TIP3    H225743   5.413   2.122   2.085  0.3946 -0.0991  1.8247
 1418TIP3   OH225744   3.948   2.869   1.633  0.1870  0.0050 -0.7631
 1418TIP3    H125745   3.935   2.798   1.570 -0.9328 -0.0001 -0.5457
 1418TIP3    H225746   4.019   2.838   1.689 -2.3537 -2.4791  1.3782
 1419TIP3   OH225747   5.519   3.815  12.975  0.0077 -0.1781  0.0434
 1419TIP3    H125748   5.469   3.894  12.957 -1.1132 -1.4632 -3.2430
 1419TIP3    H225749   5.605   3.831  12.936  0.5646  0.2050  1.3764
 1420TIP3   OH225750   2.879   6.609   0.353  0.4162 -0.5593  0.6941
 1420TIP3    H125751   2.870   6.535   0.413 -1.0734 -0.1208  1.0672
 1420TIP3    H225752   2.875   6.569   0.266 -0.2749 -0.9501  0.8944
 1421TIP3   OH225753   4.453   0.738  12.550 -0.2464 -0.2825 -0.8572
 1421TIP3    H125754   4.371   0.779  12.577 -0.2546 -0.1059 -1.1456
 1421TIP3    H225755   4.450   0.651  12.589  0.1657  0.2859  0.5096
 1422TIP3   OH225756   2.396   6.428  10.945  0.1495  0.2417 -0.0917
 1422TIP3    H125757   2.393   6.402  10.853 -0.3813 -1.5437  0.3881
 1422TIP3    H225758   2.334   6.369  10.988 -1.0481  2.2789  1.1531
 1423TIP3   OH225759   5.472   1.530   4.566 -1.1256 -0.0925  0.5776
 1423TIP3    H125760   5.500   1.454   4.617 -2.3182  0.3621  1.9851
 1423TIP3    H225761   5.433   1.589   4.630 -3.9067 -0.0464 -1.0090
 1424TIP3   OH225762   1.016   1.600  12.524 -0.0386  0.0637  0.2989
 1424TIP3    H125763   1.103   1.591  12.562  0.1646  0.0115 -0.1779
 1424TIP3    H225764   1.028   1.584  12.431 -0.3801  1.0552  0.0686
 1425TIP3   OH225765   5.812   6.262   2.046 -0.4918  0.0499 -0.7121
 1425TIP3    H125766   5.857   6.224   1.970  2.6688  2.0328 -0.0475
 1425TIP3    H225767   5.855   6.221   2.121  1.0548  2.6666 -0.0317
 1426TIP3   OH225768   2.574   5.336   2.309 -0.3634  0.1601 -0.0057
 1426TIP3    H125769   2.479   5.330   2.306 -0.3527  0.0684 -0.1504
 1426TIP3    H225770   2.598   5.299   2.394 -0.4763  0.4439  0.1525
 1427TIP3   OH225771   4.651   4.379   4.564  0.5137  0.3366  0.8671
 1427TIP3    H125772   4.637   4.419   4.478 -1.2250  0.1052  1.0084
 1427TIP3    H225773   4.719   4.313   4.549  1.0194  1.0517 -0.0827
 1428TIP3   OH225774   4.003   5.109  11.356 -0.2060  0.5009  0.1186
 1428TIP3    H125775   4.082   5.121  11.304 -0.1176  0.0995  0.1608
 1428TIP3    H225776   3.991   5.014  11.361  0.4453  0.4837  1.8150
 1429TIP3   OH225777   1.502   2.451  13.909 -0.1618 -0.5901  0.0234
 1429TIP3    H125778   1.532   2.377  13.961  1.2464  0.5551  0.8957
 1429TIP3    H225779   1.485   2.520  13.972 -2.5864 -0.4699 -0.6578
 1430TIP3   OH225780   2.776   2.652  12.039 -0.0992  0.2322 -0.1752
 1430TIP3    H125781   2.725   2.640  11.959  0.3881  1.1185 -0.6257
 1430TIP3    H225782   2.714   2.634  12.110 -0.6631 -0.0649 -0.7311
 1431TIP3   OH225783   3.633   2.590   1.439 -0.0754  0.6180 -0.4490
 1431TIP3    H125784   3.624   2.615   1.531 -0.0586 -0.9100 -0.0034
 1431TIP3    H225785   3.721   2.553   1.433 -0.5333 -0.4609 -0.7676
 1432TIP3   OH225786   2.593   0.957  12.585 -0.0263  0.1636  0.3717
 1432TIP3    H125787   2.653   0.885  12.565 -0.6227  0.0953 -1.3411
 1432TIP3    H225788   2.544   0.927  12.662  1.6978 -0.0169  1.4420
 1433TIP3   OH225789   4.112   1.163   1.730 -0.4020  0.0379 -0.1888
 1433TIP3    H125790   4.142   1.213   1.655 -2.9289  1.8979 -0.0872
 1433TIP3    H225791   4.054   1.096   1.693  0.4146 -0.7644 -0.0577
 1434TIP3   OH225792   6.691   1.426   4.582 -1.2613  0.1481 -0.3108
 1434TIP3    H125793   6.621   1.373   4.622  0.3968 -0.8503  1.4936
 1434TIP3    H225794   6.697   1.503   4.638  0.5483 -0.8807  1.0420
 1435TIP3   OH225795   2.430   2.503  12.824  0.7843 -0.2275 -0.6858
 1435TIP3    H125796   2.413   2.409  12.820 -0.2758 -0.1275  0.8225
 1435TIP3    H225797   2.350   2.544  12.793  0.4118  0.1896  0.7754
 1436TIP3   OH225798   5.634   2.680  15.887  0.0268  0.0666  0.3516
 1436TIP3    H125799   5.574   2.705  15.957 -0.8134  0.6988 -0.5669
 1436TIP3    H225800   5.580   2.677  15.809  0.7821 -1.4584 -0.1482
 1437TIP3   OH225801   6.701   5.999  14.370 -0.3807  0.4119  0.0561
 1437TIP3    H125802   6.767   5.960  14.428  0.6697 -0.2576 -1.5068
 1437TIP3    H225803   6.686   6.086  14.406  0.2286  0.0291  1.3214
 1438TIP3   OH225804   0.820   5.815   5.783 -0.4381  0.6167 -0.1338
 1438TIP3    H125805   0.805   5.744   5.720 -0.3253  0.8208 -0.3928
 1438TIP3    H225806   0.734   5.855   5.794 -0.1183  1.8424 -1.6868
 1439TIP3   OH225807   3.163   6.343   0.532  0.3935 -0.3474  0.0274
 1439TIP3    H125808   3.161   6.436   0.555 -1.2428 -0.7267  1.6405
 1439TIP3    H225809   3.180   6.342   0.438  0.3202  1.5843 -0.0435
 1440TIP3   OH225810   0.084   6.513  14.498 -0.7138  0.2272 -0.3478
 1440TIP3    H125811   0.074   6.439  14.438  0.0714 -1.8349  1.8821
 1440TIP3    H225812   0.173   6.546  14.483 -0.9680  0.5541 -1.1574
 1441TIP3   OH225813   6.242   0.874   4.136 -0.1332 -0.4911  0.1373
 1441TIP3    H125814   6.224   0.959   4.175 -3.4790 -1.4259  0.9421
 1441TIP3    H225815   6.273   0.894   4.048 -0.1931  1.5578  0.5375
 1442TIP3   OH225816   3.410   1.122  14.466  0.3948 -0.4155 -1.1707
 1442TIP3    H125817   3.499   1.087  14.461  0.2568 -0.7736 -1.1897
 1442TIP3    H225818   3.420   1.216  14.456  0.9944 -0.2097  0.9425
 1443TIP3   OH225819   4.807   6.637  11.617  0.3132  0.5584  0.2893
 1443TIP3    H125820   4.793   6.545  11.595  0.5620  0.2874  1.2039
 1443TIP3    H225821   4.782   6.643  11.709 -0.1833  1.5210  0.1049
 1444TIP3   OH225822   2.116   0.770  12.155  0.3798 -0.5632  0.2335
 1444TIP3    H125823   2.083   0.843  12.208 -0.0698 -0.3377 -0.3352
 1444TIP3    H225824   2.210   0.786  12.148  0.0222  1.2885 -1.7662
 1445TIP3   OH225825   5.231   5.516  14.909 -0.1599 -0.1654  0.3615
 1445TIP3    H125826   5.178   5.568  14.848 -0.1607  0.0794  0.5692
 1445TIP3    H225827   5.234   5.568  14.989  0.9227  0.1268  0.1513
 1446TIP3   OH225828   5.371   5.204  13.496  0.2964 -0.2385  0.5907
 1446TIP3    H125829   5.319   5.190  13.417  0.9209 -0.5301  0.2271
 1446TIP3    H225830   5.394   5.297  13.493  1.3107 -0.4956 -0.1967
 1447TIP3   OH225831   0.311   3.015   0.352 -0.6330  0.0193  0.0471
 1447TIP3    H125832   0.360   3.019   0.435 -0.8087  1.5450  0.1149
 1447TIP3    H225833   0.345   3.089   0.301 -0.4744 -0.9456 -1.2997
 1448TIP3   OH225834   4.419   5.383   2.751 -0.4967  0.3958 -0.3711
 1448TIP3    H125835   4.491   5.332   2.714  3.4894  3.2193  2.6033
 1448TIP3    H225836   4.373   5.321   2.808 -0.0421 -1.3069 -1.7531
 1449TIP3   OH225837   6.774   5.255   5.180  0.1984  0.3032  0.2581
 1449TIP3    H125838   6.743   5.168   5.207  1.6817 -0.1497  0.6159
 1449TIP3    H225839   6.800   5.243   5.088  2.6253 -0.3127  0.9624
 1450TIP3   OH225840   3.885   2.590  13.336 -0.6962  0.5251 -0.2817
 1450TIP3    H125841   3.853   2.572  13.248  0.3751 -0.6444 -0.4491
 1450TIP3    H225842   3.943   2.517  13.357 -3.7134 -1.2693  2.8611
 1451TIP3   OH225843   6.044   4.729   6.547 -0.2640 -0.3610 -0.7240
 1451TIP3    H125844   6.028   4.812   6.591  1.0128 -0.0284 -0.8486
 1451TIP3    H225845   5.968   4.675   6.569 -0.2800  0.2335  0.8005
 1452TIP3   OH225846   0.775   2.794   1.887  0.2566  0.1370  0.1881
 1452TIP3    H125847   0.821   2.858   1.943  0.8076  0.0029 -0.1011
 1452TIP3    H225848   0.845   2.753   1.836  0.0795 -1.5424  1.2110
 1453TIP3   OH225849   1.499   0.133  12.927  0.0710  0.3076 -0.1786
 1453TIP3    H125850   1.485   0.224  12.954  0.1573 -0.0123  0.9813
 1453TIP3    H225851   1.546   0.140  12.843 -0.7327  1.3264 -0.5604
 1454TIP3   OH225852   1.039   2.852   1.050 -0.3518  0.3077  0.1475
 1454TIP3    H125853   1.064   2.928   1.102 -0.2825  0.1793  0.3032
 1454TIP3    H225854   1.020   2.887   0.964 -0.8979  0.5847  0.3750
 1455TIP3   OH225855   5.565   1.016   2.019  0.0836  0.3411 -0.2552
 1455TIP3    H125856   5.548   0.949   1.954  0.2233  0.4867 -0.4423
 1455TIP3    H225857   5.533   0.978   2.101  1.4302 -0.5392 -0.0988
 1456TIP3   OH225858   4.663   3.572  12.507  0.2391 -0.6229  0.0652
 1456TIP3    H125859   4.614   3.650  12.532  0.5248  0.1732 -1.7196
 1456TIP3    H225860   4.754   3.602  12.500  0.2775 -0.9639 -1.1572
 1457TIP3   OH225861   0.591   0.408  13.043 -0.5483  0.2130  0.4563
 1457TIP3    H125862   0.581   0.327  12.992  0.1856  0.3695  0.0520
 1457TIP3    H225863   0.572   0.381  13.133  1.2465 -0.7873  0.5825
 1458TIP3   OH225864   0.771   5.621  12.208  0.1368 -0.3088 -0.1948
 1458TIP3    H125865   0.691   5.671  12.226  0.2201  0.1603 -1.0604
 1458TIP3    H225866   0.836   5.656  12.270  0.2887  0.9283 -1.0186
 1459TIP3   OH225867   1.640   3.514  14.074 -0.6288  0.0323 -0.0842
 1459TIP3    H125868   1.629   3.422  14.049  0.0620  0.1759 -0.9825
 1459TIP3    H225869   1.620   3.563  13.994 -0.1343  0.6081  0.1384
 1460TIP3   OH225870   3.054   6.087   0.932 -1.2654 -0.4355  0.1894
 1460TIP3    H125871   3.099   6.073   1.015 -1.5854  0.7265  0.5707
 1460TIP3    H225872   3.124   6.087   0.866 -0.9510 -0.7334  0.5193
 1461TIP3   OH225873   5.678   1.529  13.701 -0.3953 -0.1832  0.3578
 1461TIP3    H125874   5.723   1.445  13.692  0.9705  0.3552  1.7042
 1461TIP3    H225875   5.740   1.593  13.667 -0.3237  0.5358  1.7940
 1462TIP3   OH225876   4.290   4.858  16.290 -1.0278  0.5473  0.0802
 1462TIP3    H125877   4.260   4.816  16.209 -2.1842  1.2328  0.1307
 1462TIP3    H225878   4.304   4.786  16.351  0.7443 -0.0650 -0.9820
 1463TIP3   OH225879   5.815   5.529   5.540 -0.5911  0.0655 -0.0067
 1463TIP3    H125880   5.832   5.481   5.459  1.4780  0.1615  0.3246
 1463TIP3    H225881   5.801   5.619   5.511  0.1387  0.0998 -0.2876
 1464TIP3   OH225882   3.558   0.034  16.122  0.2909 -0.1809  0.3712
 1464TIP3    H125883   3.605   0.014  16.203 -0.6690 -1.5545  0.6269
 1464TIP3    H225884   3.476   0.073  16.150 -0.0779 -0.7299  0.0779
 1465TIP3   OH225885   4.894   2.318   4.021  0.2351 -0.1021  0.6023
 1465TIP3    H125886   4.891   2.408   3.990  0.7428 -0.2222  0.2089
 1465TIP3    H225887   4.959   2.275   3.966 -0.1084 -0.7471  0.6899
 1466TIP3   OH225888   4.828   1.039  14.783 -0.3960 -0.8443 -0.7877
 1466TIP3    H125889   4.841   0.952  14.820  1.2817  0.0466  0.8610
 1466TIP3    H225890   4.847   1.029  14.690 -1.7165 -2.5184 -0.9195
 1467TIP3   OH225891   2.581   2.363  13.813  0.1226  0.2128 -0.0984
 1467TIP3    H125892   2.501   2.327  13.774 -0.7216  2.7867 -0.9701
 1467TIP3    H225893   2.635   2.388  13.738  0.1614  1.7366  0.4085
 1468TIP3   OH225894   2.233   3.962  12.433 -0.4193 -0.2705  0.3894
 1468TIP3    H125895   2.175   3.937  12.506 -1.6480  1.5163  0.1002
 1468TIP3    H225896   2.201   4.048  12.406  1.3138  0.0038 -0.9515
 1469TIP3   OH225897   1.159   4.051  14.257  0.3686  0.3474  0.0154
 1469TIP3    H125898   1.191   4.018  14.174 -2.2051 -2.2374 -0.0840
 1469TIP3    H225899   1.097   4.120  14.233 -1.4161 -1.3109 -0.4134
 1470TIP3   OH225900   2.104   5.443   4.629 -0.1157  0.0267 -0.5438
 1470TIP3    H125901   2.119   5.465   4.721 -0.1456 -0.5838 -0.3870
 1470TIP3    H225902   2.118   5.348   4.625  2.0584  0.3263 -1.5771
 1471TIP3   OH225903   0.889   5.333   0.403 -0.6318 -0.4537  0.3556
 1471TIP3    H125904   0.916   5.368   0.318  0.5039  0.1644  0.9490
 1471TIP3    H225905   0.891   5.238   0.391 -1.5543 -0.3738 -0.6106
 1472TIP3   OH225906   4.265   0.326   3.249  0.3442  0.5173  0.2528
 1472TIP3    H125907   4.287   0.358   3.162 -0.3901 -1.6144 -0.8102
 1472TIP3    H225908   4.180   0.365   3.269  0.1459  0.4142 -0.3620
 1473TIP3   OH225909   1.728   4.279  11.663 -0.8356  0.6384  0.0494
 1473TIP3    H125910   1.793   4.321  11.719 -0.7077 -0.3073  0.6368
 1473TIP3    H225911   1.778   4.248  11.587 -0.8298  1.0017 -0.0991
 1474TIP3   OH225912   5.962   3.799   0.476 -0.1767 -0.6204  0.3269
 1474TIP3    H125913   5.945   3.857   0.402 -1.3748 -0.7179  0.5160
 1474TIP3    H225914   5.920   3.842   0.550 -0.2547 -1.2577  0.6552
 1475TIP3   OH225915   3.926   4.542   1.950  0.1614 -0.3707  0.3948
 1475TIP3    H125916   4.008   4.508   1.915  0.3250 -1.4191  1.7064
 1475TIP3    H225917   3.858   4.492   1.904  0.2471  0.3121 -0.4981
 1476TIP3   OH225918   2.900   1.145  12.286 -0.3931  0.6277 -0.3090
 1476TIP3    H125919   2.851   1.065  12.303  1.2550 -0.2692  0.4175
 1476TIP3    H225920   2.918   1.181  12.373 -1.4360  2.0263 -0.6295
 1477TIP3   OH225921   4.284   1.577   1.168 -0.0941 -0.0146 -0.0998
 1477TIP3    H125922   4.316   1.550   1.254 -0.5031  2.8649  1.0512
 1477TIP3    H225923   4.196   1.539   1.162 -1.2006  1.9554  2.0459
 1478TIP3   OH225924   6.689   2.366   3.821 -0.5853 -0.9004  0.1172
 1478TIP3    H125925   6.612   2.360   3.765 -0.1797  1.5037 -0.8267
 1478TIP3    H225926   6.721   2.456   3.808  2.4888 -1.8489  0.3183
 1479TIP3   OH225927   1.879   2.994   3.319 -0.3528 -0.4596  0.3863
 1479TIP3    H125928   1.849   3.082   3.340 -2.2879 -1.2111  0.9448
 1479TIP3    H225929   1.935   3.005   3.242 -0.2823  1.2761  0.6560
 1480TIP3   OH225930   4.725   0.739   5.331  0.0905  0.5177  0.1501
 1480TIP3    H125931   4.642   0.764   5.372  0.7071  0.2023  1.6320
 1480TIP3    H225932   4.754   0.819   5.285  0.9231  1.9520  2.9486
 1481TIP3   OH225933   1.768   6.236  16.216 -0.1708 -0.5438 -0.2655
 1481TIP3    H125934   1.776   6.327  16.186  0.5195 -0.3720  0.4163
 1481TIP3    H225935   1.685   6.234  16.264  0.1163 -0.1019  0.2703
 1482TIP3   OH225936   4.394   5.060   1.495 -0.5582  0.2880 -0.9250
 1482TIP3    H125937   4.450   5.131   1.464 -0.2110 -0.6919 -2.6714
 1482TIP3    H225938   4.310   5.102   1.515  0.2707  1.5090  0.1523
 1483TIP3   OH225939   5.695   0.524   4.446  0.5012 -0.4352  0.7372
 1483TIP3    H125940   5.695   0.522   4.351 -0.5544 -0.2654  0.7252
 1483TIP3    H225941   5.786   0.507   4.470  0.3753 -2.8194 -0.2455
 1484TIP3   OH225942   1.672   1.000  10.240  0.4278  0.7786 -0.2527
 1484TIP3    H125943   1.647   1.059  10.169 -1.6327 -0.1481 -0.3693
 1484TIP3    H225944   1.592   0.988  10.291  1.4301  0.0424  1.2311
 1485TIP3   OH225945   5.429   4.003  13.356  0.1297 -0.3282 -0.1373
 1485TIP3    H125946   5.402   4.081  13.405  0.8097  0.4401 -0.9579
 1485TIP3    H225947   5.346   3.962  13.330 -0.2512  0.6953 -0.5865
 1486TIP3   OH225948   0.594   3.625  16.676 -0.1964 -0.1331  0.2309
 1486TIP3    H125949   0.528   3.620  16.745  0.9592 -1.0126  1.3108
 1486TIP3    H225950   0.583   3.713  16.640 -2.1236 -0.3466  0.1779
 1487TIP3   OH225951   5.266   5.561  14.333  0.4615 -0.0046 -0.0741
 1487TIP3    H125952   5.317   5.499  14.386  0.2775  0.7619  1.0368
 1487TIP3    H225953   5.308   5.646  14.350  0.4695  0.2423 -1.2697
 1488TIP3   OH225954   0.685   5.869  11.614  0.2195 -0.2370  0.4281
 1488TIP3    H125955   0.629   5.895  11.687  0.3941 -0.1343  0.5243
 1488TIP3    H225956   0.625   5.861  11.540  0.2722  1.2146  0.2003
 1489TIP3   OH225957   3.130   6.354  17.023  0.4117  0.3985 -0.1643
 1489TIP3    H125958   3.202   6.319  16.971 -1.2130 -0.1498 -2.1842
 1489TIP3    H225959   3.081   6.277  17.051 -1.3172  0.8006 -1.8278
 1490TIP3   OH225960   5.979   1.305  15.206  0.2370  0.2581  0.0845
 1490TIP3    H125961   6.015   1.229  15.252 -0.2986  0.3747  0.7126
 1490TIP3    H225962   5.901   1.272  15.162  0.0579  0.4122  0.2798
 1491TIP3   OH225963   2.593   3.733  16.009 -0.2486  0.2851 -0.1912
 1491TIP3    H125964   2.596   3.819  15.968 -0.8569  0.8283  0.8483
 1491TIP3    H225965   2.503   3.725  16.042 -0.3106 -0.9100 -0.6081
 1492TIP3   OH225966   6.245   6.496   5.637  0.2700  0.3012  0.3905
 1492TIP3    H125967   6.217   6.513   5.547 -1.3638  0.2805  0.8593
 1492TIP3    H225968   6.227   6.578   5.683 -3.2938 -0.9688  1.6477
 1493TIP3   OH225969   3.646   5.601  14.137  0.3318  0.4184  0.0332
 1493TIP3    H125970   3.701   5.590  14.060 -1.9829 -0.3812 -1.6284
 1493TIP3    H225971   3.611   5.690  14.128  0.1517  0.3670  0.2182
 1494TIP3   OH225972   6.849   3.780  12.320 -0.3676 -0.5807 -0.1202
 1494TIP3    H125973   6.773   3.783  12.261 -1.3160 -0.7117  1.0547
 1494TIP3    H225974   6.908   3.716  12.281  0.3062  1.2874 -2.3827
 1495TIP3   OH225975   3.048   5.940  15.444  0.0660 -0.4340  0.6990
 1495TIP3    H125976   3.089   6.020  15.412 -0.3750 -0.7164 -0.6220
 1495TIP3    H225977   3.114   5.872  15.433 -0.3502 -0.6813 -0.4063
 1496TIP3   OH225978   5.975   1.432  12.282 -0.3068  0.4586  0.8051
 1496TIP3    H125979   5.963   1.499  12.215 -0.0327  1.5709  1.8326
 1496TIP3    H225980   5.891   1.427  12.327 -0.7009 -0.7659 -0.0167
 1497TIP3   OH225981   6.512   0.544   1.779  0.0149  0.2798  1.1334
 1497TIP3    H125982   6.584   0.496   1.820  0.6428 -2.0031 -2.2396
 1497TIP3    H225983   6.553   0.622   1.742  0.7363 -0.6839 -0.2058
 1498TIP3   OH225984   2.019   4.001   3.370 -0.1650  0.5961  0.8641
 1498TIP3    H125985   2.051   3.948   3.297  0.5429  2.3716 -0.1734
 1498TIP3    H225986   2.098   4.045   3.403 -0.8698  1.6532  1.1538
 1499TIP3   OH225987   0.022   2.548   4.196  0.3186  0.9721  0.2467
 1499TIP3    H125988   0.048   2.564   4.105 -1.1674 -0.3139 -0.4575
 1499TIP3    H225989   0.070   2.470   4.222 -0.8277  0.1031 -0.1790
 1500TIP3   OH225990   1.449   4.738   3.052  0.0360 -0.3259  0.1008
 1500TIP3    H125991   1.438   4.833   3.064 -1.6919 -0.5355  0.3662
 1500TIP3    H225992   1.542   4.728   3.032 -0.0646  1.6150 -1.7214
 1501TIP3   OH225993   5.264   3.744  13.907 -0.5759 -0.9326  0.2223
 1501TIP3    H125994   5.263   3.839  13.896 -2.7603 -1.1586 -2.6951
 1501TIP3    H225995   5.357   3.720  13.903  0.0176  1.0328  1.0201
 1502TIP3   OH225996   2.572   0.105  11.347 -0.0270 -0.7147  0.4172
 1502TIP3    H125997   2.522   0.069  11.274 -1.7748 -0.9870  1.6935
 1502TIP3    H225998   2.538   0.193  11.358 -0.3149 -0.9352  1.3641
 1503TIP3   OH225999   2.667   5.706   5.244  0.5661 -0.2805  0.1430
 1503TIP3    H126000   2.755   5.724   5.209 -0.4130  2.5911 -1.0996
 1503TIP3    H226001   2.668   5.745   5.331  1.1430 -2.2462  1.0824
 1504TIP3   OH226002   2.173   6.175  11.385 -0.8058 -0.3975  0.2957
 1504TIP3    H126003   2.228   6.252  11.395 -1.5981  0.1512  0.5409
 1504TIP3    H226004   2.105   6.185  11.452 -2.3524 -0.0383 -1.2319
 1505TIP3   OH226005   4.963   4.762  14.136  0.5907  0.0402  0.2721
 1505TIP3    H126006   5.044   4.786  14.090 -0.0378  0.6085 -0.5744
 1505TIP3    H226007   4.974   4.797  14.224 -0.4854  4.1724 -1.0094
 1506TIP3   OH226008   4.193   4.837   3.745 -0.6910  0.2954  0.0426
 1506TIP3    H126009   4.150   4.858   3.662  1.1802  0.5543 -0.9171
 1506TIP3    H226010   4.147   4.891   3.810 -2.0710  0.2175 -0.8267
 1507TIP3   OH226011   1.863   3.846   4.156  0.4316  0.3125  0.6803
 1507TIP3    H126012   1.860   3.941   4.162  1.1645  0.3443  0.6853
 1507TIP3    H226013   1.949   3.827   4.118 -0.4142 -0.2754 -1.0517
 1508TIP3   OH226014   4.461   5.269   3.675  0.8900 -0.2231  0.4731
 1508TIP3    H126015   4.487   5.336   3.738  1.4578  0.1812 -0.1755
 1508TIP3    H226016   4.397   5.313   3.619 -1.2796 -1.1976  2.0396
 1509TIP3   OH226017   2.723   5.368  10.952  0.7503  0.3164 -0.1570
 1509TIP3    H126018   2.722   5.409  11.038  0.9983 -0.0577  0.0265
 1509TIP3    H226019   2.738   5.440  10.891  2.2705  0.3684  0.2472
 1510TIP3   OH226020   1.662   2.670   3.081  0.4436  0.8279 -1.1881
 1510TIP3    H126021   1.664   2.720   3.163 -1.1431 -2.9397  1.4275
 1510TIP3    H226022   1.753   2.648   3.064  0.6475 -2.4282  2.6290
 1511TIP3   OH226023   1.725   1.060   6.407 -0.5248  0.3939 -0.0926
 1511TIP3    H126024   1.794   1.055   6.474  0.0390  0.4928 -0.6586
 1511TIP3    H226025   1.677   1.140   6.428 -0.1517  0.5956  0.0069
 1512TIP3   OH226026   0.330   0.685   3.288 -0.1894 -0.2276  0.0507
 1512TIP3    H126027   0.262   0.700   3.353 -1.4337 -0.6281 -1.0922
 1512TIP3    H226028   0.282   0.657   3.210  1.3308 -0.9133 -0.6806
 1513TIP3   OH226029   5.105   1.018  11.313 -0.2933 -0.5241  0.5260
 1513TIP3    H126030   5.024   1.036  11.361 -1.1728 -2.5251 -0.0912
 1513TIP3    H226031   5.144   1.104  11.299 -2.1476  0.4764  1.1368
 1514TIP3   OH226032   4.201   6.210  16.301 -0.6146 -0.3136 -0.6165
 1514TIP3    H126033   4.281   6.177  16.343  0.0964 -0.4356 -1.9979
 1514TIP3    H226034   4.171   6.137  16.247 -0.6239  0.3530 -1.5239
 1515TIP3   OH226035   4.338   5.391  13.976  0.2122  0.0366  0.0260
 1515TIP3    H126036   4.343   5.296  13.983 -0.5515  0.0483  0.9329
 1515TIP3    H226037   4.261   5.415  14.029  0.4655  1.1590 -0.0944
 1516TIP3   OH226038   3.699   2.465   2.390  0.3370  0.3006  0.2873
 1516TIP3    H126039   3.647   2.419   2.324  1.1910 -0.2787  0.0031
 1516TIP3    H226040   3.667   2.430   2.473 -0.7178  1.0077  0.2046
 1517TIP3   OH226041   1.583   0.047   5.728 -0.1570  0.1571 -0.7425
 1517TIP3    H126042   1.631  -0.032   5.707 -2.1535 -0.9781 -1.3083
 1517TIP3    H226043   1.566   0.041   5.822  1.3705  0.9313 -0.3906
 1518TIP3   OH226044   3.063   5.181   2.337 -0.2238 -0.1005 -0.2300
 1518TIP3    H126045   3.124   5.243   2.298 -0.3119  0.6287  0.7597
 1518TIP3    H226046   3.071   5.195   2.431 -0.3899 -1.4632  0.0104
 1519TIP3   OH226047   2.464   2.635   3.462 -0.4607 -0.2743  0.2378
 1519TIP3    H126048   2.519   2.585   3.401 -0.9989  0.1276 -0.5949
 1519TIP3    H226049   2.495   2.725   3.454 -0.5491 -0.2155  0.5432
 1520TIP3   OH226050   1.406   6.527   4.655  0.0447  0.8986 -0.3165
 1520TIP3    H126051   1.422   6.572   4.572  1.2400  2.5065  0.7149
 1520TIP3    H226052   1.348   6.586   4.703  0.0556  0.4042  0.3121
 1521TIP3   OH226053   4.456   5.291   4.367  0.3009  0.5215 -0.1112
 1521TIP3    H126054   4.397   5.322   4.298  0.9290 -1.4117 -1.6166
 1521TIP3    H226055   4.411   5.215   4.404  0.4756  0.8922  0.8766
 1522TIP3   OH226056   1.769   2.837  14.424 -0.3976  0.0159  0.2394
 1522TIP3    H126057   1.735   2.769  14.482  3.1408 -0.4663  2.0087
 1522TIP3    H226058   1.738   2.919  14.463 -2.0229 -0.4101 -0.0667
 1523TIP3   OH226059   6.561   1.213  14.921  1.2233  0.3543  0.2981
 1523TIP3    H126060   6.636   1.268  14.943  2.4747 -0.3034 -2.0551
 1523TIP3    H226061   6.510   1.266  14.859  0.6806  0.1030  0.5242
 1524TIP3   OH226062   4.585   4.584   3.212 -0.4252  0.0796  0.1670
 1524TIP3    H126063   4.641   4.541   3.277 -0.6487 -0.6021 -0.0811
 1524TIP3    H226064   4.617   4.552   3.128 -2.4842 -2.0287  0.0758
 1525TIP3   OH226065   0.014   1.936  11.693 -0.7036  0.2827  0.2096
 1525TIP3    H126066   0.071   1.896  11.759 -2.2275 -1.6878  0.4352
 1525TIP3    H226067  -0.053   1.982  11.743  0.4942  2.4537 -0.0554
 1526TIP3   OH226068   2.845   3.589   1.061  0.2565 -0.3123  0.4006
 1526TIP3    H126069   2.929   3.547   1.079  0.7916  0.1544 -0.8757
 1526TIP3    H226070   2.841   3.662   1.124  1.4902  0.5277 -0.4396
 1527TIP3   OH226071   5.539   5.506  12.779 -0.3736  0.2728  1.3653
 1527TIP3    H126072   5.484   5.574  12.738  0.6948 -0.1819 -0.9988
 1527TIP3    H226073   5.485   5.427  12.776 -0.0241  0.0534 -0.0423
 1528TIP3   OH226074   5.792   2.099  17.018 -0.2646 -0.4886  0.3270
 1528TIP3    H126075   5.872   2.098  17.070 -0.3265  0.1548  0.4489
 1528TIP3    H226076   5.820   2.122  16.930 -0.2262 -1.0235  0.1996
 1529TIP3   OH226077   4.486   4.975   2.061 -0.1421  0.0931 -0.1894
 1529TIP3    H126078   4.455   4.924   2.136 -1.5754  0.5647 -0.4425
 1529TIP3    H226079   4.573   4.940   2.043 -0.1206 -0.6040  1.1615
 1530TIP3   OH226080   3.930   0.913  15.506 -0.9115  0.4470 -0.3559
 1530TIP3    H126081   3.930   0.842  15.442  2.2523 -0.2798  0.2827
 1530TIP3    H226082   4.004   0.968  15.480 -0.9851  1.3958  1.3324
 1531TIP3   OH226083   0.374   4.639  15.939  0.0042 -0.2708  0.8783
 1531TIP3    H126084   0.284   4.645  15.908  0.3088 -0.4441 -0.0876
 1531TIP3    H226085   0.370   4.662  16.032 -2.0074 -6.0951  2.6721
 1532TIP3   OH226086   4.412   3.391   4.638 -0.1583 -0.2509  0.3842
 1532TIP3    H126087   4.501   3.396   4.604 -0.1273  0.2473  0.5268
 1532TIP3    H226088   4.356   3.391   4.560 -0.0610  0.2388  0.3081
 1533TIP3   OH226089   4.968   0.583  11.112  0.3458  0.1301  0.4985
 1533TIP3    H126090   5.044   0.606  11.059  0.3795  0.2026  0.5764
 1533TIP3    H226091   4.927   0.668  11.132 -0.8369 -0.0146 -1.1201
 1534TIP3   OH226092   1.657   0.926  14.412  0.1221 -0.1124 -0.2585
 1534TIP3    H126093   1.745   0.898  14.386  1.2659  1.5322  1.4645
 1534TIP3    H226094   1.650   1.016  14.380 -0.7842 -0.1031 -0.0592
 1535TIP3   OH226095   1.864   4.669   5.450 -0.4371  0.4310 -0.4951
 1535TIP3    H126096   1.939   4.690   5.395 -0.8849  1.6185 -0.6848
 1535TIP3    H226097   1.802   4.626   5.390 -1.5940  3.1487 -1.3978
 1536TIP3   OH226098   5.143   2.581  16.931  0.4722 -0.0845  0.4582
 1536TIP3    H126099   5.144   2.590  16.836  0.0179  0.9141  0.5374
 1536TIP3    H226100   5.076   2.643  16.961  0.4120 -0.5794  1.4088
 1537TIP3   OH226101   2.222   1.156  11.807 -0.0940  0.0846  0.3053
 1537TIP3    H126102   2.233   1.206  11.726  1.1575  0.6543  0.8002
 1537TIP3    H226103   2.254   1.068  11.785  1.5197  0.5882  0.5143
 1538TIP3   OH226104   2.821   2.120   5.407  0.4357  0.3645 -0.3877
 1538TIP3    H126105   2.863   2.051   5.458  0.6271  1.4991  1.0506
 1538TIP3    H226106   2.770   2.074   5.341 -0.4739 -1.1888  1.3329
 1539TIP3   OH226107   5.713   6.185  11.143 -0.1471 -0.4137 -0.3406
 1539TIP3    H126108   5.719   6.234  11.061  1.8231 -1.3136 -0.7938
 1539TIP3    H226109   5.782   6.222  11.198  1.6448 -2.7473 -0.8201
 1540TIP3   OH226110   0.313   2.600  13.799 -0.5121  0.8055 -0.0802
 1540TIP3    H126111   0.236   2.560  13.760  0.4501 -0.5372 -0.6809
 1540TIP3    H226112   0.288   2.691  13.816 -2.1500  0.4366 -0.4098
 1541TIP3   OH226113   0.905   5.229  11.461  0.0552  0.0195  0.3598
 1541TIP3    H126114   0.837   5.279  11.507  0.2494 -0.9910  1.8322
 1541TIP3    H226115   0.936   5.287  11.393 -1.8777  0.7304  0.0273
 1542TIP3   OH226116   5.746   1.641   1.743  0.2951 -0.5473 -0.1034
 1542TIP3    H126117   5.719   1.709   1.681 -0.9137  0.5535  1.5530
 1542TIP3    H226118   5.762   1.688   1.825  1.5436 -1.9983  0.5343
 1543TIP3   OH226119   0.747   1.371  11.071  0.5896  0.0059 -0.0045
 1543TIP3    H126120   0.797   1.309  11.125 -0.4270 -1.1979 -0.3856
 1543TIP3    H226121   0.665   1.325  11.052 -1.4377  2.4805  1.9339
 1544TIP3   OH226122   2.118   5.551  11.663 -0.5646 -0.4947 -0.3663
 1544TIP3    H126123   2.201   5.528  11.620  0.1277  1.7509 -0.3378
 1544TIP3    H226124   2.052   5.507  11.609  0.5711 -1.7864 -0.7929
 1545TIP3   OH226125   3.772   0.813  11.781  0.1557 -0.2185 -0.0330
 1545TIP3    H126126   3.803   0.762  11.856 -2.2380  0.0071  1.2334
 1545TIP3    H226127   3.751   0.899  11.818 -0.1895  0.2015 -1.1702
 1546TIP3   OH226128   5.062   0.888   5.712 -0.3042  0.0378  0.8289
 1546TIP3    H126129   5.091   0.941   5.786 -0.8164  1.8913 -0.2387
 1546TIP3    H226130   5.142   0.862   5.667 -0.0348 -0.4214  1.5509
 1547TIP3   OH226131   0.272   5.551   0.770 -0.1692  0.8396 -0.3427
 1547TIP3    H126132   0.226   5.479   0.813  1.2846  0.5189  0.7306
 1547TIP3    H226133   0.205   5.619   0.761 -1.2749 -0.2059 -0.3310
 1548TIP3   OH226134   3.809   1.299   1.082  0.3605  0.6334 -0.1345
 1548TIP3    H126135   3.751   1.372   1.105 -1.4609 -1.1336  1.3034
 1548TIP3    H226136   3.749   1.226   1.065  2.1421 -1.4498  1.8604
 1549TIP3   OH226137   6.312   6.543  16.941 -0.2815  0.3734  0.1497
 1549TIP3    H126138   6.244   6.610  16.930 -0.8076 -0.2716 -0.6298
 1549TIP3    H226139   6.290   6.476  16.876  1.2576  0.2697 -0.2971
 1550TIP3   OH226140   1.699   2.624   1.168 -0.2930 -0.1848  0.3613
 1550TIP3    H126141   1.731   2.599   1.254  0.0766 -1.9456 -0.2609
 1550TIP3    H226142   1.777   2.636   1.115 -0.5390  0.2963  0.0933
 1551TIP3   OH226143   4.905   1.198   4.265 -0.1139 -0.0770 -0.5313
 1551TIP3    H126144   4.958   1.125   4.295 -0.5228 -0.6435 -1.1303
 1551TIP3    H226145   4.825   1.194   4.318 -0.9222 -1.1987 -1.7508
 1552TIP3   OH226146   1.719   0.656  10.530 -0.7486 -1.1863 -0.0103
 1552TIP3    H126147   1.753   0.567  10.517  0.6145 -0.5614 -0.8800
 1552TIP3    H226148   1.641   0.644  10.584  2.3623 -2.4865  4.7205
 1553TIP3   OH226149   2.374   5.213   6.354  0.4155 -0.0960  0.5260
 1553TIP3    H126150   2.319   5.160   6.296  1.7477 -0.6977 -0.2492
 1553TIP3    H226151   2.401   5.152   6.423  1.4586 -0.3007 -0.0356
 1554TIP3   OH226152   6.186   4.085  15.368 -0.0091  0.2874 -0.0296
 1554TIP3    H126153   6.188   3.989  15.369  2.2454  0.2830 -0.4920
 1554TIP3    H226154   6.095   4.107  15.348 -0.3719 -1.7671 -0.8379
 1555TIP3   OH226155   1.549   1.718  15.327  0.4792  0.1990  0.4117
 1555TIP3    H126156   1.487   1.647  15.342  0.8158 -0.1101  0.3569
 1555TIP3    H226157   1.538   1.777  15.402  0.0510  0.2019  0.3499
 1556TIP3   OH226158   0.751   2.013  16.321  0.4701 -0.1125  0.1742
 1556TIP3    H126159   0.669   2.000  16.272 -0.2291  2.9485  0.3215
 1556TIP3    H226160   0.817   2.022  16.253  0.8234 -2.8796  0.0573
 1557TIP3   OH226161   6.052   1.148   2.109  0.2318  0.1067  0.6278
 1557TIP3    H126162   6.007   1.063   2.111 -0.1751  0.3375  1.5001
 1557TIP3    H226163   5.984   1.211   2.089  0.1757  0.4443  1.8473
 1558TIP3   OH226164   1.228   6.307   3.061  0.4959  0.2138 -0.1962
 1558TIP3    H126165   1.189   6.322   2.975  0.8752 -2.2429 -0.8538
 1558TIP3    H226166   1.306   6.254   3.044  0.8622  0.0816  1.6199
 1559TIP3   OH226167   2.675   2.298  12.582  0.0128 -0.2750 -0.0282
 1559TIP3    H126168   2.584   2.314  12.555 -0.5644 -1.0322  1.3759
 1559TIP3    H226169   2.713   2.251  12.508 -0.8351 -0.2461 -0.4977
 1560TIP3   OH226170   5.997   4.954  12.874 -0.1915 -0.0680  1.0612
 1560TIP3    H126171   6.070   4.926  12.820  1.3173  1.6714  2.0894
 1560TIP3    H226172   5.947   4.874  12.890  1.2623 -1.2349  0.0258
 1561TIP3   OH226173   3.904   4.110  10.400 -0.0553 -0.1294  0.0270
 1561TIP3    H126174   3.839   4.051  10.439 -0.1038 -0.5329 -0.6379
 1561TIP3    H226175   3.942   4.059  10.329  0.1314  0.5354 -0.3560
 1562TIP3   OH226176   6.237   2.265   5.121  0.5387  0.4884  0.0080
 1562TIP3    H126177   6.252   2.256   5.026  1.8595  0.6233  0.1938
 1562TIP3    H226178   6.324   2.265   5.159  0.1198  2.4272  1.0635
 1563TIP3   OH226179   2.888   1.427   3.050  0.4715  0.4621  0.0963
 1563TIP3    H126180   2.946   1.446   3.123  0.9487  1.0303 -0.4131
 1563TIP3    H226181   2.819   1.493   3.057  0.6525  0.6753 -0.1043
 1564TIP3   OH226182   4.987   5.704  14.406 -0.3291 -0.3343 -0.6003
 1564TIP3    H126183   5.058   5.641  14.416 -0.3019 -0.1921  0.1074
 1564TIP3    H226184   5.015   5.760  14.333  0.2382 -0.3339 -0.3817
 1565TIP3   OH226185   4.277   1.776  12.114  0.0022 -0.4382  0.2130
 1565TIP3    H126186   4.352   1.802  12.167 -0.7889 -0.5137  1.4081
 1565TIP3    H226187   4.307   1.698  12.066  0.5978 -0.6386  0.8904
 1566TIP3   OH226188   5.590   4.323   5.752 -0.0511  0.6356  0.0872
 1566TIP3    H126189   5.609   4.354   5.664 -1.7801  0.6051 -0.3276
 1566TIP3    H226190   5.496   4.335   5.763 -0.0103 -0.1030  1.6405
 1567TIP3   OH226191   0.734   4.703  11.534  0.0964  0.6758  0.2218
 1567TIP3    H126192   0.678   4.726  11.460  0.6578 -1.7495 -1.0508
 1567TIP3    H226193   0.674   4.695  11.608 -0.7667  1.1092 -0.4067
 1568TIP3   OH226194   0.155   2.758   5.302 -0.1965  0.0234 -0.5805
 1568TIP3    H126195   0.073   2.723   5.268  0.0105 -0.5009 -0.5359
 1568TIP3    H226196   0.140   2.853   5.307  0.0769  0.2692 -3.0495
 1569TIP3   OH226197   1.228   2.770   1.331 -0.0194 -0.3157  0.7279
 1569TIP3    H126198   1.284   2.773   1.254 -0.7027  1.5885  0.2520
 1569TIP3    H226199   1.201   2.678   1.337  0.7807 -0.6821 -0.7577
 1570TIP3   OH226200   3.805   3.034   0.172  0.3650 -0.2049  0.8578
 1570TIP3    H126201   3.768   2.974   0.107  2.2104  0.3407 -0.8206
 1570TIP3    H226202   3.729   3.071   0.217 -1.0596 -0.1941 -1.3941
 1571TIP3   OH226203   6.714   5.940  13.628  0.3949  0.0883 -0.2160
 1571TIP3    H126204   6.737   5.858  13.585 -2.4034 -1.1347  0.4091
 1571TIP3    H226205   6.663   5.988  13.563 -0.8397 -0.2116  0.4953
 1572TIP3   OH226206   5.528   3.628   2.468 -0.4021  0.1484  0.0407
 1572TIP3    H126207   5.592   3.563   2.496 -1.3080 -0.4642  0.7479
 1572TIP3    H226208   5.570   3.674   2.396  0.5970 -0.6373  0.1096
 1573TIP3   OH226209   2.623   4.455   3.398  0.2516 -0.3082  0.3861
 1573TIP3    H126210   2.598   4.511   3.472 -0.5996  0.4949 -0.4858
 1573TIP3    H226211   2.556   4.386   3.398 -1.7024  1.4268 -1.4878
 1574TIP3   OH226212   2.451   4.428  16.888 -0.9198 -0.2952 -0.6666
 1574TIP3    H126213   2.383   4.465  16.944 -0.1725  0.9643 -0.5645
 1574TIP3    H226214   2.498   4.367  16.946 -0.9011  0.0971 -0.2614
 1575TIP3   OH226215   6.714   5.086  13.967  0.0604  0.2323 -0.0740
 1575TIP3    H126216   6.690   5.127  13.884  1.3946  0.7500 -0.2176
 1575TIP3    H226217   6.795   5.038  13.948 -0.6218 -1.2028  0.4786
 1576TIP3   OH226218   6.501   0.303  13.895  0.1504 -0.1587 -0.4953
 1576TIP3    H126219   6.531   0.274  13.981  0.6391  0.1670 -0.5484
 1576TIP3    H226220   6.574   0.356  13.861 -0.0511 -0.2595 -1.0940
 1577TIP3   OH226221   3.611   4.992  14.369 -0.1507  0.2126 -0.0507
 1577TIP3    H126222   3.669   4.918  14.386 -0.0808 -0.0703 -1.4717
 1577TIP3    H226223   3.555   4.997  14.447 -0.4533 -1.6146 -0.1131
 1578TIP3   OH226224   5.565   2.688   5.272 -0.1132  0.1991  0.0747
 1578TIP3    H126225   5.509   2.714   5.346  1.7884 -0.7342  1.9324
 1578TIP3    H226226   5.634   2.635   5.312  1.4386  0.3236 -2.2870
 1579TIP3   OH226227   6.457   2.157   2.467  0.3786  0.2739  1.0500
 1579TIP3    H126228   6.422   2.240   2.500  0.5781  0.6487  0.3539
 1579TIP3    H226229   6.473   2.174   2.374 -1.5839 -1.1859  0.3773
 1580TIP3   OH226230   5.142   1.356  16.228  0.3609  0.5436  0.7348
 1580TIP3    H126231   5.233   1.326  16.225  0.1137 -0.2629  1.0288
 1580TIP3    H226232   5.146   1.447  16.198  1.3269  0.6727  1.1939
 1581TIP3   OH226233   4.352   6.066  11.917  0.4159  0.2124 -0.2277
 1581TIP3    H126234   4.368   6.038  11.827 -0.2778  3.4586 -1.4979
 1581TIP3    H226235   4.258   6.086  11.919  0.3640 -0.0706  1.3294
 1582TIP3   OH226236   3.556   4.901   4.329  0.0750 -0.2230  0.5837
 1582TIP3    H126237   3.551   4.920   4.423 -0.3137  0.8960  0.3550
 1582TIP3    H226238   3.648   4.880   4.314  0.4332  0.9615  0.9897
 1583TIP3   OH226239   3.906   6.032  15.653  0.0485  0.1688 -0.0805
 1583TIP3    H126240   3.952   5.955  15.620 -0.2566 -0.7494  1.4865
 1583TIP3    H226241   3.969   6.073  15.713  0.5528  1.7207 -1.6014
 1584TIP3   OH226242   2.999   4.597   4.765 -0.0565  0.0209  0.5519
 1584TIP3    H126243   2.967   4.528   4.823  1.4598 -0.0469  1.3644
 1584TIP3    H226244   3.094   4.590   4.770  0.1198  0.9603 -0.8433
 1585TIP3   OH226245   2.481   5.565  13.362 -0.4797 -0.3083  0.3094
 1585TIP3    H126246   2.414   5.621  13.403 -2.3875 -0.3335 -2.4728
 1585TIP3    H226247   2.557   5.622  13.352 -0.7436  0.3428  1.7557
 1586TIP3   OH226248   6.760   1.653   1.200  0.1589 -0.5055  0.0620
 1586TIP3    H126249   6.682   1.707   1.215 -0.8312 -1.9086  0.0865
 1586TIP3    H226250   6.830   1.717   1.189 -0.7090  0.7756  1.4632
 1587TIP3   OH226251   0.007   4.833   6.479  0.1212  0.0655 -0.0581
 1587TIP3    H126252   0.021   4.883   6.399  0.9699 -0.9255 -0.5465
 1587TIP3    H226253  -0.012   4.900   6.545  4.4217  1.4772  0.0857
 1588TIP3   OH226254   1.899   5.882   2.668 -0.6422  0.3957 -0.0657
 1588TIP3    H126255   1.991   5.868   2.688 -0.8361  1.3207  1.6652
 1588TIP3    H226256   1.857   5.798   2.690 -0.1774 -0.1989 -1.3489
 1589TIP3   OH226257   2.091   2.329   0.326  0.0343 -0.3380 -0.7727
 1589TIP3    H126258   2.004   2.290   0.320  1.0414 -2.5876 -1.5237
 1589TIP3    H226259   2.124   2.302   0.412  0.4905 -0.5956 -1.0267
 1590TIP3   OH226260   6.724   0.359   1.860  0.7181 -0.0206  0.3593
 1590TIP3    H126261   6.721   0.293   1.930  0.6089  0.5103  0.8627
 1590TIP3    H226262   6.761   0.312   1.785 -2.6694 -1.7260 -0.4511
 1591TIP3   OH226263   4.433   1.190   2.485 -0.2955  0.0272 -0.2034
 1591TIP3    H126264   4.421   1.226   2.397 -2.4160  1.9478  0.7798
 1591TIP3    H226265   4.492   1.252   2.528  1.9492 -1.6928 -0.6251
 1592TIP3   OH226266   1.535   2.478   2.918 -0.2524  0.1176  0.1557
 1592TIP3    H126267   1.443   2.502   2.926  0.0456  0.9848  1.2100
 1592TIP3    H226268   1.582   2.550   2.960  0.9176 -0.2483 -0.4836
 1593TIP3   OH226269   1.319   3.730  14.005 -0.2942  0.1727 -0.0732
 1593TIP3    H126270   1.232   3.766  13.986 -0.3800  0.1033  0.1802
 1593TIP3    H226271   1.334   3.753  14.097  0.1585  0.6004 -0.2494
 1594TIP3   OH226272   6.407   5.666   0.361  0.6227  0.5251  0.0766
 1594TIP3    H126273   6.448   5.582   0.379 -0.2995  0.2128  0.7685
 1594TIP3    H226274   6.316   5.645   0.340  1.3117  0.9182 -4.2012
 1595TIP3   OH226275   6.365   5.205   3.903  0.5679 -0.0727 -0.1053
 1595TIP3    H126276   6.329   5.287   3.936  0.4877 -0.5607  1.0804
 1595TIP3    H226277   6.436   5.184   3.963 -0.7292 -1.9136  0.8910
 1596TIP3   OH226278   6.757   3.752  11.685  0.1692 -0.3245  0.2668
 1596TIP3    H126279   6.768   3.657  11.688  1.5957 -0.3409 -2.4027
 1596TIP3    H226280   6.841   3.785  11.655 -0.9387  1.5796 -0.9777
 1597TIP3   OH226281   4.337   6.499  15.274 -0.1736 -0.0868  0.2992
 1597TIP3    H126282   4.389   6.523  15.351 -0.6823  0.8005  0.3812
 1597TIP3    H226283   4.246   6.504  15.305 -0.3303 -1.1012  0.0143
 1598TIP3   OH226284   2.301   5.579   4.452 -0.5296  0.3421 -0.1257
 1598TIP3    H126285   2.256   5.527   4.519 -1.6838  1.0042 -0.3519
 1598TIP3    H226286   2.231   5.607   4.393  0.6315 -1.3373 -2.4031
 1599TIP3   OH226287   3.836   3.316  16.871 -0.1299 -0.0434  0.3413
 1599TIP3    H126288   3.744   3.335  16.855  0.7608  2.9802 -2.2919
 1599TIP3    H226289   3.858   3.367  16.949 -0.7841 -1.5243  1.5579
 1600TIP3   OH226290   1.622   5.719   0.139 -0.4952  0.0783 -0.5508
 1600TIP3    H126291   1.706   5.675   0.125 -0.4656 -0.5144  1.2851
 1600TIP3    H226292   1.628   5.800   0.088  2.6551  1.8356  2.2063
 1601TIP3   OH226293   4.965   6.717  11.169 -0.2639 -0.1991 -0.0482
 1601TIP3    H126294   4.942   6.630  11.136 -1.9122 -0.2415  1.0936
 1601TIP3    H226295   4.986   6.702  11.261  0.6426  0.4530 -0.1412
 1602TIP3   OH226296   4.167   6.499  13.970  0.3900  0.6217  0.4068
 1602TIP3    H126297   4.218   6.462  13.898 -0.3571 -0.1329  0.2555
 1602TIP3    H226298   4.103   6.431  13.992 -0.5503  1.5466  0.5927
 1603TIP3   OH226299   0.230   3.431   3.146 -0.0406  0.0347  0.2272
 1603TIP3    H126300   0.323   3.412   3.163  1.0353 -0.2542 -4.5066
 1603TIP3    H226301   0.231   3.517   3.104 -1.9346  0.0827  0.2198
 1604TIP3   OH226302   4.843   4.990  13.758 -0.0783  0.1667 -0.2042
 1604TIP3    H126303   4.930   4.961  13.731  0.1356  0.3851  0.2324
 1604TIP3    H226304   4.801   4.911  13.794 -0.6470 -0.3031 -1.8265
 1605TIP3   OH226305   2.969   4.964   4.897  0.4032  0.2521  0.4856
 1605TIP3    H126306   2.881   5.000   4.903  0.2048 -0.1257 -0.0470
 1605TIP3    H226307   2.962   4.897   4.829  1.5335  1.5292 -0.9646
 1606TIP3   OH226308   4.759   4.618   2.191 -0.0666  0.3421  0.4801
 1606TIP3    H126309   4.812   4.542   2.215  0.4791  0.7549  0.5809
 1606TIP3    H226310   4.772   4.628   2.097 -2.1619 -1.2420 -0.0779
 1607TIP3   OH226311   2.538   1.547  11.405  0.0089 -0.0772 -0.0892
 1607TIP3    H126312   2.460   1.510  11.446 -0.9624 -0.0862 -1.8169
 1607TIP3    H226313   2.594   1.471  11.388  0.1126 -0.1541  0.5690
 1608TIP3   OH226314   5.754   3.299  15.888 -0.1204  0.3713 -0.1467
 1608TIP3    H126315   5.693   3.233  15.857  0.9018 -0.4172 -0.5634
 1608TIP3    H226316   5.740   3.374  15.831  1.6221 -0.9960 -2.6005
 1609TIP3   OH226317   3.845   6.392  16.724 -0.8950 -0.4244  0.1312
 1609TIP3    H126318   3.880   6.321  16.670  1.2522  0.8496 -0.2590
 1609TIP3    H226319   3.860   6.364  16.814 -0.3004 -0.5849 -0.0143
 1610TIP3   OH226320   5.814   5.042   1.885 -0.4809  0.2789  0.3782
 1610TIP3    H126321   5.771   5.085   1.812  0.5928 -0.2468 -0.5913
 1610TIP3    H226322   5.753   5.051   1.958 -1.7748  0.4059 -0.6953
 1611TIP3   OH226323   4.858   6.541  15.501  0.0716  0.0973  0.2138
 1611TIP3    H126324   4.811   6.562  15.582 -0.2423 -1.3488  0.4282
 1611TIP3    H226325   4.951   6.550  15.524  0.0139 -1.0707  0.9840
 1612TIP3   OH226326   6.663   5.547   0.276 -0.0214 -0.7663 -0.2720
 1612TIP3    H126327   6.709   5.625   0.307 -0.9477 -0.7054  1.0117
 1612TIP3    H226328   6.609   5.579   0.203 -2.4141  0.4433  1.8799
 1613TIP3   OH226329   0.767   6.186   5.998  0.3073  0.2812 -0.3727
 1613TIP3    H126330   0.676   6.190   5.967  0.4585  0.6137 -0.7857
 1613TIP3    H226331   0.766   6.233   6.081 -0.2644 -1.3151  0.5665
 1614TIP3   OH226332   6.754   6.301   3.210  0.3623  0.6345  0.5297
 1614TIP3    H126333   6.740   6.269   3.121 -1.7388  0.6358  0.8112
 1614TIP3    H226334   6.807   6.379   3.199  1.0715  0.0277 -0.6123
 1615TIP3   OH226335   2.816   3.236  14.529  0.8850  0.5119 -0.0979
 1615TIP3    H126336   2.807   3.315  14.476  0.6423  1.0600  0.7541
 1615TIP3    H226337   2.845   3.267  14.615 -3.3398  0.1852  1.6769
 1616TIP3   OH226338   5.178   6.314   6.543 -0.2919  0.1301 -0.0536
 1616TIP3    H126339   5.258   6.294   6.592 -1.0034 -1.8695  0.3899
 1616TIP3    H226340   5.161   6.406   6.562  1.7554  0.5400  0.0457
 1617TIP3   OH226341   0.949   2.400   2.854 -0.5705  0.0733  0.0822
 1617TIP3    H126342   0.866   2.360   2.827 -0.6691  1.1250 -1.2756
 1617TIP3    H226343   0.934   2.494   2.845 -0.0855  0.4219  2.4480
 1618TIP3   OH226344   6.853   3.139   2.668  0.8057 -0.9421 -0.3405
 1618TIP3    H126345   6.918   3.204   2.695  0.8164 -0.9409 -0.3699
 1618TIP3    H226346   6.781   3.150   2.730  0.0205  0.3217 -1.4263
 1619TIP3   OH226347   6.510   2.564  12.440 -0.6125  0.1369  0.3553
 1619TIP3    H126348   6.493   2.487  12.494  1.8081 -1.2544 -0.6814
 1619TIP3    H226349   6.586   2.539  12.387 -1.2173  2.3870 -1.7498
 1620TIP3   OH226350   1.554   5.939   5.477 -0.6494 -0.4651  0.0693
 1620TIP3    H126351   1.474   5.920   5.526 -0.4706 -2.5064 -0.3333
 1620TIP3    H226352   1.593   5.853   5.461  0.7946  0.3704 -1.1582
 1621TIP3   OH226353   3.755   3.422  14.761 -0.2250  0.2981  0.2118
 1621TIP3    H126354   3.669   3.381  14.768  0.4393 -1.4418 -1.0214
 1621TIP3    H226355   3.786   3.429  14.851 -1.3126  0.1902  0.6045
 1622TIP3   OH226356   0.698   6.227  11.548 -0.5358 -0.1976 -0.2001
 1622TIP3    H126357   0.772   6.192  11.498 -0.8519  0.6749 -1.3087
 1622TIP3    H226358   0.621   6.190  11.505 -0.8984  2.0125 -1.5957
 1623TIP3   OH226359   0.112   4.219   2.057 -0.8303 -0.4003 -0.2293
 1623TIP3    H126360   0.060   4.248   2.132  0.9250  0.8428  0.5892
 1623TIP3    H226361   0.154   4.138   2.086 -0.2187  0.0352  0.1291
 1624TIP3   OH226362   0.565   3.200   5.448  0.7020 -0.2780 -0.2757
 1624TIP3    H126363   0.543   3.107   5.449  1.6149 -0.5145  1.1862
 1624TIP3    H226364   0.659   3.203   5.431  1.1649  0.1931  2.0241
 1625TIP3   OH226365   4.874   5.474  13.958  0.2957 -0.3338  0.6282
 1625TIP3    H126366   4.950   5.482  14.016  0.7608 -3.0101  0.5140
 1625TIP3    H226367   4.854   5.380  13.958 -1.3406 -0.0468 -1.4827
 1626TIP3   OH226368   1.983   3.430  12.274  0.1320 -0.0114 -0.0586
 1626TIP3    H126369   1.940   3.441  12.358  0.4908  1.0271  0.0107
 1626TIP3    H226370   2.075   3.453  12.291  0.4525 -0.9484 -0.4761
 1627TIP3   OH226371   1.724   2.358  15.215 -0.1083 -0.1192  0.1496
 1627TIP3    H126372   1.670   2.279  15.213  2.9271 -2.3839  1.0463
 1627TIP3    H226373   1.766   2.357  15.302  3.5950 -0.1958 -1.4603
 1628TIP3   OH226374   2.671   5.105   4.857 -0.4803  0.3092 -0.4073
 1628TIP3    H126375   2.662   5.194   4.892 -1.5777  0.2074 -0.3697
 1628TIP3    H226376   2.664   5.049   4.935 -2.3618  0.1067 -0.6541
 1629TIP3   OH226377   1.440   1.355  13.545  0.3472  0.2088 -0.2455
 1629TIP3    H126378   1.487   1.271  13.545 -0.2455 -0.1513 -1.6116
 1629TIP3    H226379   1.446   1.386  13.455 -0.4219  1.0847 -0.0129
 1630TIP3   OH226380   3.165   3.368  15.887  0.1709 -0.2648 -0.8823
 1630TIP3    H126381   3.121   3.453  15.892 -0.0924 -0.2902 -2.2511
 1630TIP3    H226382   3.125   3.316  15.956 -0.2938  0.4544 -0.5997
 1631TIP3   OH226383   5.003   3.359   4.423  0.5878 -0.0877  0.3973
 1631TIP3    H126384   5.003   3.450   4.393  1.8248 -0.2304 -0.0599
 1631TIP3    H226385   5.060   3.359   4.500 -0.5817 -0.2150  1.3070
 1632TIP3   OH226386   5.712   4.408  12.143 -0.2087  0.6152  0.1725
 1632TIP3    H126387   5.641   4.458  12.183 -0.0078 -0.2355  1.6493
 1632TIP3    H226388   5.669   4.333  12.102 -0.2142  0.3713  0.6239
 1633TIP3   OH226389   0.734   0.376  14.817  0.5692  0.1713 -0.7903
 1633TIP3    H126390   0.795   0.406  14.749  1.4753 -1.1945 -0.6286
 1633TIP3    H226391   0.724   0.452  14.875 -0.0982  1.3077 -2.3324
 1634TIP3   OH226392   5.335   3.713  16.229 -0.2746 -0.3291 -0.2483
 1634TIP3    H126393   5.334   3.800  16.188  2.2656  0.4067  1.0831
 1634TIP3    H226394   5.298   3.727  16.316  2.7585  0.1342  1.0684
 1635TIP3   OH226395   3.273   1.549  13.980  0.0735 -0.0092 -0.6142
 1635TIP3    H126396   3.349   1.607  13.975  0.4640 -0.4114  0.2902
 1635TIP3    H226397   3.220   1.571  13.903 -1.4666  3.8287  1.2953
 1636TIP3   OH226398   2.498   3.707   1.978  0.9281 -0.4701  0.4485
 1636TIP3    H126399   2.447   3.784   2.003 -0.6223 -1.3930  0.2857
 1636TIP3    H226400   2.513   3.660   2.061  0.6428 -0.7032  0.3691
 1637TIP3   OH226401   4.874   0.199   4.319  0.2107  0.0814 -0.0606
 1637TIP3    H126402   4.902   0.273   4.372  0.7290  0.3457 -0.6948
 1637TIP3    H226403   4.947   0.182   4.260 -0.5846  0.1962 -1.1191
 1638TIP3   OH226404   2.604   1.927   1.664  0.6452 -0.2891 -0.0732
 1638TIP3    H126405   2.648   2.001   1.622  0.4445  0.6147  1.2442
 1638TIP3    H226406   2.666   1.897   1.732  0.8086 -1.4742 -0.7212
 1639TIP3   OH226407   3.282   1.106   3.061  0.3587  0.1667 -0.8303
 1639TIP3    H126408   3.343   1.035   3.084 -0.8202 -0.3628  0.8343
 1639TIP3    H226409   3.223   1.067   2.997 -1.0600 -0.8427  0.9851
 1640TIP3   OH226410   0.503   0.600   1.561 -0.0807  0.1097 -0.2826
 1640TIP3    H126411   0.500   0.505   1.551  0.0641 -0.0290  0.9185
 1640TIP3    H226412   0.420   0.631   1.524 -0.2239 -0.4928 -0.4775
 1641TIP3   OH226413   5.217   3.534  11.722  0.1344 -0.0234  0.1566
 1641TIP3    H126414   5.265   3.559  11.644  0.0006 -0.1807  0.0218
 1641TIP3    H226415   5.125   3.545  11.698  0.0987  0.2994  0.4171
 1642TIP3   OH226416   1.938   5.835  14.851 -0.3123 -0.2738 -0.2665
 1642TIP3    H126417   1.917   5.776  14.924 -1.2881  0.5353  0.1334
 1642TIP3    H226418   1.930   5.781  14.773 -1.4695 -0.6345  0.0728
 1643TIP3   OH226419   2.413   3.780  14.465  0.0294 -0.1514  0.1372
 1643TIP3    H126420   2.500   3.767  14.428  0.3464 -1.6271  1.2921
 1643TIP3    H226421   2.428   3.834  14.544  0.0339 -1.1021  0.8010
 1644TIP3   OH226422   6.269   5.971   5.276  0.0398  0.1106  0.1080
 1644TIP3    H126423   6.296   5.961   5.185  0.4487  0.7309  0.1533
 1644TIP3    H226424   6.202   5.904   5.289  0.7433 -0.6977 -0.3390
 1645TIP3   OH226425   5.629   0.230  14.851  0.4930 -0.2413 -0.6988
 1645TIP3    H126426   5.678   0.228  14.769 -0.5023 -0.3055 -1.3057
 1645TIP3    H226427   5.652   0.147  14.894 -0.5178 -1.1474 -1.8474
 1646TIP3   OH226428   5.719   0.502  12.406  0.5076  0.3274  0.3064
 1646TIP3    H126429   5.767   0.583  12.387 -2.3673  1.8924 -0.8238
 1646TIP3    H226430   5.707   0.503  12.501  0.8490  1.0075  0.3466
 1647TIP3   OH226431   6.407   5.141   1.084 -0.0938  0.3258 -0.2101
 1647TIP3    H126432   6.357   5.220   1.064  0.3769  0.8368  0.6026
 1647TIP3    H226433   6.383   5.080   1.014 -1.1045  0.8902 -0.3781
 1648TIP3   OH226434   4.344   3.724   3.839 -1.2675 -0.1158  0.5772
 1648TIP3    H126435   4.396   3.793   3.798 -1.7175  0.5800  1.1476
 1648TIP3    H226436   4.394   3.698   3.916 -1.1447 -0.3622  0.4153
 1649TIP3   OH226437   2.997   5.366   3.895  0.1353  0.4157 -0.2053
 1649TIP3    H126438   3.059   5.412   3.838 -2.0075  3.1097 -0.5576
 1649TIP3    H226439   2.924   5.342   3.838  1.1707 -3.9409 -0.1113
 1650TIP3   OH226440   2.262   2.874   4.991 -0.2446  0.2624 -0.2104
 1650TIP3    H126441   2.348   2.911   4.971 -0.5707  0.0587 -2.1605
 1650TIP3    H226442   2.250   2.804   4.927 -1.2117 -0.7728  1.0548
 1651TIP3   OH226443   5.777   6.174   2.533  0.2309 -0.4910  0.0692
 1651TIP3    H126444   5.703   6.223   2.567  0.3989 -0.2080  0.0280
 1651TIP3    H226445   5.806   6.120   2.606  2.1114  1.8610  1.1963
 1652TIP3   OH226446   1.104   3.125   2.090 -0.3532 -0.0817 -0.3509
 1652TIP3    H126447   1.199   3.137   2.091 -0.5538  1.9223  1.3641
 1652TIP3    H226448   1.069   3.211   2.114 -2.5767 -1.0298  0.0029
 1653TIP3   OH226449   4.766   6.505   5.341  0.8994  0.6451 -0.4810
 1653TIP3    H126450   4.718   6.495   5.259  3.2637 -0.5269 -1.8109
 1653TIP3    H226451   4.742   6.427   5.391 -0.5112  1.3393 -0.0078
 1654TIP3   OH226452   6.009   1.733   6.354  0.5545  0.4412 -0.4679
 1654TIP3    H126453   6.062   1.718   6.432  2.0223  4.8726 -0.3320
 1654TIP3    H226454   5.919   1.719   6.384  1.2044 -0.0298  1.4131
 1655TIP3   OH226455   1.609   4.896   1.188 -0.0159 -0.4638  0.3531
 1655TIP3    H126456   1.516   4.919   1.184 -0.3041 -1.7644 -1.1617
 1655TIP3    H226457   1.610   4.801   1.185  1.4264 -0.4423 -1.5668
 1656TIP3   OH226458   3.864   0.406  12.189 -0.1381 -0.3303  0.8646
 1656TIP3    H126459   3.907   0.399  12.274 -0.2477 -1.0595  0.8724
 1656TIP3    H226460   3.914   0.347  12.132 -1.2999 -1.4692  0.9644
 1657TIP3   OH226461   3.053   2.459   4.861  0.8706  0.8915 -0.2188
 1657TIP3    H126462   2.972   2.496   4.895  0.7181 -0.9886  1.6798
 1657TIP3    H226463   3.122   2.516   4.896  0.6045 -0.1106  2.0900
 1658TIP3   OH226464   1.642   4.531  11.856 -0.3287 -0.3252 -0.5626
 1658TIP3    H126465   1.733   4.502  11.848 -1.0691 -2.7568 -0.8940
 1658TIP3    H226466   1.635   4.562  11.946  0.1145 -3.0812  0.5155
 1659TIP3   OH226467   4.579   2.119   0.109  0.1165 -0.1341 -0.5071
 1659TIP3    H126468   4.643   2.059   0.071  0.7767  0.1374  0.1546
 1659TIP3    H226469   4.619   2.205   0.102 -0.2037  0.0491 -0.1336
 1660TIP3   OH226470   1.573   6.745   3.458  0.0626 -0.2483  0.0858
 1660TIP3    H126471   1.575   6.662   3.411 -1.0765 -0.9452  1.2166
 1660TIP3    H226472   1.480   6.766   3.465  0.3406  1.3456 -0.5195
 1661TIP3   OH226473   1.240   3.528  16.542 -0.0879 -0.1620  0.3078
 1661TIP3    H126474   1.202   3.442  16.559 -1.4347  0.3303 -0.1340
 1661TIP3    H226475   1.325   3.525  16.586 -0.2473 -1.6007  0.5653
 1662TIP3   OH226476   4.934   0.251  12.724 -0.3017  0.3721  0.9350
 1662TIP3    H126477   4.918   0.166  12.684 -3.1057  0.8016  0.9985
 1662TIP3    H226478   4.952   0.309  12.649 -1.5792  0.3534  0.5939
 1663TIP3   OH226479   4.868   5.920   6.308  0.3172 -0.0538 -0.0482
 1663TIP3    H126480   4.910   5.999   6.344 -0.9751 -0.5069  2.6505
 1663TIP3    H226481   4.932   5.850   6.323  0.5454  0.0845 -0.3681
 1664TIP3   OH226482   6.454   1.056   6.187  0.0042 -0.4562 -0.0607
 1664TIP3    H126483   6.365   1.056   6.150  0.0179 -0.0095 -0.1064
 1664TIP3    H226484   6.471   0.965   6.210  0.1588 -0.8330 -1.5511
 1665TIP3   OH226485   6.118   6.546  13.976  0.3205 -0.1869  0.0531
 1665TIP3    H126486   6.073   6.466  14.005  1.0121 -0.3554  0.6835
 1665TIP3    H226487   6.134   6.594  14.057 -0.9821  1.0925 -0.4008
 1666TIP3   OH226488   1.087   2.687  14.550 -0.1698  0.0255 -0.9752
 1666TIP3    H126489   1.179   2.702  14.528 -0.5982  3.1525 -1.0510
 1666TIP3    H226490   1.076   2.726  14.637 -1.6288  0.6229 -1.3955
 1667TIP3   OH226491   0.881   1.696  16.153  0.0359 -0.7706  0.4209
 1667TIP3    H126492   0.959   1.645  16.172  0.9103  0.8537  1.4639
 1667TIP3    H226493   0.912   1.768  16.098 -0.6708  0.0128  1.0230
 1668TIP3   OH226494   2.394   0.776  12.108  0.2461 -0.4838  0.3865
 1668TIP3    H126495   2.453   0.844  12.140  0.1253 -1.0884  1.9742
 1668TIP3    H226496   2.413   0.770  12.014  0.7133  1.2703  0.3282
 1669TIP3   OH226497   6.695   2.974  11.038  0.5114 -0.8078 -0.7267
 1669TIP3    H126498   6.737   3.059  11.021  0.3659  0.0789  2.6049
 1669TIP3    H226499   6.604   2.987  11.013  0.0302  0.8010  1.5233
 1670TIP3   OH226500   3.335   5.836   1.211  0.9726  0.1651  0.0583
 1670TIP3    H126501   3.288   5.793   1.283 -0.4562  1.3846 -0.1061
 1670TIP3    H226502   3.412   5.875   1.252  1.7935 -1.6567  0.3776
 1671TIP3   OH226503   3.244   2.772  11.872 -0.1035  0.3880  0.1154
 1671TIP3    H126504   3.221   2.717  11.797 -0.1174  1.3512 -0.6156
 1671TIP3    H226505   3.160   2.806  11.903  0.0266  1.2908 -0.4807
 1672TIP3   OH226506   2.085   4.533   5.032  0.2329 -0.0816  0.1512
 1672TIP3    H126507   2.087   4.616   4.985  1.2320 -0.3114 -0.2416
 1672TIP3    H226508   1.995   4.524   5.062  0.1425  1.1995  0.3038
 1673TIP3   OH226509   4.581   1.638   2.413 -0.7803  0.0115 -0.3675
 1673TIP3    H126510   4.561   1.699   2.484 -0.7382  1.4872 -1.5623
 1673TIP3    H226511   4.534   1.674   2.337  0.8383 -0.3284 -1.5813
 1674TIP3   OH226512   6.179   4.605  14.564 -0.5793 -0.0126 -0.2848
 1674TIP3    H126513   6.133   4.550  14.500  0.9083 -1.0932 -0.4891
 1674TIP3    H226514   6.257   4.554  14.586  1.0303  2.1594 -0.6909
 1675TIP3   OH226515   5.774   4.232   3.129 -0.4799  0.4301 -0.6181
 1675TIP3    H126516   5.741   4.308   3.176 -0.1254 -0.2037  0.6865
 1675TIP3    H226517   5.846   4.199   3.183  1.5290  1.0333 -2.7442
 1676TIP3   OH226518   2.390   0.994   3.772 -0.4196  0.2919  0.1598
 1676TIP3    H126519   2.378   0.929   3.841  0.9092 -0.8781 -0.6525
 1676TIP3    H226520   2.374   0.946   3.690  2.3965  0.4085 -0.5764
 1677TIP3   OH226521   5.181   0.564  12.085 -0.0918 -0.5181  0.2434
 1677TIP3    H126522   5.189   0.606  12.000  0.1083  0.4696  0.7384
 1677TIP3    H226523   5.087   0.570  12.106 -0.3819 -2.0378 -0.5307
 1678TIP3   OH226524   5.996   5.946   4.683 -0.2644  0.0308 -0.3904
 1678TIP3    H126525   6.043   5.950   4.599  1.4230  0.9743  0.5467
 1678TIP3    H226526   5.980   5.853   4.697  1.8099 -0.4064 -0.5477
 1679TIP3   OH226527   1.562   6.278  13.682  0.2354  0.0659  0.1362
 1679TIP3    H126528   1.601   6.302  13.766  0.6403  0.2372 -0.0988
 1679TIP3    H226529   1.558   6.361  13.633 -0.5947  0.0866  0.2232
 1680TIP3   OH226530   3.926   5.282  12.481 -0.1967  0.6427  0.0256
 1680TIP3    H126531   3.973   5.237  12.411  2.3804  3.8391 -0.5487
 1680TIP3    H226532   3.885   5.212  12.532  2.1036 -2.1640 -1.6852
 1681TIP3   OH226533   6.182   3.072   5.686  0.4121  0.4566  0.5130
 1681TIP3    H126534   6.103   3.110   5.646  0.2759 -1.0405 -0.7853
 1681TIP3    H226535   6.213   3.009   5.621  0.9445 -1.1935  2.2602
 1682TIP3   OH226536   2.585   0.294  14.197  0.5525 -0.4100  0.3744
 1682TIP3    H126537   2.523   0.281  14.269  0.5692 -1.8183  0.1532
 1682TIP3    H226538   2.614   0.206  14.174  0.5833  0.0146 -1.3273
 1683TIP3   OH226539   1.877   5.168   3.427 -0.4057 -0.3757  0.0202
 1683TIP3    H126540   1.792   5.200   3.458 -2.2673 -3.9813 -0.8243
 1683TIP3    H226541   1.865   5.159   3.332  1.0646 -0.6783 -0.1570
 1684TIP3   OH226542   5.646   3.132   2.730  0.0629 -0.3240  0.3367
 1684TIP3    H126543   5.724   3.103   2.682 -0.0219  0.8794 -0.5463
 1684TIP3    H226544   5.679   3.151   2.818  0.6556 -0.3983  0.1371
 1685TIP3   OH226545   0.728   0.608   2.636  0.6089 -0.0490 -0.6874
 1685TIP3    H126546   0.749   0.630   2.726  0.7383 -0.3257 -0.6488
 1685TIP3    H226547   0.671   0.679   2.606  1.6586  0.7564 -0.8158
 1686TIP3   OH226548   4.212   2.606   3.302 -0.4392 -0.3462 -0.0846
 1686TIP3    H126549   4.274   2.664   3.346  1.2115 -0.8110 -1.6743
 1686TIP3    H226550   4.127   2.647   3.316  0.0943  0.0109  2.6718
 1687TIP3   OH226551   6.427   5.770   0.917  1.2143  0.1168 -0.5353
 1687TIP3    H126552   6.336   5.787   0.942  0.7541 -0.5339 -1.6932
 1687TIP3    H226553   6.424   5.686   0.871  2.5826 -0.4524  0.3530
 1688TIP3   OH226554   3.538   1.218   6.476 -0.4150 -0.8566  0.6517
 1688TIP3    H126555   3.448   1.227   6.506 -0.3982  3.0686 -0.0215
 1688TIP3    H226556   3.589   1.272   6.536  1.0725 -0.7817 -0.6195
 1689TIP3   OH226557   5.805   3.765  11.471 -0.1845 -0.1530  0.2063
 1689TIP3    H126558   5.852   3.682  11.469  0.3854  0.1294  1.1818
 1689TIP3    H226559   5.793   3.788  11.378  1.3832 -0.3760 -0.0822
 1690TIP3   OH226560   3.707   3.127  16.349 -0.0263  0.1477  0.3838
 1690TIP3    H126561   3.688   3.066  16.277 -0.6993  2.6593 -1.7067
 1690TIP3    H226562   3.709   3.072  16.427  2.4260 -3.0354 -1.6645
 1691TIP3   OH226563   3.163   2.643  11.639 -0.0321  0.1912  0.6843
 1691TIP3    H126564   3.126   2.688  11.563 -2.7955 -1.0167  1.2097
 1691TIP3    H226565   3.193   2.559  11.604  0.7510  0.5153  0.5584
 1692TIP3   OH226566   5.986   6.753  10.497  0.1247 -0.6424 -0.0558
 1692TIP3    H126567   6.031   6.741  10.581 -0.6154 -0.8073  0.3303
 1692TIP3    H226568   5.900   6.787  10.521 -0.6743 -2.1602 -0.6156
 1693TIP3   OH226569   6.756   5.193  11.788  0.2085 -0.1110  0.7627
 1693TIP3    H126570   6.667   5.220  11.767  0.5995  1.7493  1.3633
 1693TIP3    H226571   6.755   5.098  11.777 -1.2985  0.0639 -1.2100
 1694TIP3   OH226572   4.059   5.059  17.000  0.8231 -0.0619 -0.0164
 1694TIP3    H126573   4.118   5.135  17.005  0.1310  0.4115  1.3849
 1694TIP3    H226574   4.117   4.987  16.976  1.5393  0.8515 -1.1467
 1695TIP3   OH226575   6.671   1.119   0.039  0.0358 -0.1813 -0.3573
 1695TIP3    H126576   6.715   1.201   0.062 -2.3195  0.9521  0.4832
 1695TIP3    H226577   6.677   1.066   0.118 -0.6950  0.2780  0.0227
 1696TIP3   OH226578   1.359   3.039  11.115 -0.8787 -0.0808  0.1691
 1696TIP3    H126579   1.398   3.092  11.045  0.5442 -0.1673  0.8556
 1696TIP3    H226580   1.367   2.949  11.084 -1.4228 -0.0436 -0.0986
 1697TIP3   OH226581   5.293   0.782   5.619 -0.0771 -0.6123 -0.4070
 1697TIP3    H126582   5.385   0.806   5.630  0.3404 -0.8756 -2.8345
 1697TIP3    H226583   5.282   0.767   5.525 -2.8860  0.5280 -0.3725
 1698TIP3   OH226584   4.902   1.980  11.829  0.3284  0.0743 -0.2176
 1698TIP3    H126585   4.884   2.012  11.740  0.3476 -0.3138 -0.3633
 1698TIP3    H226586   4.908   2.060  11.882  1.7847  0.3929 -0.8261
 1699TIP3   OH226587   2.469   1.991  16.980  0.3458  0.0131  0.6423
 1699TIP3    H126588   2.554   1.947  16.976 -0.0618 -0.7598  0.3752
 1699TIP3    H226589   2.407   1.923  17.005 -0.2700  0.4655  0.3745
 1700TIP3   OH226590   0.170   1.967   2.904 -0.0047 -0.1906  0.2495
 1700TIP3    H126591   0.159   1.935   2.815 -0.8272 -0.2376  0.3593
 1700TIP3    H226592   0.186   1.889   2.957  1.5590 -0.0605 -0.0079
 1701TIP3   OH226593   0.052   4.986  14.488  0.1626 -0.2637  0.2387
 1701TIP3    H126594  -0.044   4.980  14.486  0.1497  0.0530 -0.1676
 1701TIP3    H226595   0.070   5.053  14.554  0.0746  0.2838 -0.2881
 1702TIP3   OH226596   1.800   1.943  14.173  0.0157  0.6428  0.4194
 1702TIP3    H126597   1.788   1.974  14.083  3.5527  1.6079  0.1307
 1702TIP3    H226598   1.830   1.853  14.163 -2.3044 -0.2547  0.8769
 1703TIP3   OH226599   5.876   4.708  16.648  0.8352 -0.5944 -0.0229
 1703TIP3    H126600   5.889   4.803  16.654 -1.4537 -0.1564 -0.7701
 1703TIP3    H226601   5.930   4.681  16.574  0.8537  0.2757 -0.3454
 1704TIP3   OH226602   1.214   0.136  11.221 -0.0397 -0.1786 -0.2137
 1704TIP3    H126603   1.191   0.224  11.249  2.6878  0.7338 -0.5730
 1704TIP3    H226604   1.193   0.134  11.128 -0.0400  0.0939 -0.2201
 1705TIP3   OH226605   3.770   5.079  11.533 -0.1966 -0.3172 -0.4328
 1705TIP3    H126606   3.733   5.003  11.489  1.4502 -1.4065 -0.0088
 1705TIP3    H226607   3.848   5.101  11.483 -1.0135  1.5916 -0.9818
 1706TIP3   OH226608   1.351   1.203  16.010 -0.0870  0.5205  0.4231
 1706TIP3    H126609   1.286   1.252  15.961  2.0101  1.7748 -1.2672
 1706TIP3    H226610   1.344   1.236  16.100 -0.4497  2.0524 -0.1498
 1707TIP3   OH226611   0.761   2.199   5.169  0.3915  0.1834  0.2427
 1707TIP3    H126612   0.769   2.261   5.241  0.3790  2.0051 -1.2417
 1707TIP3    H226613   0.846   2.155   5.165  0.3361 -0.0700  1.4397
 1708TIP3   OH226614   0.624   4.688  11.264 -0.1124  0.1358  1.1036
 1708TIP3    H126615   0.698   4.633  11.237  0.2486  0.6154  1.0952
 1708TIP3    H226616   0.654   4.777  11.247 -0.6172  0.3434  1.3018
 1709TIP3   OH226617   5.446   6.548   0.965  0.2195 -0.3021 -0.2299
 1709TIP3    H126618   5.509   6.606   0.923 -0.3224  0.4887  0.0153
 1709TIP3    H226619   5.499   6.481   1.008  0.8428 -0.1744 -0.7845
 1710TIP3   OH226620   0.746   4.655   4.976  0.0952 -0.3947  0.4540
 1710TIP3    H126621   0.728   4.597   5.050  2.3443 -0.4780  1.0177
 1710TIP3    H226622   0.663   4.661   4.929 -1.7561  0.4292  3.4923
 1711TIP3   OH226623   3.591   3.209   2.235 -0.6267 -0.6626 -0.1661
 1711TIP3    H126624   3.572   3.124   2.274 -1.2030 -1.4134 -1.9767
 1711TIP3    H226625   3.629   3.188   2.149 -0.5272  0.9077 -0.5400
 1712TIP3   OH226626   0.363   6.058  11.510 -0.3964 -0.2518  0.4575
 1712TIP3    H126627   0.283   6.109  11.521 -0.2855  0.0526 -0.0792
 1712TIP3    H226628   0.383   6.025  11.597 -0.0146  1.3195  1.0008
 1713TIP3   OH226629   1.237   2.748   6.484 -0.0690  0.1407 -0.3303
 1713TIP3    H126630   1.286   2.667   6.493  2.0315  1.4546  0.6153
 1713TIP3    H226631   1.193   2.740   6.399  2.4822 -0.7666 -1.6670
 1714TIP3   OH226632   4.106   2.569  15.745 -0.1261 -0.2792  0.1767
 1714TIP3    H126633   4.196   2.597  15.759 -0.4782  0.6832  0.6427
 1714TIP3    H226634   4.053   2.645  15.772 -1.0462 -0.5746 -0.7484
 1715TIP3   OH226635   1.244   4.821  16.652  0.5236  0.3257  0.6128
 1715TIP3    H126636   1.242   4.830  16.747 -0.5158  1.9707  0.4645
 1715TIP3    H226637   1.255   4.910  16.619 -0.5570 -0.0363 -0.8367
 1716TIP3   OH226638   0.953   0.079  12.310  0.1465 -0.3346 -0.0188
 1716TIP3    H126639   0.908  -0.002  12.284  0.8639 -0.7987  0.1555
 1716TIP3    H226640   1.031   0.049  12.356  0.6389  0.4574 -0.3177
 1717TIP3   OH226641   5.625   4.955   5.214  0.1343  0.0697  0.0231
 1717TIP3    H126642   5.685   5.029   5.222  0.1856 -0.0485  0.8729
 1717TIP3    H226643   5.651   4.911   5.133  0.7576  0.4053  0.0370
 1718TIP3   OH226644   2.954   5.648  14.292  0.1189 -0.1609 -0.3113
 1718TIP3    H126645   2.880   5.587  14.299  0.3533 -0.4293 -0.1534
 1718TIP3    H226646   2.915   5.734  14.305 -0.0477 -0.3638  0.5861
 1719TIP3   OH226647   5.970   0.368  11.506 -0.3836 -0.0444  0.1270
 1719TIP3    H126648   5.901   0.414  11.555 -2.0172 -0.3096 -1.7567
 1719TIP3    H226649   5.989   0.290  11.557 -2.7186 -0.8050 -0.0580
 1720TIP3   OH226650   0.545   0.433  11.820  0.1602  0.1333  0.5169
 1720TIP3    H126651   0.556   0.527  11.833 -0.1581  0.0192  1.6506
 1720TIP3    H226652   0.633   0.402  11.796  0.2121  0.7507 -0.1204
 1721TIP3   OH226653   3.289   5.570  14.510  0.5353 -0.1545  0.0183
 1721TIP3    H126654   3.198   5.545  14.525  0.6066 -0.7534 -0.4891
 1721TIP3    H226655   3.332   5.556  14.594  0.2606 -0.3419  0.1282
 1722TIP3   OH226656   0.413   0.577  11.055  0.1415  0.1754  0.3528
 1722TIP3    H126657   0.489   0.520  11.043 -1.1326 -1.7246  0.9528
 1722TIP3    H226658   0.448   0.654  11.100  1.8041 -0.4080  0.1265
 1723TIP3   OH226659   4.398   5.400  11.681  0.2839 -0.4191  0.4586
 1723TIP3    H126660   4.374   5.322  11.730 -0.5474 -1.4476 -1.4580
 1723TIP3    H226661   4.345   5.470  11.719 -1.0837 -1.3821  0.3857
 1724TIP3   OH226662   4.949   6.043  12.714  0.6761 -0.1359 -0.0391
 1724TIP3    H126663   4.879   6.069  12.654 -1.6488 -2.1147  1.6044
 1724TIP3    H226664   4.942   6.103  12.788  0.3323 -0.6470  0.3548
 1725TIP3   OH226665   6.016   2.734   1.749 -0.2949  0.3326  0.1334
 1725TIP3    H126666   5.933   2.778   1.733 -0.3424 -0.0523 -0.7169
 1725TIP3    H226667   6.082   2.790   1.708  0.0071  1.1510  1.6457
 1726TIP3   OH226668   6.648   5.225   0.179 -0.2772 -0.0429  0.0841
 1726TIP3    H126669   6.554   5.241   0.179 -0.6297 -1.8749 -0.3322
 1726TIP3    H226670   6.678   5.259   0.263 -0.9201  2.4329 -0.6247
 1727TIP3   OH226671   4.346   3.195   2.313 -0.6749 -0.3455 -0.6473
 1727TIP3    H126672   4.303   3.276   2.340 -2.3110 -0.6678 -2.0527
 1727TIP3    H226673   4.382   3.214   2.226  2.3014 -0.0417  0.5605
 1728TIP3   OH226674   1.085   4.610   0.268  0.8453  0.1682 -0.0780
 1728TIP3    H126675   1.130   4.593   0.185 -0.1950  1.0269 -0.8387
 1728TIP3    H226676   1.001   4.565   0.258  0.9009 -0.1183  0.7133
 1729TIP3   OH226677   5.931   5.477   4.840  0.5256 -0.0083  0.6057
 1729TIP3    H126678   5.842   5.463   4.873  0.4794 -0.6858  0.2087
 1729TIP3    H226679   5.944   5.572   4.848 -0.5713  0.2336 -0.1489
 1730TIP3   OH226680   6.598   1.939   2.150 -0.2752  0.2771  0.0536
 1730TIP3    H126681   6.518   1.900   2.185 -0.5350  2.2051  1.7750
 1730TIP3    H226682   6.569   1.991   2.076 -0.8131  1.7355  1.2490
 1731TIP3   OH226683   3.770   5.453  14.549 -0.1439 -0.0814  0.3065
 1731TIP3    H126684   3.732   5.380  14.500 -0.0908 -0.9963  1.5627
 1731TIP3    H226685   3.716   5.528  14.527 -2.2631 -1.1698  1.4395
 1732TIP3   OH226686   0.181   1.793   3.741 -0.3325  0.0574  0.4433
 1732TIP3    H126687   0.131   1.743   3.677  1.2127 -0.6577 -0.2700
 1732TIP3    H226688   0.204   1.730   3.809  0.3016  0.1452  0.3230
 1733TIP3   OH226689   3.197   5.601  11.417  0.0840 -0.5428 -0.2589
 1733TIP3    H126690   3.142   5.577  11.342  0.1389  1.5331 -1.0284
 1733TIP3    H226691   3.281   5.624  11.378 -0.2100  1.5976  0.2644
 1734TIP3   OH226692   1.838   0.549   5.326  0.7920  0.0886  0.0887
 1734TIP3    H126693   1.749   0.532   5.358  0.8313  0.3610  0.3386
 1734TIP3    H226694   1.828   0.556   5.231  0.6136 -0.3107  0.0776
 1735TIP3   OH226695   3.940   3.985  16.200 -0.0623 -0.4530  0.1934
 1735TIP3    H126696   3.910   4.022  16.283  3.0490 -1.2123  1.8241
 1735TIP3    H226697   3.975   4.060  16.152 -0.3543 -0.2509  0.2904
 1736TIP3   OH226698   0.018   2.930   4.580  0.1058  0.6780 -0.1618
 1736TIP3    H126699  -0.025   2.851   4.547 -1.6301  1.6744 -0.3835
 1736TIP3    H226700   0.110   2.920   4.552 -0.3874 -0.5369 -1.5127
 1737TIP3   OH226701   3.334   2.916   3.342 -0.1534  0.2208  0.1803
 1737TIP3    H126702   3.274   2.853   3.382 -1.0336  1.2301  0.4952
 1737TIP3    H226703   3.293   2.939   3.259 -1.7143  2.9727  1.5713
 1738TIP3   OH226704   2.490   0.176  14.890  0.1195  0.0757 -0.4981
 1738TIP3    H126705   2.581   0.150  14.906  0.0586  0.7014  1.0471
 1738TIP3    H226706   2.437   0.103  14.923  0.0392 -0.3301 -1.4834
 1739TIP3   OH226707   5.118   2.743  12.912 -0.3205  0.3256 -0.0457
 1739TIP3    H126708   5.107   2.707  13.000 -0.3637 -0.7084 -0.4611
 1739TIP3    H226709   5.052   2.812  12.906  0.4305  1.2050  1.1212
 1740TIP3   OH226710   5.992   5.974   1.423  0.3037  0.0261  0.1733
 1740TIP3    H126711   5.996   5.892   1.473  4.7008 -1.6093 -2.2409
 1740TIP3    H226712   6.083   6.005   1.422 -0.2423  2.0254 -3.3942
 1741TIP3   OH226713   0.526   6.723   0.867 -0.2453 -0.8124 -0.1558
 1741TIP3    H126714   0.568   6.649   0.822  0.7377  0.1980 -0.9386
 1741TIP3    H226715   0.587   6.796   0.856 -0.9367 -0.0164  1.1014
 1742TIP3   OH226716   1.941   6.634  15.238 -0.0932 -0.2678  0.3674
 1742TIP3    H126717   1.903   6.547  15.248 -1.1191  0.3019  1.7208
 1742TIP3    H226718   2.033   6.618  15.217 -0.4362 -1.6699 -0.1337
 1743TIP3   OH226719   4.034   2.783   8.721  0.0811  0.2657  0.2653
 1743TIP3    H126720   4.096   2.757   8.788  1.2644 -1.9985 -1.5848
 1743TIP3    H226721   3.948   2.765   8.759  0.7576 -2.6060  0.6736
 1744TIP3   OH226722   5.999   2.369  14.309 -0.3005  0.6721  0.3264
 1744TIP3    H126723   6.047   2.287  14.299  0.9366  1.1227  2.0919
 1744TIP3    H226724   5.930   2.348  14.372  1.3694  1.4134  2.5533
 1745TIP3   OH226725   4.568   3.194   2.825 -0.0164 -0.4434  0.1153
 1745TIP3    H126726   4.656   3.158   2.818  0.2432 -0.1050  1.3762
 1745TIP3    H226727   4.560   3.222   2.917 -0.3207  2.3664 -0.6615
 1746TIP3   OH226728   3.251   6.616  15.227  0.5238  0.1616  0.0508
 1746TIP3    H126729   3.294   6.568  15.157  1.4524  0.6333  0.2926
 1746TIP3    H226730   3.239   6.551  15.297 -0.0118 -0.1978 -0.3649
 1747TIP3   OH226731   6.553   0.848  11.308 -0.2023 -0.5415  0.0144
 1747TIP3    H126732   6.583   0.919  11.364 -0.5195 -0.7340  0.4318
 1747TIP3    H226733   6.504   0.892  11.238 -1.2955 -0.3933  0.8356
 1748TIP3   OH226734   1.718   3.099  11.503 -0.7105  0.7000  0.5815
 1748TIP3    H126735   1.683   3.180  11.542 -0.1019  1.6207 -0.7077
 1748TIP3    H226736   1.761   3.128  11.423  0.6145 -0.7523  0.7260
 1749TIP3   OH226737   3.065   3.277   2.681  0.2453  0.0828  0.4654
 1749TIP3    H126738   3.028   3.196   2.715  0.8128 -0.3510  0.0680
 1749TIP3    H226739   3.042   3.344   2.746  0.8173 -0.6144  1.4082
 1750TIP3   OH226740   0.068   4.184  16.182 -0.1696  0.2437 -0.7295
 1750TIP3    H126741   0.075   4.278  16.168 -0.6893  0.3905 -0.0656
 1750TIP3    H226742   0.150   4.148  16.149  0.3334  1.0103 -0.3240
 1751TIP3   OH226743   0.557   4.752   6.661 -0.2944  0.2315 -0.3336
 1751TIP3    H126744   0.465   4.769   6.642 -0.5482 -1.3349 -0.6612
 1751TIP3    H226745   0.600   4.837   6.650 -1.8060  1.1756  0.6146
 1752TIP3   OH226746   1.361   2.298   0.705 -1.2783 -0.3072 -0.0777
 1752TIP3    H126747   1.382   2.390   0.721 -1.6874 -0.4221  1.2163
 1752TIP3    H226748   1.321   2.297   0.618 -2.9574  1.0273  0.6264
 1753TIP3   OH226749   4.097   0.040  11.695  0.2520 -0.3606 -0.1495
 1753TIP3    H126750   4.005   0.055  11.673 -0.3086 -0.8543  1.6461
 1753TIP3    H226751   4.138   0.013  11.613 -1.2683 -0.4415 -0.9182
 1754TIP3   OH226752   3.611   6.455  16.212 -0.1914 -0.3411  0.1619
 1754TIP3    H126753   3.611   6.423  16.122  0.1096 -1.1367  0.4326
 1754TIP3    H226754   3.704   6.473  16.230 -0.3427  0.6555  0.0385
 1755TIP3   OH226755   3.061   0.943   5.499 -0.0703  0.1502  0.5363
 1755TIP3    H126756   3.139   0.922   5.446 -0.0039  1.1678  0.1960
 1755TIP3    H226757   2.990   0.945   5.435 -0.2598 -0.0993  0.7392
 1756TIP3   OH226758   2.484   4.757  16.087  0.4689 -0.6999  0.6642
 1756TIP3    H126759   2.472   4.852  16.078 -0.5493 -0.7766  1.0254
 1756TIP3    H226760   2.469   4.740  16.180  1.6454 -1.0938  0.7956
 1757TIP3   OH226761   5.538   2.322   0.892 -0.2986 -0.6050  0.4053
 1757TIP3    H126762   5.453   2.278   0.895  0.2753 -1.8823 -0.7159
 1757TIP3    H226763   5.542   2.373   0.973 -1.9698 -0.7946  0.6453
 1758TIP3   OH226764   3.429   5.313  13.339 -0.3827  0.1592 -0.0871
 1758TIP3    H126765   3.415   5.381  13.274 -0.0122  0.7657  0.4481
 1758TIP3    H226766   3.512   5.338  13.382  0.0885 -0.9629 -0.3011
 1759TIP3   OH226767   3.716   3.966   0.686  0.0902  0.0374  0.2506
 1759TIP3    H126768   3.778   3.994   0.618 -0.3706 -1.5459 -0.8795
 1759TIP3    H226769   3.630   3.990   0.650 -0.1169 -0.1429  0.6211
 1760TIP3   OH226770   2.882   3.797   6.065  0.1648  0.2139  0.5163
 1760TIP3    H126771   2.813   3.799   5.998 -0.1702  0.9754  0.8716
 1760TIP3    H226772   2.869   3.877   6.115  2.5511  1.4035 -0.6211
 1761TIP3   OH226773   2.489   5.936   2.019 -0.4321 -0.4931  0.2903
 1761TIP3    H126774   2.400   5.913   2.045 -0.6479 -0.4146 -0.3490
 1761TIP3    H226775   2.477   6.001   1.949  0.1068 -0.8701 -0.1651
 1762TIP3   OH226776   2.547   6.773   4.666  0.2516  0.2111 -0.9114
 1762TIP3    H126777   2.546   6.752   4.759  0.0676  1.0141 -0.7333
 1762TIP3    H226778   2.624   6.828   4.655  1.5231 -1.6066 -1.6249
 1763TIP3   OH226779   6.751   2.138  14.284 -0.2257 -0.1493  0.6576
 1763TIP3    H126780   6.722   2.133  14.376 -1.1414 -0.7291  0.3530
 1763TIP3    H226781   6.670   2.155  14.235  0.0397 -1.1634 -0.1606
 1764TIP3   OH226782   0.265   5.101  11.176  0.2766 -0.2165 -0.0953
 1764TIP3    H126783   0.205   5.033  11.146  0.8105 -0.4070 -0.7345
 1764TIP3    H226784   0.220   5.141  11.251 -0.6261 -0.3830 -0.5418
 1765TIP3   OH226785   1.712   3.882  10.514  0.0834 -0.0433  0.1719
 1765TIP3    H126786   1.805   3.905  10.507 -0.2916  0.9572 -2.6060
 1765TIP3    H226787   1.708   3.790  10.487 -0.0080  0.7568 -2.8327
 1766TIP3   OH226788   1.806   3.248  15.217  0.4428 -0.8070  0.3349
 1766TIP3    H126789   1.745   3.302  15.167  1.5550  0.2267  0.0322
 1766TIP3    H226790   1.803   3.284  15.306  0.0573 -1.2439  0.4995
 1767TIP3   OH226791   3.963   5.342   1.400  0.2678 -0.0544  0.4274
 1767TIP3    H126792   3.909   5.343   1.479  0.6400  0.5457  0.6802
 1767TIP3    H226793   3.915   5.396   1.337 -0.0246 -0.5254  0.2424
 1768TIP3   OH226794   3.683   2.023  13.872 -1.1701 -0.1390  0.4808
 1768TIP3    H126795   3.594   2.044  13.846  0.0062  2.2952 -2.0958
 1768TIP3    H226796   3.731   2.106  13.865  1.9251 -1.8690 -1.1984
 1769TIP3   OH226797   1.338   0.911  15.944  0.0761 -0.2123 -0.1708
 1769TIP3    H126798   1.270   0.860  15.989  0.2954  1.2762  1.9964
 1769TIP3    H226799   1.335   0.997  15.987  2.1894  0.4209 -1.1905
 1770TIP3   OH226800   5.302   3.026   2.236 -0.2394 -0.3638 -0.4220
 1770TIP3    H126801   5.316   2.997   2.326 -2.3997 -2.1266 -0.5617
 1770TIP3    H226802   5.282   3.119   2.244  0.6184 -0.2499  0.7733
 1771TIP3   OH226803   0.261   3.356   1.661 -0.5513 -0.2118 -0.6636
 1771TIP3    H126804   0.203   3.282   1.645 -0.1391 -0.8251  0.5529
 1771TIP3    H226805   0.205   3.433   1.654 -2.0876 -0.8638  2.6841
 1772TIP3   OH226806   0.981   0.989   4.493  0.3311  0.0213  0.2424
 1772TIP3    H126807   0.954   0.907   4.535 -1.9762  0.9861  0.7815
 1772TIP3    H226808   1.070   1.003   4.525 -0.3722 -0.6573  2.7575
 1773TIP3   OH226809   2.549   3.032   0.219 -0.0223 -0.3927 -0.6815
 1773TIP3    H126810   2.461   3.004   0.193 -0.4065  1.5484 -1.6617
 1773TIP3    H226811   2.595   3.046   0.136 -0.2721  2.9350 -0.3855
 1774TIP3   OH226812   2.083   0.572   4.723  0.4995 -0.2820 -0.2580
 1774TIP3    H126813   2.035   0.655   4.730  3.4858  1.7393 -1.5400
 1774TIP3    H226814   2.063   0.526   4.804 -0.7275  2.0006  0.8499
 1775TIP3   OH226815   0.243   5.794  16.800  0.1583 -0.2324 -0.1051
 1775TIP3    H126816   0.155   5.802  16.764  0.3322  0.3277 -0.4307
 1775TIP3    H226817   0.237   5.833  16.887 -1.1480 -4.7785  2.1533
 1776TIP3   OH226818   2.189   3.098  11.075  0.0265 -0.6431 -0.6126
 1776TIP3    H126819   2.158   3.016  11.036 -0.1891  0.2581 -2.4275
 1776TIP3    H226820   2.284   3.097  11.058 -0.0230 -0.3801 -0.9036
 1777TIP3   OH226821   1.631   0.503  10.993  0.5677  0.5932  0.7089
 1777TIP3    H126822   1.561   0.464  11.046  0.6734 -0.3762  0.1520
 1777TIP3    H226823   1.585   0.563  10.934 -0.0483 -1.3833 -0.9128
 1778TIP3   OH226824   4.613   5.239  15.351  0.3665  0.2721  0.4956
 1778TIP3    H126825   4.569   5.162  15.316  2.1499 -0.2415 -0.7670
 1778TIP3    H226826   4.705   5.212  15.360  0.5927  1.4682  2.4485
 1779TIP3   OH226827   5.806   5.576  12.788 -0.2133  0.4149 -0.2727
 1779TIP3    H126828   5.840   5.662  12.764 -2.1927  1.7114  1.2671
 1779TIP3    H226829   5.722   5.569  12.743 -0.1017 -0.7184 -0.3510
 1780TIP3   OH226830   3.919   2.875   2.464  0.5945 -0.2761 -0.6162
 1780TIP3    H126831   3.876   2.959   2.480  0.8979 -0.5836  2.3123
 1780TIP3    H226832   4.011   2.896   2.452  0.9280 -0.2326  1.6504
 1781TIP3   OH226833   3.440   4.835   2.803  0.6263 -0.2548 -0.2030
 1781TIP3    H126834   3.384   4.840   2.725  0.2939 -3.9675 -0.3876
 1781TIP3    H226835   3.526   4.864   2.772 -0.3213  2.1376 -0.8275
 1782TIP3   OH226836   2.753   2.033  15.047  0.7292 -0.0052 -0.0883
 1782TIP3    H126837   2.793   2.114  15.014  0.5333  0.5848  1.0626
 1782TIP3    H226838   2.778   2.031  15.140 -1.1419 -0.0757  0.4591
 1783TIP3   OH226839   1.140   3.267  16.522  0.5333 -0.3072  0.0532
 1783TIP3    H126840   1.080   3.257  16.596  1.5518  1.6628  1.2306
 1783TIP3    H226841   1.109   3.204  16.457 -0.8742 -1.5526  1.8416
 1784TIP3   OH226842   2.315   6.043  14.255  0.0005  0.9354 -0.4500
 1784TIP3    H126843   2.375   6.116  14.247 -0.7624  1.9004  1.7817
 1784TIP3    H226844   2.229   6.079  14.230 -0.0760  0.2656 -1.1872
 1785TIP3   OH226845   5.133   6.260  16.879 -0.5440 -0.4714  0.4656
 1785TIP3    H126846   5.102   6.300  16.798 -1.3595  3.1560  2.3861
 1785TIP3    H226847   5.055   6.222  16.919 -0.1234 -2.3570 -0.3747
 1786TIP3   OH226848   3.185   6.303  13.452 -0.2003  0.3625 -0.0109
 1786TIP3    H126849   3.239   6.232  13.418  0.5163  0.8666  0.0508
 1786TIP3    H226850   3.104   6.298  13.402 -0.9826 -1.7229  1.3102
 1787TIP3   OH226851   1.075   6.287  13.321 -0.2827  0.1367  0.0890
 1787TIP3    H126852   1.037   6.355  13.265 -1.4151 -0.2955  0.2977
 1787TIP3    H226853   1.164   6.277  13.289  0.0536  2.0173  0.3479
 1788TIP3   OH226854   4.228   2.766  15.097  0.4305  0.0830 -0.2159
 1788TIP3    H126855   4.224   2.854  15.058  0.7828 -0.8154 -2.4370
 1788TIP3    H226856   4.223   2.782  15.191  0.7824  2.5053 -0.5246
 1789TIP3   OH226857   1.499   2.263  15.735  0.5748 -0.4087 -0.2434
 1789TIP3    H126858   1.460   2.322  15.671  1.3713 -1.7770 -2.0607
 1789TIP3    H226859   1.563   2.318  15.782  0.8362  0.3490 -1.4392
 1790TIP3   OH226860   4.485   5.163  15.874 -0.3439  0.0100  0.2195
 1790TIP3    H126861   4.496   5.217  15.797  0.7724 -0.8854 -0.2760
 1790TIP3    H226862   4.568   5.116  15.883 -0.2124  0.5573  2.3412
 1791TIP3   OH226863   4.802   3.132  14.371 -0.0594  0.5046 -0.8951
 1791TIP3    H126864   4.847   3.074  14.311  1.3006  1.6391 -1.0303
 1791TIP3    H226865   4.846   3.120  14.455  0.3229  1.3883 -0.9512
 1792TIP3   OH226866   4.630   3.546  14.015 -0.0985 -0.0955 -0.0513
 1792TIP3    H126867   4.661   3.623  13.967  0.3691 -0.2080  0.0743
 1792TIP3    H226868   4.535   3.561  14.024 -0.3879 -0.5406 -1.8727
 1793TIP3   OH226869   1.142   6.144   3.731 -0.5293  0.2822  0.3624
 1793TIP3    H126870   1.201   6.079   3.770 -1.6954 -0.2892  1.2041
 1793TIP3    H226871   1.201   6.211   3.695  0.7264 -1.4129 -0.9076
 1794TIP3   OH226872   6.362   0.302   3.136  0.4479 -0.1741  0.5282
 1794TIP3    H126873   6.353   0.351   3.054  0.6413 -0.4384  0.3459
 1794TIP3    H226874   6.322   0.358   3.202 -1.7614 -0.9264 -0.1066
 1795TIP3   OH226875   0.585   1.151  10.997 -0.3045  0.0221 -0.0425
 1795TIP3    H126876   0.514   1.095  10.966 -0.5361  0.8092 -0.9603
 1795TIP3    H226877   0.624   1.187  10.918 -0.6386  1.7546  0.5439
 1796TIP3   OH226878   1.580   2.199   1.044 -0.3690  0.7884 -0.2960
 1796TIP3    H126879   1.508   2.228   1.100  0.2018  2.0493 -0.1813
 1796TIP3    H226880   1.537   2.169   0.963 -1.1058  0.1690  0.3088
 1797TIP3   OH226881   1.540   1.144   3.213 -0.4477  0.3802  0.6226
 1797TIP3    H126882   1.482   1.187   3.151  0.9385  0.5885 -0.5706
 1797TIP3    H226883   1.524   1.190   3.296 -0.7763  1.5461 -0.0592
 1798TIP3   OH226884   1.211   3.562   4.931 -0.3769 -0.3710  0.2786
 1798TIP3    H126885   1.148   3.490   4.927  0.3713 -1.0228 -2.9947
 1798TIP3    H226886   1.167   3.630   4.981 -3.1361 -1.3276 -0.6662
 1799TIP3   OH226887   4.736   4.594   1.673 -0.0735  0.1072 -0.1745
 1799TIP3    H126888   4.751   4.509   1.632  1.3715  0.0303  0.4423
 1799TIP3    H226889   4.661   4.630   1.627 -1.1309 -1.7737 -0.0134
 1800TIP3   OH226890   6.449   1.992  12.917 -0.7417 -0.8239 -0.2272
 1800TIP3    H126891   6.523   2.042  12.881 -0.9308  0.8842  1.5835
 1800TIP3    H226892   6.372   2.032  12.877 -0.8315 -0.3715  0.3785
 1801TIP3   OH226893   2.037   1.256  13.769  0.1331  0.6227  0.2632
 1801TIP3    H126894   2.110   1.297  13.815  1.1155 -0.1514 -0.5612
 1801TIP3    H226895   2.011   1.319  13.702  0.3190  0.7378  0.2996
 1802TIP3   OH226896   3.873   2.313   5.120 -0.2793 -0.0260  0.1084
 1802TIP3    H126897   3.901   2.358   5.199  0.3909 -0.2409  0.0056
 1802TIP3    H226898   3.955   2.296   5.072 -0.7267  0.7336 -0.9687
 1803TIP3   OH226899   3.724   5.826   3.976  0.5485 -0.4806  0.3961
 1803TIP3    H126900   3.797   5.764   3.969  1.8061  0.6431  2.5350
 1803TIP3    H226901   3.675   5.796   4.053  0.1442  0.1447  0.3877
 1804TIP3   OH226902   0.889   3.699   6.110 -0.6246  0.3515 -0.2513
 1804TIP3    H126903   0.873   3.635   6.179  0.9948  0.0701 -0.1023
 1804TIP3    H226904   0.879   3.784   6.152  0.0077  0.1815  0.2505
 1805TIP3   OH226905   2.117   1.576   3.447 -0.5694 -0.0858  0.1596
 1805TIP3    H126906   2.147   1.660   3.413 -1.2852 -0.4968 -1.5968
 1805TIP3    H226907   2.195   1.521   3.446 -0.6431 -0.2107 -1.3138
 1806TIP3   OH226908   4.959   5.328   4.620  0.3197 -0.1657 -0.8537
 1806TIP3    H126909   4.896   5.270   4.577  0.3357  0.3732 -1.6274
 1806TIP3    H226910   5.043   5.308   4.578  0.3027  0.4959 -1.2273
 1807TIP3   OH226911   2.883   4.544  14.602 -0.4092 -0.0949 -0.3755
 1807TIP3    H126912   2.904   4.566  14.511 -0.8437  0.7166 -0.2876
 1807TIP3    H226913   2.789   4.560  14.610 -0.0851  1.5627  0.6755
 1808TIP3   OH226914   6.149   1.230   4.009 -0.0674 -0.2804  0.3549
 1808TIP3    H126915   6.223   1.291   4.012 -0.9658  0.8350  3.1811
 1808TIP3    H226916   6.142   1.198   4.099 -2.5259 -0.9446 -0.0214
 1809TIP3   OH226917   0.513   0.509  15.787  0.2794 -0.7173 -0.5248
 1809TIP3    H126918   0.598   0.467  15.773  0.1209 -1.6042  0.9691
 1809TIP3    H226919   0.468   0.452  15.848 -1.1795  0.0538 -0.8414
 1810TIP3   OH226920   6.732   2.471   3.290 -0.2834  0.4222 -0.0385
 1810TIP3    H126921   6.666   2.535   3.314  1.2025  2.2815 -0.6044
 1810TIP3    H226922   6.714   2.450   3.199 -0.6176  0.2428  0.0698
 1811TIP3   OH226923   4.051   0.593  13.724  0.3227  0.2663 -0.0712
 1811TIP3    H126924   4.039   0.546  13.806  1.8729  1.0540  0.6527
 1811TIP3    H226925   3.963   0.623  13.700 -0.2231 -0.4019  1.0278
 1812TIP3   OH226926   6.050   2.603   4.878  0.4957 -0.6179 -0.4367
 1812TIP3    H126927   5.971   2.552   4.896  0.4350 -0.6409 -0.7640
 1812TIP3    H226928   6.078   2.635   4.964 -0.9947  1.0617 -0.4974
 1813TIP3   OH226929   3.711   5.788  14.604 -0.9104 -0.0762  0.9527
 1813TIP3    H126930   3.652   5.743  14.543 -0.9686 -0.9487  1.6370
 1813TIP3    H226931   3.772   5.835  14.547 -2.3209  0.9447  0.2272
 1814TIP3   OH226932   5.997   3.792   1.705 -0.3354  0.1315  0.5582
 1814TIP3    H126933   5.905   3.800   1.679 -0.3155 -3.1992 -0.9864
 1814TIP3    H226934   6.015   3.874   1.751 -4.3396  0.5333  1.8514
 1815TIP3   OH226935   0.199   1.111  16.891 -0.4625  0.6072 -0.6068
 1815TIP3    H126936   0.267   1.132  16.955  0.3324  1.2731 -1.6383
 1815TIP3    H226937   0.246   1.066  16.821 -1.0193  1.4288 -1.5136
 1816TIP3   OH226938   2.998   3.728   5.289  0.3680 -0.0145 -0.1572
 1816TIP3    H126939   3.088   3.699   5.302  0.7108  1.6648  1.9473
 1816TIP3    H226940   2.951   3.696   5.366 -0.5207  0.2736 -0.5635
 1817TIP3   OH226941   0.671   6.836   1.483 -0.3968 -0.5739  0.2764
 1817TIP3    H126942   0.590   6.817   1.436 -1.2730  0.7870  1.1613
 1817TIP3    H226943   0.681   6.762   1.543 -1.3331 -0.4522  0.6015
 1818TIP3   OH226944   3.581   3.685   2.961 -0.1198  0.2942 -0.2846
 1818TIP3    H126945   3.632   3.616   2.919  1.2789  0.9678  0.2429
 1818TIP3    H226946   3.504   3.695   2.906 -0.2912 -1.5753 -0.4494
 1819TIP3   OH226947   2.319   3.488   0.094 -0.7760  0.1709 -0.1521
 1819TIP3    H126948   2.255   3.454   0.156 -0.4064  0.3580  0.3371
 1819TIP3    H226949   2.395   3.512   0.148  0.6657 -2.2571 -0.9588
 1820TIP3   OH226950   2.876   2.861   1.317 -0.3321 -0.0784  0.3116
 1820TIP3    H126951   2.815   2.875   1.244 -0.3865 -3.0036 -0.3218
 1820TIP3    H226952   2.951   2.818   1.277  1.0343  1.0299  1.5495
 1821TIP3   OH226953   0.287   2.996   5.846  0.0768  0.4709  0.1956
 1821TIP3    H126954   0.314   2.911   5.878 -0.2784  0.2219 -0.1487
 1821TIP3    H226955   0.250   3.041   5.922  0.6685  0.4890  0.4734
 1822TIP3   OH226956   1.584   1.488   3.211  0.0653 -0.5140 -0.9050
 1822TIP3    H126957   1.500   1.524   3.239 -0.4959 -2.4750  0.0983
 1822TIP3    H226958   1.642   1.501   3.286  0.5304  0.3456 -1.3964
 1823TIP3   OH226959   6.848   6.751   6.436  0.4138 -0.7487 -0.1138
 1823TIP3    H126960   6.871   6.709   6.519 -1.0026 -1.7812 -0.2084
 1823TIP3    H226961   6.932   6.778   6.399  1.1222 -0.8721  1.3295
 1824TIP3   OH226962   3.474   6.766  13.738 -0.1699  0.1817 -0.3021
 1824TIP3    H126963   3.461   6.731  13.650 -2.4822 -1.2935  0.5350
 1824TIP3    H226964   3.390   6.806  13.761  0.7684  1.6770  0.8029
 1825TIP3   OH226965   5.614   0.206  12.498  0.2653 -0.4256  0.4715
 1825TIP3    H126966   5.590   0.176  12.586  0.5977  1.3566  1.2231
 1825TIP3    H226967   5.679   0.275  12.514  0.1893  0.0549 -1.1672
 1826TIP3   OH226968   5.365   4.869  11.397  0.2304  0.4570  0.4586
 1826TIP3    H126969   5.358   4.798  11.461 -2.7817 -1.6174 -1.8911
 1826TIP3    H226970   5.439   4.845  11.342  0.0887 -0.1200  0.5145
 1827TIP3   OH226971   5.718   6.610  12.715 -0.2673 -0.2895 -0.0302
 1827TIP3    H126972   5.626   6.586  12.726 -0.5414  0.9204  0.4648
 1827TIP3    H226973   5.765   6.528  12.725 -1.1674 -0.6575  1.6522
 1828TIP3   OH226974   0.760   3.016  16.944 -0.5193  0.3417  0.1997
 1828TIP3    H126975   0.850   3.019  16.974 -0.5054 -1.5496  0.4896
 1828TIP3    H226976   0.725   2.934  16.980 -1.3135 -0.7092 -2.6697
 1829TIP3   OH226977   5.286   1.347   3.449  0.2286 -0.1811 -0.3561
 1829TIP3    H126978   5.235   1.346   3.530 -0.2217 -2.0801 -0.6074
 1829TIP3    H226979   5.221   1.331   3.380  0.6891  0.8283 -1.0471
 1830TIP3   OH226980   2.081   5.082  15.140  0.1729 -0.3270 -0.0257
 1830TIP3    H126981   2.109   5.157  15.193 -2.0146  1.0157 -0.6617
 1830TIP3    H226982   2.030   5.120  15.069  0.8136 -2.2992 -1.6403
 1831TIP3   OH226983   3.914   0.884  10.427  0.2545 -0.6520  0.0206
 1831TIP3    H126984   3.967   0.963  10.419  0.7342 -0.9563  0.1544
 1831TIP3    H226985   3.974   0.812  10.407 -0.8664 -0.8464 -3.2232
 1832TIP3   OH226986   0.239   0.283   6.410 -0.7692  0.0669  0.0646
 1832TIP3    H126987   0.165   0.343   6.405  0.6544  1.8272 -1.3733
 1832TIP3    H226988   0.223   0.231   6.489 -2.4295  1.8700  0.9942
 1833TIP3   OH226989   4.015   2.418   3.113  0.1780  0.1179  0.8167
 1833TIP3    H126990   4.095   2.469   3.128  0.4618 -0.2916  0.7243
 1833TIP3    H226991   4.044   2.327   3.115  0.0908 -0.0152 -1.3761
 1834TIP3   OH226992   2.974   4.911   5.191 -0.0895  0.5391 -0.0073
 1834TIP3    H126993   2.992   4.822   5.162  1.6664  0.9405 -0.3003
 1834TIP3    H226994   2.923   4.950   5.121 -1.1990 -0.3352  0.2968
 1835TIP3   OH226995   6.399   3.816   3.621  0.2900  0.1711 -0.7618
 1835TIP3    H126996   6.476   3.848   3.669  0.5988 -0.1284 -1.0488
 1835TIP3    H226997   6.436   3.767   3.548 -0.1618 -1.0537 -0.1998
 1836TIP3   OH226998   4.168   3.392  14.041 -0.0028  0.5540 -0.2143
 1836TIP3    H126999   4.227   3.454  14.084 -0.8831 -0.2071  2.2538
 1836TIP3    H227000   4.084   3.405  14.084 -0.3974 -1.8030 -0.1655
 1837TIP3   OH227001   6.066   1.525   3.187 -0.3755 -0.0303 -0.3961
 1837TIP3    H127002   6.052   1.601   3.131 -2.0563 -0.5328 -0.7210
 1837TIP3    H227003   6.088   1.454   3.127  1.4809  0.2165 -0.0713
 1838TIP3   OH227004   1.561   0.370   3.496  0.4941  0.4461 -0.0123
 1838TIP3    H127005   1.559   0.414   3.581  0.1821  1.0926 -0.3425
 1838TIP3    H227006   1.468   0.359   3.473  0.5721  0.9138 -0.5792
 1839TIP3   OH227007   2.391   0.710  14.041 -0.1314 -0.4268 -0.5535
 1839TIP3    H127008   2.393   0.805  14.049  0.7520 -0.4953  0.1069
 1839TIP3    H227009   2.298   0.689  14.036 -0.4185  0.3430  0.9173
 1840TIP3   OH227010   4.893   0.390  11.367 -0.3341 -0.0252  0.0330
 1840TIP3    H127011   4.821   0.369  11.425 -0.7919  1.4986  0.0601
 1840TIP3    H227012   4.868   0.473  11.325  0.1051 -0.8958 -2.1189
 1841TIP3   OH227013   1.225   3.151  14.399 -0.2531 -0.3851 -1.1057
 1841TIP3    H127014   1.280   3.227  14.421 -0.2055 -0.9512  0.9248
 1841TIP3    H227015   1.279   3.100  14.339  0.5560  0.1557 -0.8669
 1842TIP3   OH227016   4.092   3.799   1.637 -0.0039  0.7812  0.0219
 1842TIP3    H127017   4.062   3.867   1.698 -0.7821 -0.1076  0.6615
 1842TIP3    H227018   4.094   3.842   1.552 -1.8243  1.2590  0.1829
 1843TIP3   OH227019   4.957   3.052   2.767 -0.0918 -0.0823 -0.4412
 1843TIP3    H127020   4.903   2.982   2.730  0.2055 -0.0956 -0.8538
 1843TIP3    H227021   5.014   3.079   2.695  2.6970 -2.2297  0.7864
 1844TIP3   OH227022   4.070   5.473  14.070 -0.3375  0.7362 -0.2822
 1844TIP3    H127023   4.025   5.435  13.995  0.0639 -1.5706  0.5717
 1844TIP3    H227024   4.004   5.476  14.139  0.3822 -1.5051  0.6005
 1845TIP3   OH227025   0.239   4.899  15.090  0.5402  0.0513 -0.0497
 1845TIP3    H127026   0.261   4.850  15.170 -0.2214  0.2542  0.2868
 1845TIP3    H227027   0.143   4.901  15.088  0.5128 -0.8379 -1.5127
 1846TIP3   OH227028   5.444   5.535   5.675 -0.0317  0.3622  0.1797
 1846TIP3    H127029   5.507   5.607   5.671  1.2227 -0.4737  2.6564
 1846TIP3    H227030   5.499   5.456   5.671 -1.3035 -0.5129 -1.6431
 1847TIP3   OH227031   1.798   2.353   2.263 -0.9027 -0.0773  0.4320
 1847TIP3    H127032   1.720   2.354   2.207 -0.1889  2.7352 -0.6968
 1847TIP3    H227033   1.789   2.430   2.319  0.7872 -0.0411  0.7226
 1848TIP3   OH227034   2.975   4.734  10.925  0.1950  0.0064 -0.1416
 1848TIP3    H127035   3.024   4.653  10.910  0.1194 -0.1716  0.5660
 1848TIP3    H227036   2.955   4.766  10.837 -0.0902 -0.9296 -0.4232
 1849TIP3   OH227037   2.667   2.865  11.675  0.1580 -0.1112  0.2678
 1849TIP3    H127038   2.697   2.827  11.592 -2.6072  3.4913 -2.7505
 1849TIP3    H227039   2.725   2.939  11.690  0.8567 -0.9323  1.9144
 1850TIP3   OH227040   0.948   2.885   2.122 -0.0736 -0.1421 -0.0546
 1850TIP3    H127041   0.980   2.862   2.209  1.0280  0.6349 -0.2367
 1850TIP3    H227042   0.979   2.974   2.108 -0.0927 -0.3224 -1.3123
 1851TIP3   OH227043   0.631   5.030   3.839  0.0290  0.3974 -0.0507
 1851TIP3    H127044   0.604   4.978   3.763  1.0777 -1.0056  0.4902
 1851TIP3    H227045   0.573   5.002   3.909  0.1296  0.4723  0.0636
 1852TIP3   OH227046   5.946   1.940  16.612 -0.1492  0.5453 -0.4969
 1852TIP3    H127047   6.024   1.918  16.664  0.7033  1.6191 -1.2760
 1852TIP3    H227048   5.981   1.967  16.527 -1.4020  0.8254 -0.9400
 1853TIP3   OH227049   2.575   5.041  16.815  0.5189 -0.0913 -0.0505
 1853TIP3    H127050   2.581   5.090  16.897 -2.0093 -1.1720  0.8732
 1853TIP3    H227051   2.537   4.957  16.839 -0.1817 -0.4985 -2.2978
 1854TIP3   OH227052   0.622   4.682   1.396  0.0614 -0.4382  0.1793
 1854TIP3    H127053   0.642   4.684   1.490  1.6419 -0.6413 -0.1189
 1854TIP3    H227054   0.612   4.589   1.376  0.6699 -0.4683 -0.0157
 1855TIP3   OH227055   6.357   5.127   4.281  0.3865 -0.0498  0.3079
 1855TIP3    H127056   6.405   5.049   4.255  0.5950 -0.6949  2.4104
 1855TIP3    H227057   6.274   5.122   4.234  0.6244 -1.2620  0.0073
 1856TIP3   OH227058   5.535   1.039   3.171 -0.2382  0.3735  0.0088
 1856TIP3    H127059   5.533   1.054   3.266  0.8223  0.3613  0.0448
 1856TIP3    H227060   5.600   0.969   3.159 -0.4565  0.2851 -0.7217
 1857TIP3   OH227061   6.376   1.359   0.834  0.1972 -0.5247 -0.4961
 1857TIP3    H127062   6.397   1.287   0.775  3.0622 -0.9837  0.8968
 1857TIP3    H227063   6.340   1.318   0.912 -1.7076 -0.0749 -1.0853
 1858TIP3   OH227064   6.594   2.082   0.630 -0.1736 -0.1394  0.0254
 1858TIP3    H127065   6.623   2.008   0.576 -1.8839  1.0992 -2.8263
 1858TIP3    H227066   6.666   2.145   0.624  0.4286 -0.7336  0.7891
 1859TIP3   OH227067   2.973   1.594  16.284 -0.1274 -0.0388 -0.1813
 1859TIP3    H127068   3.042   1.576  16.220  0.0116 -0.7284  0.1526
 1859TIP3    H227069   3.004   1.553  16.365 -0.0797  1.2088  0.4720
 1860TIP3   OH227070   0.261   0.905  13.552 -0.1120 -0.3978  0.2401
 1860TIP3    H127071   0.341   0.907  13.499  0.5397 -0.4670  1.1890
 1860TIP3    H227072   0.290   0.871  13.637 -1.0237  0.2591  0.8274
 1861TIP3   OH227073   0.186   5.896   3.012 -0.4658  0.8127 -0.2201
 1861TIP3    H127074   0.210   5.987   3.000  1.4786  0.4544  0.6339
 1861TIP3    H227075   0.214   5.874   3.101 -0.4448 -0.7485 -0.5705
 1862TIP3   OH227076   6.753   2.855  12.068 -0.0027 -0.0941 -0.7352
 1862TIP3    H127077   6.816   2.926  12.060 -0.4344  0.2878 -0.7840
 1862TIP3    H227078   6.751   2.815  11.981  1.6689 -1.4138 -0.2298
 1863TIP3   OH227079   4.487   3.907   3.669  0.2429 -0.3595  0.0806
 1863TIP3    H127080   4.431   3.933   3.597 -0.9030 -1.4486  0.5380
 1863TIP3    H227081   4.542   3.837   3.632  0.9478  0.3415 -0.2211
 1864TIP3   OH227082   6.747   3.752   3.664 -0.2775 -0.4904  0.2881
 1864TIP3    H127083   6.700   3.731   3.745  2.3186  0.1797  2.0660
 1864TIP3    H227084   6.730   3.845   3.650  0.3163 -0.2914  0.8286
 1865TIP3   OH227085   4.189   4.014   2.582 -1.0330  0.4521  0.4021
 1865TIP3    H127086   4.283   4.030   2.576 -0.9604 -0.2184 -0.5887
 1865TIP3    H227087   4.175   3.932   2.535 -1.9641 -0.0915  1.5590
 1866TIP3   OH227088   3.250   6.798   2.296 -0.6117 -0.5049  0.2038
 1866TIP3    H127089   3.346   6.803   2.288 -0.5479 -0.2466  1.0946
 1866TIP3    H227090   3.228   6.864   2.361 -1.5731  0.6415 -1.2223
 1867TIP3   OH227091   4.037   1.407  13.237 -0.6232  0.0207 -0.3561
 1867TIP3    H127092   4.100   1.477  13.251  2.0273 -2.1383 -0.7092
 1867TIP3    H227093   3.952   1.448  13.253  0.8186  3.0717  0.2027
 1868TIP3   OH227094   0.914   6.499   1.679 -0.3894 -0.6142  0.2360
 1868TIP3    H127095   1.001   6.531   1.701 -0.9335  0.2417  1.2452
 1868TIP3    H227096   0.928   6.408   1.650  0.8456 -0.4213  0.1894
 1869TIP3   OH227097   1.116   4.540   5.912 -0.0704  0.1623 -0.2152
 1869TIP3    H127098   1.026   4.572   5.914 -0.4014 -0.7476 -0.1011
 1869TIP3    H227099   1.156   4.577   5.991 -0.4735  0.2094 -0.0284
 1870TIP3   OH227100   4.235   2.143  15.354 -0.1376 -0.1378 -0.2505
 1870TIP3    H127101   4.179   2.068  15.332 -1.1069  0.8063 -1.1011
 1870TIP3    H227102   4.321   2.119  15.320 -0.4861 -0.7629 -0.7229
 1871TIP3   OH227103   6.583   2.296  10.411 -0.1152  0.5586  0.1211
 1871TIP3    H127104   6.519   2.356  10.374  1.1262  0.8242 -1.7393
 1871TIP3    H227105   6.582   2.220  10.353  0.6241  0.1883  0.5754
 1872TIP3   OH227106   3.029   2.245  15.835 -0.1297  0.2765 -0.2591
 1872TIP3    H127107   2.952   2.282  15.793  0.0591 -0.4301 -1.2555
 1872TIP3    H227108   3.063   2.181  15.772  0.3280 -0.5994  0.8357
 1873TIP3   OH227109   6.444   6.259  13.707 -0.0134 -0.6603  0.4223
 1873TIP3    H127110   6.422   6.346  13.741  0.4038 -0.3569 -0.0570
 1873TIP3    H227111   6.423   6.199  13.779  0.2995 -0.0984  0.9990
 1874TIP3   OH227112   6.360   2.330  16.937  0.0519 -0.0641 -0.1993
 1874TIP3    H127113   6.266   2.316  16.948 -0.3264  2.1090 -0.2648
 1874TIP3    H227114   6.393   2.334  17.027  0.1466 -1.1300 -0.1790
 1875TIP3   OH227115   1.269   1.760   2.975  0.0043 -0.0700  0.0927
 1875TIP3    H127116   1.277   1.852   3.001  0.4007  0.0805 -0.5293
 1875TIP3    H227117   1.178   1.752   2.946  0.4030  0.5770 -1.4554
 1876TIP3   OH227118   4.624   0.249   4.754  0.0879  0.0043  0.0160
 1876TIP3    H127119   4.713   0.213   4.751  0.0926 -0.3464  2.3947
 1876TIP3    H227120   4.589   0.233   4.667  2.0293 -0.7076 -0.6940
 1877TIP3   OH227121   5.787   1.404   4.314 -0.2360 -0.2049 -0.2697
 1877TIP3    H127122   5.767   1.498   4.310  1.1731  0.0799 -1.6819
 1877TIP3    H227123   5.770   1.380   4.405 -2.0567  1.0628 -0.2157
 1878TIP3   OH227124   4.389   4.455  14.105  0.1334  0.3071 -0.2338
 1878TIP3    H127125   4.406   4.374  14.055  2.7900 -0.2220  1.2844
 1878TIP3    H227126   4.371   4.424  14.194 -0.7132  1.3593 -0.0261
 1879TIP3   OH227127   5.993   5.173   4.898 -0.0257 -0.4803 -0.6815
 1879TIP3    H127128   6.019   5.256   4.858 -0.0122 -0.5508 -0.8194
 1879TIP3    H227129   5.915   5.146   4.849 -0.0964 -0.4949 -0.5641
 1880TIP3   OH227130   6.041   5.354  12.536 -0.2444  0.3432  0.4639
 1880TIP3    H127131   6.120   5.374  12.587 -0.2145  1.3345  0.0503
 1880TIP3    H227132   6.058   5.393  12.450 -0.4011 -1.0699 -0.2465
 1881TIP3   OH227133   6.012   6.016   1.945  0.3693  0.3102  0.1794
 1881TIP3    H127134   5.961   6.050   1.872  0.1939 -0.3476 -0.0145
 1881TIP3    H227135   5.950   5.966   1.997  0.6594  0.1278  0.3549
 1882TIP3   OH227136   2.004   1.951   0.596  0.1314 -0.2168 -0.0638
 1882TIP3    H127137   2.077   2.009   0.574 -1.2631  1.7151  0.0682
 1882TIP3    H227138   1.983   1.907   0.515  0.6645  0.1365 -0.4063
 1883TIP3   OH227139   4.267   3.375   1.928 -0.6593  0.4305  0.0081
 1883TIP3    H127140   4.266   3.470   1.942 -0.5453  0.6177 -1.1521
 1883TIP3    H227141   4.325   3.363   1.853 -0.3624 -0.5972  0.3963
 1884TIP3   OH227142   0.880   4.175  10.677 -0.7669 -0.2572 -0.0753
 1884TIP3    H127143   0.787   4.151  10.684 -1.0582  0.8087 -0.2249
 1884TIP3    H227144   0.881   4.256  10.627  0.3485 -0.9052 -1.1774
 1885TIP3   OH227145   2.709   5.148  11.390  0.1977 -0.2235 -0.3545
 1885TIP3    H127146   2.675   5.086  11.326  1.1934 -0.4485 -0.6833
 1885TIP3    H227147   2.775   5.198  11.342  0.9794 -0.4079  0.4917
 1886TIP3   OH227148   4.299   6.781  13.802 -0.5648 -0.0776 -0.2807
 1886TIP3    H127149   4.294   6.685  13.799  0.0069 -0.0839 -2.6693
 1886TIP3    H227150   4.386   6.798  13.839 -0.6248 -0.4754  0.0593
 1887TIP3   OH227151   2.652   2.124  15.897  0.2375  0.0997  0.4019
 1887TIP3    H127152   2.660   2.210  15.940 -0.2134  0.0178  0.6505
 1887TIP3    H227153   2.704   2.065  15.951  0.5639  0.2146  0.2204
 1888TIP3   OH227154   3.940   3.571  13.317 -0.0607 -0.2434 -0.1861
 1888TIP3    H127155   3.878   3.620  13.370 -0.0648  0.1185 -0.5209
 1888TIP3    H227156   4.024   3.617  13.329  0.2034 -0.8691  0.4551
 1889TIP3   OH227157   3.619   6.096  11.894  0.0221 -0.0189  0.1158
 1889TIP3    H127158   3.637   6.050  11.976  1.2538 -0.4427 -0.3725
 1889TIP3    H227159   3.528   6.074  11.873 -1.3496  2.3433  2.8006
 1890TIP3   OH227160   0.274   4.109  15.115 -0.0775  0.1405 -0.4559
 1890TIP3    H127161   0.290   4.120  15.208  2.3035 -0.5824 -0.7062
 1890TIP3    H227162   0.278   4.015  15.100  1.4961  0.3386 -1.5271
 1891TIP3   OH227163   0.636   4.775   0.257 -0.1087  0.6230  0.2850
 1891TIP3    H127164   0.607   4.695   0.301 -1.3237  2.0193  2.1577
 1891TIP3    H227165   0.703   4.810   0.315  1.7857  0.0961 -1.4471
 1892TIP3   OH227166   2.960   6.203  14.830  0.8731 -0.1821 -0.4657
 1892TIP3    H127167   3.039   6.223  14.779  2.8710  0.6358  2.6306
 1892TIP3    H227168   2.972   6.252  14.911 -1.5865 -2.1213  1.1996
 1893TIP3   OH227169   3.229   5.606   4.865 -0.4615 -0.2012  0.0666
 1893TIP3    H127170   3.178   5.559   4.931  2.3619 -2.5140  0.7728
 1893TIP3    H227171   3.191   5.579   4.781 -1.6776 -0.2168  0.6075
 1894TIP3   OH227172   6.205   2.364   0.133  0.7225 -0.1647 -0.1212
 1894TIP3    H127173   6.133   2.353   0.071  0.8646 -1.0947 -0.1423
 1894TIP3    H227174   6.173   2.427   0.197 -0.1788 -0.7010 -0.0386
 1895TIP3   OH227175   3.365   1.765  16.296 -0.7594 -0.5909  0.0167
 1895TIP3    H127176   3.291   1.817  16.325  1.1099  1.1980  1.9193
 1895TIP3    H227177   3.384   1.797  16.207 -0.6254  0.9069  0.5610
 1896TIP3   OH227178   1.430   6.625   5.959 -0.0257 -0.1318  0.4338
 1896TIP3    H127179   1.391   6.698   5.912 -0.3250 -0.7401 -0.2812
 1896TIP3    H227180   1.495   6.666   6.016 -2.7804  1.1385  2.9517
 1897TIP3   OH227181   4.353   5.899   0.460  0.0984  0.0372  0.1315
 1897TIP3    H127182   4.322   5.912   0.370 -0.4780 -0.7047  0.2136
 1897TIP3    H227183   4.280   5.927   0.514  0.4744  0.5536  0.3790
 1898TIP3   OH227184   1.796   1.325   1.860  0.3101  0.4382 -0.9486
 1898TIP3    H127185   1.716   1.342   1.809 -0.2487  0.3173 -0.1316
 1898TIP3    H227186   1.816   1.234   1.842  0.2553  0.4614 -1.1373
 1899TIP3   OH227187   6.268   4.711   1.265  0.4056  0.2527  0.0948
 1899TIP3    H127188   6.312   4.757   1.337 -1.3397 -0.6269  1.8184
 1899TIP3    H227189   6.250   4.624   1.300 -1.6094  0.2069 -0.9486
 1900TIP3   OH227190   0.355   0.935  12.681 -0.0275  0.2637  0.4583
 1900TIP3    H127191   0.376   0.844  12.659  0.8066  0.3565  0.8451
 1900TIP3    H227192   0.440   0.975  12.700 -0.1819  1.5832 -1.3684
 1901TIP3   OH227193   2.641   2.719   5.658 -0.6147  0.3629 -0.3760
 1901TIP3    H127194   2.681   2.805   5.666 -1.6688  0.7880  0.4875
 1901TIP3    H227195   2.575   2.729   5.589  0.4821 -0.2560 -1.5736
 1902TIP3   OH227196   4.381   0.429  16.646 -0.1355  0.5792 -0.5689
 1902TIP3    H127197   4.337   0.507  16.679 -0.1124  0.6260 -0.6510
 1902TIP3    H227198   4.322   0.394  16.579 -0.0382  0.6514 -0.6918
 1903TIP3   OH227199   5.225   0.804  16.587 -0.0783  0.7067  0.1373
 1903TIP3    H127200   5.247   0.796  16.494  3.1558 -0.6163  0.8757
 1903TIP3    H227201   5.170   0.728  16.606  2.0650 -0.9957 -0.0855
 1904TIP3   OH227202   5.495   3.437  11.987  0.3495  0.1740 -0.5128
 1904TIP3    H127203   5.410   3.407  11.954  0.0857 -1.7671  1.6971
 1904TIP3    H227204   5.478   3.466  12.076  1.8089  0.8925 -0.4397
 1905TIP3   OH227205   2.657   4.211   4.933  0.4635  0.3490 -0.2343
 1905TIP3    H127206   2.612   4.141   4.885  1.1513 -0.2736 -0.0094
 1905TIP3    H227207   2.676   4.277   4.867  1.9197 -0.7553 -1.0101
 1906TIP3   OH227208   5.321   3.153   6.151  0.4554 -0.0146  0.2473
 1906TIP3    H127209   5.404   3.105   6.141 -0.5877 -2.2943  1.6803
 1906TIP3    H227210   5.290   3.129   6.238 -2.2532 -0.1321 -0.6617
 1907TIP3   OH227211   4.490   0.074   1.674 -0.2993 -0.6055 -0.1279
 1907TIP3    H127212   4.517   0.092   1.584  0.4947  1.1898  0.4131
 1907TIP3    H227213   4.523   0.149   1.724 -0.7488 -1.5451  1.6590
 1908TIP3   OH227214   0.319   3.123  14.060 -0.0292 -0.0404 -0.2281
 1908TIP3    H127215   0.225   3.139  14.070 -0.1498  0.1305 -1.5397
 1908TIP3    H227216   0.359   3.166  14.136 -0.7674  2.2611 -1.0679
 1909TIP3   OH227217   6.615   4.020  12.972  0.4345 -0.2115 -0.3744
 1909TIP3    H127218   6.617   3.989  13.063 -1.0783  0.2409 -0.1604
 1909TIP3    H227219   6.662   4.103  12.974 -0.7732  0.4844  0.3033
 1910TIP3   OH227220   4.961   4.437   1.955 -0.2247 -0.3988  0.2813
 1910TIP3    H127221   4.880   4.389   1.971 -1.6366  1.7558  0.0757
 1910TIP3    H227222   5.002   4.446   2.041 -0.0195 -1.7585  0.3414
 1911TIP3   OH227223   2.196   6.524   5.681  0.3760 -0.8475  0.3236
 1911TIP3    H127224   2.134   6.459   5.715  1.0329 -0.3414  2.6566
 1911TIP3    H227225   2.152   6.561   5.604 -0.9046 -2.5780  0.1569
 1912TIP3   OH227226   6.163   3.956   3.686 -0.0104  0.0546 -0.2808
 1912TIP3    H127227   6.246   3.930   3.646 -0.1182 -0.7194 -0.0178
 1912TIP3    H227228   6.112   3.994   3.614 -0.9687 -3.0469 -1.3908
 1913TIP3   OH227229   3.720   0.616  11.595 -0.2500  0.2239 -0.0302
 1913TIP3    H127230   3.720   0.697  11.647  2.6549  0.6916 -0.6243
 1913TIP3    H227231   3.788   0.563  11.635  1.1084  0.0229 -2.4648
 1914TIP3   OH227232   6.090   3.261   2.186 -0.3300  0.1386  0.1879
 1914TIP3    H127233   6.128   3.281   2.101 -0.0224  1.0767  0.5392
 1914TIP3    H227234   5.997   3.277   2.176 -0.1165  1.6199  0.4060
 1915TIP3   OH227235   4.003   4.116   1.534  0.4932 -0.1215  0.2199
 1915TIP3    H127236   4.057   4.079   1.465  0.2403 -0.9397  0.4448
 1915TIP3    H227237   3.985   4.206   1.505  1.3518 -0.0732 -0.2023
 1916TIP3   OH227238   4.633   5.966  11.943 -0.1576  0.5277  0.4900
 1916TIP3    H127239   4.653   5.929  12.029  0.3179 -1.3299 -0.3450
 1916TIP3    H227240   4.564   6.030  11.959  0.7351  1.0717  2.3862
 1917TIP3   OH227241   5.091   2.115   5.225  0.0019 -0.3409  0.0513
 1917TIP3    H127242   5.025   2.068   5.174 -0.1081  0.9871 -1.0814
 1917TIP3    H227243   5.174   2.073   5.201  0.1218  1.0823 -2.3074
 1918TIP3   OH227244   6.584   4.433  12.196  0.0535  0.0865 -0.0061
 1918TIP3    H127245   6.652   4.410  12.260 -0.7573  0.8809  1.1686
 1918TIP3    H227246   6.568   4.351  12.148 -0.9856 -1.1997  2.3999
 1919TIP3   OH227247   2.777   6.443  12.296 -0.1831 -0.3253  0.2856
 1919TIP3    H127248   2.691   6.419  12.261  1.0871 -1.1658 -2.6335
 1919TIP3    H227249   2.765   6.531  12.330 -2.4368 -0.8479  1.0391
 1920TIP3   OH227250   1.201   4.517  10.636  0.4885 -0.3524  0.0773
 1920TIP3    H127251   1.111   4.483  10.640  0.0860  0.4229 -1.6012
 1920TIP3    H227252   1.252   4.447  10.595  0.5409 -0.5641  0.4982
 1921TIP3   OH227253   6.734   2.854  15.617 -0.8967 -0.5421  0.4882
 1921TIP3    H127254   6.696   2.817  15.697 -0.6765 -0.7689  0.4894
 1921TIP3    H227255   6.827   2.833  15.623 -1.0386 -1.4924 -0.3315
 1922TIP3   OH227256   4.855   0.068  11.767 -0.3135  0.0297 -0.3426
 1922TIP3    H127257   4.784   0.042  11.709  0.1582 -0.4616 -0.7156
 1922TIP3    H227258   4.929   0.087  11.709  0.0333 -0.0459  0.0606
 1923TIP3   OH227259   2.771   1.034   4.850  0.2182  0.3313  0.1289
 1923TIP3    H127260   2.813   0.965   4.799  2.2025  0.6401  1.2550
 1923TIP3    H227261   2.721   0.987   4.916  0.7532 -0.0406  0.2757
 1924TIP3   OH227262   4.690   0.722   0.381 -1.2708  0.0041  0.2718
 1924TIP3    H127263   4.703   0.711   0.287 -0.9109 -1.7567  0.5064
 1924TIP3    H227264   4.755   0.788   0.407  1.3747 -2.2701 -0.0992
 1925TIP3   OH227265   2.495   6.012   2.533 -0.5198 -0.2912 -0.1590
 1925TIP3    H127266   2.462   5.990   2.621 -0.7817  0.4101 -0.0748
 1925TIP3    H227267   2.533   5.930   2.501  1.0132 -0.1776  1.2468
 1926TIP3   OH227268   5.325   2.472   4.631  0.3845 -0.3679  0.4605
 1926TIP3    H127269   5.328   2.376   4.629 -1.2834 -0.4513  0.3931
 1926TIP3    H227270   5.376   2.496   4.709  0.4970 -1.3280  0.6961
 1927TIP3   OH227271   3.364   1.569  16.690 -0.2033  0.9117 -0.0258
 1927TIP3    H127272   3.287   1.579  16.746 -2.1033 -0.5102 -2.1671
 1927TIP3    H227273   3.420   1.508  16.737 -0.7614  1.3110  1.2111
 1928TIP3   OH227274   4.646   2.549   1.618  0.1682  0.1699  0.0510
 1928TIP3    H127275   4.689   2.506   1.544  0.0357 -1.1808  0.7370
 1928TIP3    H227276   4.582   2.607   1.578 -0.5470 -1.2223 -0.8877
 1929TIP3   OH227277   5.055   4.735  16.413 -0.4112 -0.1516 -0.7826
 1929TIP3    H127278   5.114   4.659  16.412 -0.6165 -0.3535  0.8917
 1929TIP3    H227279   5.110   4.809  16.435  0.1319  0.5753 -4.0611
 1930TIP3   OH227280   4.652   0.597  11.655  0.3127  0.0664 -0.5160
 1930TIP3    H127281   4.636   0.644  11.737  1.8833 -1.3374  0.6911
 1930TIP3    H227282   4.566   0.569  11.626 -0.2624  0.3444  0.8538
 1931TIP3   OH227283   3.899   1.139   6.090  0.0027 -0.8408  0.8380
 1931TIP3    H127284   3.911   1.048   6.061 -0.4895 -1.2532  1.8977
 1931TIP3    H227285   3.808   1.159   6.069  0.4905 -0.0757 -0.7292
 1932TIP3   OH227286   4.624   5.287   3.051  0.5236 -0.5164 -0.1747
 1932TIP3    H127287   4.713   5.321   3.045  0.0827  0.7356  0.0204
 1932TIP3    H227288   4.568   5.366   3.052 -0.6461 -1.2808 -1.2973
 1933TIP3   OH227289   1.289   3.642  14.598 -0.3244  0.4361  0.4285
 1933TIP3    H127290   1.294   3.691  14.516  0.7112  1.2690  0.9570
 1933TIP3    H227291   1.273   3.709  14.665 -0.0152 -0.0734  1.0329
 1934TIP3   OH227292   4.888   2.941  16.373  0.2261 -0.2264 -0.0704
 1934TIP3    H127293   4.926   2.863  16.414 -0.1328 -1.3885 -1.8337
 1934TIP3    H227294   4.943   2.957  16.296 -1.2785 -0.3914 -1.2194
 1935TIP3   OH227295   3.467   1.686  14.890 -0.6025  0.0885 -0.0894
 1935TIP3    H127296   3.433   1.662  14.976 -1.1854  1.4613  0.0960
 1935TIP3    H227297   3.549   1.733  14.909 -0.4855 -0.0205 -0.3152
 1936TIP3   OH227298   5.021   1.543  12.855  0.1666 -0.5132  0.3417
 1936TIP3    H127299   5.024   1.627  12.900  1.8020 -0.3418 -0.0001
 1936TIP3    H227300   5.002   1.479  12.924  2.6957 -0.2693  1.3704
 1937TIP3   OH227301   3.444   0.687  11.243 -0.7830 -1.0565  0.1646
 1937TIP3    H127302   3.457   0.612  11.301  1.1215 -1.6596 -0.9373
 1937TIP3    H227303   3.409   0.648  11.163 -2.7639 -0.3216  0.6340
 1938TIP3   OH227304   6.777   3.024  11.315 -0.1399  0.0339 -0.0596
 1938TIP3    H127305   6.753   2.981  11.233 -0.0379 -1.9234  0.8939
 1938TIP3    H227306   6.865   3.058  11.299  0.6042 -1.8563 -0.2579
 1939TIP3   OH227307   4.494   5.644   6.600 -0.2415  0.2616  0.7877
 1939TIP3    H127308   4.562   5.679   6.542  0.4272  2.3083  2.6728
 1939TIP3    H227309   4.413   5.680   6.566  0.0475  0.7224  0.5684
 1940TIP3   OH227310   0.956   1.041   3.652  0.3501 -0.4890 -0.6522
 1940TIP3    H127311   1.015   0.968   3.669  0.4189 -0.3566 -0.3007
 1940TIP3    H227312   0.931   1.032   3.560  2.3756  0.5226 -1.3485
 1941TIP3   OH227313   5.676   0.195  16.891 -0.0222 -0.2823  0.3719
 1941TIP3    H127314   5.597   0.207  16.943 -1.1871  0.0825 -1.3890
 1941TIP3    H227315   5.692   0.100  16.892 -0.9472 -0.4458  0.1166
 1942TIP3   OH227316   6.108   6.128  14.702 -0.2759  0.0598  0.4570
 1942TIP3    H127317   6.127   6.064  14.633 -0.6577 -0.8620  1.1781
 1942TIP3    H227318   6.160   6.205  14.679  1.7042 -1.1752  0.5523
 1943TIP3   OH227319   5.656   2.005  13.777  0.6955 -0.1771 -0.8960
 1943TIP3    H127320   5.709   1.945  13.829  2.9827  0.8970 -1.8529
 1943TIP3    H227321   5.663   2.089  13.823  0.1471  0.0676 -1.2459
 1944TIP3   OH227322   0.490   1.669  12.572 -0.3405  0.0633 -0.7821
 1944TIP3    H127323   0.442   1.666  12.654  2.7853 -2.3150  1.2179
 1944TIP3    H227324   0.527   1.757  12.568  0.0672 -0.0063  0.8039
 1945TIP3   OH227325   3.406   4.631   4.271 -0.0861  0.1354 -0.1268
 1945TIP3    H127326   3.408   4.723   4.300 -1.5802  0.0505  0.3584
 1945TIP3    H227327   3.464   4.586   4.332  0.7226  0.7663 -0.4150
 1946TIP3   OH227328   1.130   2.446   3.219  0.4595  0.1124  0.9119
 1946TIP3    H127329   1.182   2.466   3.297  1.4313 -0.0483  0.3309
 1946TIP3    H227330   1.191   2.459   3.146  1.0336 -4.1031  0.3831
 1947TIP3   OH227331   0.333   3.629  13.706  0.5930 -0.3786  0.9178
 1947TIP3    H127332   0.262   3.590  13.655 -1.1815  3.1940  0.3551
 1947TIP3    H227333   0.290   3.677  13.776  2.2984  2.4387  0.2039
 1948TIP3   OH227334   2.434   3.690  17.005  0.7350 -0.0269  0.0290
 1948TIP3    H127335   2.523   3.727  17.009  0.6279  0.4298 -1.2575
 1948TIP3    H227336   2.383   3.744  17.064  0.8905  1.0183 -0.7644
 1949TIP3   OH227337   5.930   0.047   0.322  0.6348 -0.2713 -0.5151
 1949TIP3    H127338   5.845   0.091   0.322  1.0737  0.6044 -0.2572
 1949TIP3    H227339   5.973   0.078   0.243  1.1953  0.2706 -0.0072
 1950TIP3   OH227340   2.812   1.428   1.068 -0.0853  0.3004 -0.4662
 1950TIP3    H127341   2.877   1.358   1.060  0.1425  0.5752 -1.1148
 1950TIP3    H227342   2.727   1.383   1.060  0.0139 -0.0793  0.5539
 1951TIP3   OH227343   3.490   1.693   1.646 -0.5519  0.0718 -0.1061
 1951TIP3    H127344   3.507   1.770   1.700 -0.3593 -0.3353  0.4187
 1951TIP3    H227345   3.405   1.660   1.675 -0.9716  0.4944 -0.8228
 1952TIP3   OH227346   6.265   6.735  13.482  0.5756 -0.0206  0.1378
 1952TIP3    H127347   6.211   6.812  13.499 -1.3677 -1.4377  0.7342
 1952TIP3    H227348   6.248   6.677  13.557  1.6013 -1.2349 -0.5291
 1953TIP3   OH227349   5.992   6.661   2.018  0.0518  0.3491 -0.3310
 1953TIP3    H127350   6.039   6.610   2.084 -1.7130  0.5576  1.1600
 1953TIP3    H227351   5.933   6.598   1.977 -0.4089  0.6658 -0.1654
 1954TIP3   OH227352   4.700   2.325   5.283  1.3163  0.3814 -0.1965
 1954TIP3    H127353   4.684   2.383   5.357  0.9660 -0.2393  0.2153
 1954TIP3    H227354   4.746   2.250   5.320  0.3616 -0.3420 -0.4440
 1955TIP3   OH227355   5.218   6.215   4.617 -0.0577 -0.5351 -0.0176
 1955TIP3    H127356   5.135   6.252   4.588 -0.0653 -1.5242 -1.3366
 1955TIP3    H227357   5.284   6.262   4.568  0.1847  0.2146  0.9931
 1956TIP3   OH227358   4.606   3.912   2.909  0.0288  0.6193  0.2610
 1956TIP3    H127359   4.649   3.953   2.834 -0.1806 -0.1988 -0.3180
 1956TIP3    H227360   4.659   3.834   2.928 -0.4170  0.3503  0.4155
 1957TIP3   OH227361   0.258   6.342  13.933  0.1017  0.2038  0.0168
 1957TIP3    H127362   0.308   6.423  13.945 -1.0095  1.0561 -0.7941
 1957TIP3    H227363   0.166   6.371  13.932 -0.3088 -1.0391 -0.5520
 1958TIP3   OH227364   1.776   3.201  10.920  0.2056  0.8508 -0.3278
 1958TIP3    H127365   1.810   3.131  10.864 -0.7402 -0.7620  1.0146
 1958TIP3    H227366   1.848   3.223  10.979 -0.1329 -0.5997  0.6884
 1959TIP3   OH227367   3.743   5.380  11.599  0.8805  0.0915 -0.0721
 1959TIP3    H127368   3.740   5.291  11.563  1.6861  0.6018 -1.4639
 1959TIP3    H227369   3.652   5.409  11.599  0.8965  0.3704 -2.5827
 1960TIP3   OH227370   5.801   2.294   1.180  0.6499 -0.3009 -0.6286
 1960TIP3    H127371   5.860   2.349   1.127 -0.5912  2.9661  1.0705
 1960TIP3    H227372   5.714   2.312   1.145  0.1220 -0.4586  0.5497
 1961TIP3   OH227373   1.473   3.870  15.057 -0.2752  0.2348 -0.1924
 1961TIP3    H127374   1.554   3.846  15.103 -0.0716 -0.3296 -0.8350
 1961TIP3    H227375   1.489   3.960  15.028 -0.1428  0.3620  0.2596
 1962TIP3   OH227376   3.135   1.752  16.532 -0.2445  0.2871  0.6059
 1962TIP3    H127377   3.226   1.765  16.560 -0.1326 -0.0705  0.4090
 1962TIP3    H227378   3.130   1.659  16.510 -0.2449  0.6011 -0.8317
 1963TIP3   OH227379   0.615   5.599  15.639  0.2940 -0.5929 -0.1748
 1963TIP3    H127380   0.542   5.658  15.656 -0.4608 -0.7402 -2.5064
 1963TIP3    H227381   0.601   5.525  15.697 -0.7723 -0.1177  0.1878
 1964TIP3   OH227382   6.520   2.738   4.087  0.1490  0.6694  0.7203
 1964TIP3    H127383   6.477   2.820   4.063  0.2957  0.9000  1.2436
 1964TIP3    H227384   6.454   2.670   4.069 -0.6731  1.0678  2.0965
 1965TIP3   OH227385   1.894   4.842   3.566 -1.0964 -0.9506  0.3103
 1965TIP3    H127386   1.973   4.882   3.527  0.0478 -2.1279  1.3349
 1965TIP3    H227387   1.867   4.777   3.501 -0.3559 -1.5398  0.5726
 1966TIP3   OH227388   6.412   3.483   5.912 -0.3356  0.2033  0.6805
 1966TIP3    H127389   6.410   3.387   5.911  0.9777  0.1573 -0.0671
 1966TIP3    H227390   6.392   3.509   5.823 -2.5252  0.7295  1.2698
 1967TIP3   OH227391   4.797   6.784   4.964 -0.6002  0.2690  0.5496
 1967TIP3    H127392   4.832   6.695   4.962 -0.8303  0.1847 -1.0983
 1967TIP3    H227393   4.704   6.773   4.983 -0.8813  0.0276 -0.8247
 1968TIP3   OH227394   1.681   2.569   0.096  0.6946 -0.6965 -0.0885
 1968TIP3    H127395   1.667   2.520   0.015  0.4440 -0.1118 -0.3998
 1968TIP3    H227396   1.615   2.535   0.156  1.0536 -1.3215 -0.0357
 1969TIP3   OH227397   3.034   4.734   1.854  0.4717  0.5267 -0.1542
 1969TIP3    H127398   2.996   4.691   1.777 -0.6601 -2.2143  1.7448
 1969TIP3    H227399   3.020   4.827   1.839 -1.9934 -0.0386 -2.1557
 1970TIP3   OH227400   0.203   3.975   5.731  0.1962  0.6514 -0.3249
 1970TIP3    H127401   0.138   4.032   5.770  0.6044  0.5286  0.5529
 1970TIP3    H227402   0.228   3.915   5.801  0.7682  0.2703 -0.8405
 1971TIP3   OH227403   3.071   2.360  10.741 -0.3308 -0.2426 -0.1254
 1971TIP3    H127404   3.039   2.440  10.700  0.6939 -0.1734 -0.8293
 1971TIP3    H227405   2.992   2.310  10.762 -0.9130  0.2495 -1.1074
 1972TIP3   OH227406   6.207   6.051   4.829  0.0279  0.1497  0.0622
 1972TIP3    H127407   6.128   6.010   4.794  1.6698 -2.6017 -0.7195
 1972TIP3    H227408   6.224   6.005   4.912  0.8568  0.6056  0.1606
 1973TIP3   OH227409   0.898   5.749  16.038 -0.4213  0.3327  0.4598
 1973TIP3    H127410   0.857   5.675  15.994  0.5286 -0.4232  0.8039
 1973TIP3    H227411   0.836   5.774  16.106 -0.7443 -0.1617  0.3499
 1974TIP3   OH227412   1.721   2.815  13.064 -0.0261 -0.0725 -0.6469
 1974TIP3    H127413   1.726   2.756  12.989  0.8163 -1.0091  0.1268
 1974TIP3    H227414   1.800   2.798  13.114 -0.8455  0.1150  0.7658
 1975TIP3   OH227415   0.054   1.727  14.648  0.0321 -0.6329 -0.0314
 1975TIP3    H127416   0.088   1.710  14.560  0.9615  0.2316  0.1407
 1975TIP3    H227417   0.125   1.773  14.693 -1.1208  0.6598  0.5574
 1976TIP3   OH227418   4.793   1.055   4.794  0.2367 -0.4533  0.1829
 1976TIP3    H127419   4.698   1.058   4.807  0.1597 -0.5120 -0.3508
 1976TIP3    H227420   4.810   1.124   4.730  0.7659  0.6821  1.4945
 1977TIP3   OH227421   0.637   6.722  15.342  0.0148 -0.8378  0.3046
 1977TIP3    H127422   0.559   6.689  15.386  0.4428 -0.7625  1.1388
 1977TIP3    H227423   0.603   6.779  15.272 -0.6643  0.2247  1.4633
 1978TIP3   OH227424   4.331   1.656  15.200  0.1003 -0.2488 -0.3204
 1978TIP3    H127425   4.254   1.693  15.244 -0.3670  0.7015 -1.8476
 1978TIP3    H227426   4.328   1.693  15.112  2.1219 -0.4728 -0.5346
 1979TIP3   OH227427   6.739   0.285   0.018 -0.1159  0.2008  0.3875
 1979TIP3    H127428   6.680   0.210   0.019 -0.8915  0.7311 -1.3780
 1979TIP3    H227429   6.790   0.274  -0.063  0.5955  0.9509  0.7260
 1980TIP3   OH227430   5.053   5.943   2.726 -0.1326 -0.2547 -0.1405
 1980TIP3    H127431   4.986   5.882   2.696  0.0059 -0.3379 -0.2803
 1980TIP3    H227432   5.073   5.915   2.815 -0.3748 -0.1518 -0.0529
 1981TIP3   OH227433   3.535   0.594  12.908  0.4747  0.0673  0.2297
 1981TIP3    H127434   3.543   0.499  12.923  1.2434  0.1274  0.2570
 1981TIP3    H227435   3.442   0.608  12.891  0.2961 -0.6438  0.5756
 1982TIP3   OH227436   3.764   3.410  16.383 -0.2179  0.8841 -0.3979
 1982TIP3    H127437   3.739   3.319  16.364  0.0096 -0.2468  3.8427
 1982TIP3    H227438   3.681   3.454  16.402 -0.0563  0.5485  1.1430
 1983TIP3   OH227439   4.126   6.352   0.765  0.4064 -0.2426  0.4038
 1983TIP3    H127440   4.127   6.447   0.760 -0.6572 -0.2277  0.3351
 1983TIP3    H227441   4.179   6.331   0.843  1.5123  0.3423 -0.1749
 1984TIP3   OH227442   1.662   4.138   0.741 -0.2069  0.2143 -0.0925
 1984TIP3    H127443   1.633   4.135   0.650  1.7521 -0.6606 -0.7364
 1984TIP3    H227444   1.685   4.230   0.756  0.1310  0.2297 -0.6986
 1985TIP3   OH227445   4.003   0.383  14.642  0.0266 -0.7594 -0.2837
 1985TIP3    H127446   4.070   0.325  14.607  0.1329 -0.2375 -0.9685
 1985TIP3    H227447   4.012   0.375  14.737  0.3012 -1.5498 -0.3702
 1986TIP3   OH227448   4.887   5.772  13.553  0.2936 -0.4243 -0.3059
 1986TIP3    H127449   4.853   5.848  13.600 -0.1698 -0.3890 -0.6950
 1986TIP3    H227450   4.837   5.698  13.588  0.7147 -0.5490  0.0419
 1987TIP3   OH227451   6.033   1.613   0.103 -0.2007 -0.4289 -0.1573
 1987TIP3    H127452   6.065   1.697   0.136  1.2617 -1.2498  0.6407
 1987TIP3    H227453   5.991   1.634   0.020 -2.7743  1.5299  1.4734
 1988TIP3   OH227454   1.379   6.275   1.626  0.1523  0.0697 -0.5727
 1988TIP3    H127455   1.331   6.193   1.635 -1.0643  0.6715 -1.3512
 1988TIP3    H227456   1.377   6.313   1.714 -0.3037 -0.1968 -0.4623
 1989TIP3   OH227457   6.438   6.586   2.083 -0.8505  0.3076  0.4876
 1989TIP3    H127458   6.481   6.671   2.096 -1.3294  0.4782  0.9777
 1989TIP3    H227459   6.387   6.573   2.162 -1.7124  0.1069 -0.0959
 1990TIP3   OH227460   6.365   0.776  11.907 -0.1116  0.3089  0.0967
 1990TIP3    H127461   6.440   0.801  11.961  0.1875 -1.3198  0.5034
 1990TIP3    H227462   6.371   0.833  11.830  1.4776  0.3068  0.1728
 1991TIP3   OH227463   0.761   4.424   0.268  0.2956  0.5827  0.0048
 1991TIP3    H127464   0.723   4.441   0.182 -0.5414  0.1048  0.2711
 1991TIP3    H227465   0.686   4.404   0.324  0.6152  2.6976  1.3231
 1992TIP3   OH227466   4.022   3.210   0.006  0.0637  0.0296 -0.1865
 1992TIP3    H127467   4.085   3.139   0.005 -0.2727 -0.2973  0.7215
 1992TIP3    H227468   4.022   3.241   0.097 -1.3728 -0.2497 -0.0662
 1993TIP3   OH227469   3.124   4.450  14.761 -0.2873 -0.6212 -0.2333
 1993TIP3    H127470   3.043   4.486  14.727 -0.8028  0.0315  1.5582
 1993TIP3    H227471   3.123   4.472  14.855  1.3410 -1.7130  0.0938
 1994TIP3   OH227472   2.743   0.218   2.190 -0.2181  0.1203  0.6247
 1994TIP3    H127473   2.723   0.273   2.114 -1.0612 -1.3151 -0.2661
 1994TIP3    H227474   2.724   0.272   2.266  1.3081  1.8419 -0.1441
 1995TIP3   OH227475   5.783   3.018  13.251 -0.4403 -0.3343  0.1550
 1995TIP3    H127476   5.866   3.065  13.258 -1.0037  0.5634  1.0038
 1995TIP3    H227477   5.757   3.001  13.341 -0.2169 -2.3869 -0.1256
 1996TIP3   OH227478   5.027   3.641  15.002  0.3131  0.2142 -0.2588
 1996TIP3    H127479   4.990   3.586  14.934  0.0046 -0.2868  0.2994
 1996TIP3    H227480   5.091   3.584  15.046 -0.4764  0.0523  0.7430
 1997TIP3   OH227481   2.200   5.599   2.043 -0.1532 -0.1919 -0.0045
 1997TIP3    H127482   2.164   5.519   2.081 -0.7482  0.4973  0.9192
 1997TIP3    H227483   2.292   5.579   2.027 -0.3891 -1.1904 -0.1595
 1998TIP3   OH227484   3.327   2.419   1.655 -0.1287  0.5837 -0.7014
 1998TIP3    H127485   3.339   2.486   1.587  3.2026  0.0618 -0.8096
 1998TIP3    H227486   3.354   2.337   1.613 -0.7082 -0.2353  0.4626
 1999TIP3   OH227487   1.126   5.643  16.344  0.1008 -0.3684 -0.2395
 1999TIP3    H127488   1.197   5.598  16.389 -0.4146  0.0272  1.0282
 1999TIP3    H227489   1.115   5.596  16.261  1.9509 -0.3007 -0.5516
 2000TIP3   OH227490   2.088   6.264  10.340 -0.3592  0.7747  0.2350
 2000TIP3    H127491   1.994   6.263  10.318 -0.8922  0.7944  2.3334
 2000TIP3    H227492   2.094   6.322  10.416  1.4430  1.1162 -0.1311
 2001TIP3   OH227493   1.268   1.410   1.971 -0.2423  0.5659  0.3168
 2001TIP3    H127494   1.227   1.405   1.885 -0.9450 -0.0357  0.6782
 2001TIP3    H227495   1.359   1.384   1.957 -0.2953  0.6937 -0.2764
 2002TIP3   OH227496   1.316   0.121   3.158  0.0061 -0.6630 -0.1786
 2002TIP3    H127497   1.258   0.197   3.153 -0.4060 -0.9940 -0.3869
 2002TIP3    H227498   1.401   0.155   3.128  0.2549  0.1346  1.3439
 2003TIP3   OH227499   1.536   4.537  12.915  0.0262 -0.0691 -0.5976
 2003TIP3    H127500   1.563   4.488  12.992  0.9680 -0.4441 -1.1562
 2003TIP3    H227501   1.568   4.487  12.841 -0.4459  0.5357 -1.2321
 2004TIP3   OH227502   1.516   4.052  15.375  0.9164  0.1725  0.8826
 2004TIP3    H127503   1.556   3.972  15.340 -0.0200 -0.5826  1.4884
 2004TIP3    H227504   1.425   4.048  15.345  1.1511  1.6457 -0.1143
 2005TIP3   OH227505   1.217   1.116   0.718  0.0966 -0.1731  0.2578
 2005TIP3    H127506   1.303   1.133   0.757  0.6309  2.2606 -1.7062
 2005TIP3    H227507   1.155   1.149   0.784  0.7913  0.3300  0.6825
 2006TIP3   OH227508   2.378   2.133  14.170  0.2515 -0.2544 -0.0549
 2006TIP3    H127509   2.419   2.190  14.235  0.0521  0.3704 -0.4662
 2006TIP3    H227510   2.451   2.096  14.120  0.5114 -2.0202  1.5344
 2007TIP3   OH227511   3.884   2.013  14.443 -0.0358 -0.0332  0.2495
 2007TIP3    H127512   3.965   1.994  14.396 -0.2492 -0.1428 -0.0776
 2007TIP3    H227513   3.880   2.109  14.447 -1.6395  0.1523 -2.8742
 2008TIP3   OH227514   1.094   4.582   2.359  0.3938 -0.6462  0.2934
 2008TIP3    H127515   1.004   4.556   2.379  0.5972 -0.0921  2.0614
 2008TIP3    H227516   1.086   4.671   2.324  0.3759  0.3294  2.6041
 2009TIP3   OH227517   4.636   1.630  11.893 -0.2451 -0.3030 -0.3732
 2009TIP3    H127518   4.561   1.690  11.893  0.3774  0.6442 -3.0298
 2009TIP3    H227519   4.670   1.634  11.982 -3.1969 -0.6254  0.8699
 2010TIP3   OH227520   3.129   6.649  17.076  0.1625 -0.2416  0.3636
 2010TIP3    H127521   3.169   6.682  16.995  0.8645  0.2649  0.8960
 2010TIP3    H227522   3.122   6.555  17.064 -2.1678  0.0673 -1.3317
 2011TIP3   OH227523   2.315   0.123  12.061 -0.0206 -0.2072 -0.0395
 2011TIP3    H127524   2.359   0.043  12.091  2.5257  0.4744 -1.6318
 2011TIP3    H227525   2.372   0.194  12.090 -1.3141  0.9411 -0.1913
 2012TIP3   OH227526   0.757   6.365  16.860 -0.1216  0.0240 -0.2160
 2012TIP3    H127527   0.787   6.446  16.901 -0.0176  0.4226 -1.0558
 2012TIP3    H227528   0.802   6.295  16.909  2.4300  0.5998 -1.5568
 2013TIP3   OH227529   4.739   0.592   0.683 -0.0553 -0.0095 -0.7551
 2013TIP3    H127530   4.792   0.670   0.702  0.4979 -0.4455 -0.4619
 2013TIP3    H227531   4.774   0.559   0.600 -1.1652  0.7849 -1.5657
 2014TIP3   OH227532   4.013   1.206   0.104 -0.2140  0.0767  0.0897
 2014TIP3    H127533   3.965   1.274   0.057 -0.7955 -0.2926  0.1349
 2014TIP3    H227534   3.998   1.126   0.053  0.3269 -0.0569  0.1265
 2015TIP3   OH227535   6.531   4.269  16.340  0.5577 -0.1032 -0.1326
 2015TIP3    H127536   6.534   4.319  16.258  1.2097  2.1656  1.1855
 2015TIP3    H227537   6.617   4.229  16.347  0.8099  0.4325 -0.1289
 2016TIP3   OH227538   1.577   1.382   5.913  0.7813  0.2400 -0.5177
 2016TIP3    H127539   1.573   1.471   5.880  0.3353 -0.0540 -1.2962
 2016TIP3    H227540   1.561   1.390   6.007  0.0601  0.9186 -0.6874
 2017TIP3   OH227541   3.221   1.478   2.020 -0.4718  0.0073  0.5550
 2017TIP3    H127542   3.262   1.403   2.061 -0.5528 -1.1471 -1.3478
 2017TIP3    H227543   3.132   1.449   1.999 -1.0327  1.1765  1.1620
 2018TIP3   OH227544   1.333   6.130   5.950  0.8292 -0.2178  0.1513
 2018TIP3    H127545   1.261   6.096   6.004 -0.4722  0.6735 -0.9295
 2018TIP3    H227546   1.377   6.194   6.006  0.7295 -0.7126  0.8010
 2019TIP3   OH227547   2.519   6.692   0.045 -0.1603 -0.3624 -0.0600
 2019TIP3    H127548   2.499   6.606   0.083 -1.5574 -0.5694 -1.1867
 2019TIP3    H227549   2.580   6.732   0.107  0.4816 -2.1371  0.5172
 2020TIP3   OH227550   1.045   4.367  16.586  0.0036 -0.0521  0.7460
 2020TIP3    H127551   0.950   4.359  16.600 -0.4139  1.7510 -0.7950
 2020TIP3    H227552   1.061   4.322  16.503  0.4074  0.1402  0.7196
 2021TIP3   OH227553   0.742   5.639   1.531  0.3712  0.1318 -0.1941
 2021TIP3    H127554   0.668   5.584   1.505 -0.2997  0.8916  0.0638
 2021TIP3    H227555   0.712   5.728   1.515  0.7554  0.5190  1.1091
 2022TIP3   OH227556   2.704   3.340  14.159  0.3559 -0.4043 -0.1678
 2022TIP3    H127557   2.790   3.373  14.132 -0.4991  1.4056 -0.8273
 2022TIP3    H227558   2.715   3.245  14.163  2.8919 -0.1420  1.5582
 2023TIP3   OH227559   4.468   1.822   0.846 -0.1543 -0.4716 -0.0960
 2023TIP3    H127560   4.375   1.811   0.861 -0.3771  0.6381 -0.6087
 2023TIP3    H227561   4.507   1.828   0.933 -0.8564  1.3783  0.1202
 2024TIP3   OH227562   4.548   4.311   3.506 -0.5145  0.3131  0.2622
 2024TIP3    H127563   4.533   4.232   3.558  1.1530 -1.1812 -1.4041
 2024TIP3    H227564   4.527   4.383   3.566  0.0189 -1.3192  2.5480
 2025TIP3   OH227565   1.868   1.242   2.984 -0.6236 -0.4267 -0.1336
 2025TIP3    H127566   1.957   1.254   3.019 -1.4087 -1.1515  2.3436
 2025TIP3    H227567   1.835   1.166   3.032 -2.2817 -0.7234 -1.6843
 2026TIP3   OH227568   2.975   0.106  10.838  0.1453  0.1605  0.0521
 2026TIP3    H127569   2.905   0.118  10.902 -1.4873  0.6459 -1.7194
 2026TIP3    H227570   3.027   0.186  10.845  0.1397  0.0992  0.9307
 2027TIP3   OH227571   1.714   0.399  13.070 -0.2924  0.1123 -0.1804
 2027TIP3    H127572   1.697   0.471  13.131 -2.2151  0.7077 -1.3407
 2027TIP3    H227573   1.628   0.366  13.047  0.5065 -1.6366 -0.8012
 2028TIP3   OH227574   5.851   4.309  15.588 -0.2967 -0.3056 -0.4535
 2028TIP3    H127575   5.809   4.238  15.637 -2.3531 -0.9727 -2.9572
 2028TIP3    H227576   5.939   4.314  15.624 -1.3224 -1.4179  2.5051
 2029TIP3   OH227577   6.106   3.443   1.549 -0.7427 -0.3595 -0.8356
 2029TIP3    H127578   6.093   3.350   1.569 -0.0960 -0.5020 -1.0570
 2029TIP3    H227579   6.064   3.454   1.464  0.6944 -0.8721 -1.6522
 2030TIP3   OH227580   6.192   0.790   3.741  0.3322  0.0330  0.3228
 2030TIP3    H127581   6.097   0.793   3.731  0.1237 -0.4633  1.8666
 2030TIP3    H227582   6.225   0.782   3.651 -1.0656  0.3896 -0.2524
 2031TIP3   OH227583   6.062   4.092   1.739  0.2389 -0.3061  0.0715
 2031TIP3    H127584   6.116   4.118   1.814  1.0697  0.8805 -0.8953
 2031TIP3    H227585   6.123   4.090   1.665 -0.6754 -0.8782 -0.6882
 2032TIP3   OH227586   2.776   0.838   2.863 -0.1288  0.0381  0.2833
 2032TIP3    H127587   2.720   0.806   2.934 -0.5902  1.9047  0.8080
 2032TIP3    H227588   2.715   0.863   2.794  0.2605 -0.7293 -0.3561
 2033TIP3   OH227589   5.449   4.509  12.209 -0.2576  0.0979 -0.6067
 2033TIP3    H127590   5.458   4.430  12.264 -0.8825  0.6232  0.2739
 2033TIP3    H227591   5.436   4.580  12.271 -0.7563  0.7510 -1.4397
 2034TIP3   OH227592   3.817   2.943  16.555  0.0943  0.1267  0.2831
 2034TIP3    H127593   3.895   2.948  16.500 -0.4762  1.2660 -0.4644
 2034TIP3    H227594   3.849   2.915  16.640  1.1910 -0.3220 -0.2608
 2035TIP3   OH227595   4.379   5.200   5.541 -0.0464 -0.5211 -0.3057
 2035TIP3    H127596   4.429   5.214   5.461  0.2020 -0.7425 -0.1897
 2035TIP3    H227597   4.440   5.157   5.601 -0.0107  0.2975  0.2584
 2036TIP3   OH227598   3.162   2.873  15.032  0.3487 -0.0356  0.1529
 2036TIP3    H127599   3.205   2.907  14.953 -0.9538  0.1648 -0.4994
 2036TIP3    H227600   3.228   2.817  15.073  1.0643 -0.1286 -1.0733
 2037TIP3   OH227601   1.353   6.548   0.252  0.1246  0.1175 -0.4085
 2037TIP3    H127602   1.347   6.480   0.319  1.7063  0.1851 -0.1527
 2037TIP3    H227603   1.432   6.526   0.202  0.4759  1.5491 -0.5426
 2038TIP3   OH227604   1.215   1.793   0.301 -0.0967  0.0216 -0.0712
 2038TIP3    H127605   1.161   1.799   0.222  2.0394 -1.3349 -1.7460
 2038TIP3    H227606   1.300   1.829   0.275  0.5362 -0.0135  1.7889
 2039TIP3   OH227607   4.382   0.513  11.908 -0.2249  0.1102 -0.5735
 2039TIP3    H127608   4.376   0.521  12.003 -3.4051 -0.9314 -0.5719
 2039TIP3    H227609   4.360   0.601  11.876 -0.4385  0.1309 -0.3738
 2040TIP3   OH227610   1.094   3.906  10.949  0.7656  0.6314 -0.2346
 2040TIP3    H127611   1.173   3.958  10.931  0.8754 -0.0401 -1.7795
 2040TIP3    H227612   1.121   3.816  10.934 -0.6082  0.4827 -2.0180
 2041TIP3   OH227613   6.813   0.937   5.120  0.0454 -0.1911 -0.0311
 2041TIP3    H127614   6.747   1.005   5.134  1.3108  0.6486  2.3497
 2041TIP3    H227615   6.896   0.984   5.122  0.8629 -1.6035 -0.0158
 2042TIP3   OH227616   4.847   3.210  16.584 -0.6405  0.6691 -0.1333
 2042TIP3    H127617   4.774   3.177  16.532 -0.7205  1.4915 -0.5548
 2042TIP3    H227618   4.815   3.292  16.621  0.0602  1.0232 -0.3012
 2043TIP3   OH227619   0.659   5.968   0.780  0.2793  0.8481 -0.6935
 2043TIP3    H127620   0.587   5.997   0.837 -0.1797 -0.2979 -0.6742
 2043TIP3    H227621   0.616   5.924   0.708  0.9888 -0.7458 -0.1801
 2044TIP3   OH227622   2.597   5.795  15.389  0.4898 -0.0035  0.0291
 2044TIP3    H127623   2.665   5.763  15.448 -1.0659  0.9239  2.5044
 2044TIP3    H227624   2.627   5.882  15.361  0.5296  0.2325  0.7866
 2045TIP3   OH227625   6.632   5.864  13.858 -0.0410 -0.1595  0.7160
 2045TIP3    H127626   6.716   5.820  13.876  0.4743  0.6539  0.3565
 2045TIP3    H227627   6.639   5.892  13.767  1.3441  4.2024  1.9362
 2046TIP3   OH227628   4.167   2.276  10.865 -0.0460 -0.0513 -0.3868
 2046TIP3    H127629   4.086   2.317  10.895  0.0363 -1.4075  2.0028
 2046TIP3    H227630   4.141   2.187  10.840  0.6112 -0.3676  0.0200
 2047TIP3   OH227631   1.192   6.759   0.167  0.2893  0.2357 -0.6095
 2047TIP3    H127632   1.250   6.683   0.177  1.6012  1.3976  1.2102
 2047TIP3    H227633   1.105   6.725   0.187  0.9082 -0.7075  0.6282
 2048TIP3   OH227634   6.026   2.040  15.920 -0.2979 -0.3638 -0.0283
 2048TIP3    H127635   6.090   2.062  15.852 -0.9043 -0.7815 -0.7469
 2048TIP3    H227636   6.043   1.948  15.941  0.5755  0.0327  1.1665
 2049TIP3   OH227637   0.794   0.590  15.887  0.2281 -0.0424  0.4093
 2049TIP3    H127638   0.709   0.559  15.918  0.3255  0.5280  1.2917
 2049TIP3    H227639   0.847   0.510  15.880  0.0437 -0.2516  1.2510
 2050TIP3   OH227640   2.426   6.831   2.095 -0.4051 -0.5068 -0.1403
 2050TIP3    H127641   2.458   6.786   2.017 -0.3413 -0.6801 -0.0160
 2050TIP3    H227642   2.450   6.923   2.081 -1.2077 -0.3788 -0.7395
 2051TIP3   OH227643   6.001   5.022   5.379  0.4935 -0.4167 -0.5095
 2051TIP3    H127644   5.936   5.048   5.314  0.0702  1.1275  0.4938
 2051TIP3    H227645   6.085   5.034   5.334  0.1653 -0.7487 -1.2322
 2052TIP3   OH227646   5.972   5.650   3.548  0.8287 -0.0516  0.1275
 2052TIP3    H127647   5.928   5.678   3.469 -0.6137  3.5119  1.9714
 2052TIP3    H227648   5.902   5.621   3.606  1.6808 -1.0001  0.7248
 2053TIP3   OH227649   1.751   2.117  16.526  0.8255  0.2836  0.2124
 2053TIP3    H127650   1.667   2.115  16.480  1.4254 -1.5957 -0.9101
 2053TIP3    H227651   1.749   2.198  16.577 -1.0874  0.9635 -0.8641
 2054TIP3   OH227652   4.640   1.823  16.912  0.0141  0.3617 -0.5046
 2054TIP3    H127653   4.648   1.772  16.832 -0.5625  2.6263 -2.0801
 2054TIP3    H227654   4.632   1.913  16.883 -0.2959  1.2645  2.1169
 2055TIP3   OH227655   0.393   2.511  14.763 -0.4584  0.0861  0.1696
 2055TIP3    H127656   0.427   2.597  14.786 -1.5134  0.5694  0.0090
 2055TIP3    H227657   0.307   2.529  14.723 -0.0331 -0.9189 -1.3040
 2056TIP3   OH227658   2.914   0.009   3.246  0.0298  0.5130 -0.3858
 2056TIP3    H127659   2.921   0.105   3.242 -0.0188  0.5863  0.8935
 2056TIP3    H227660   2.891  -0.010   3.337 -0.8339 -0.6749 -0.8212
 2057TIP3   OH227661   2.777   0.879   1.810 -0.6397 -0.4281  0.1230
 2057TIP3    H127662   2.696   0.872   1.861 -1.1819  1.1080 -0.4746
 2057TIP3    H227663   2.790   0.973   1.797  0.1378 -0.7192 -1.5161
 2058TIP3   OH227664   1.974   2.039   5.302 -0.5336 -0.3534  0.4675
 2058TIP3    H127665   1.990   2.099   5.229  0.0444 -0.2413  0.6873
 2058TIP3    H227666   1.978   2.094   5.380  1.0173 -0.8366  0.7561
 2059TIP3   OH227667   4.407   1.018   2.866  0.0898 -0.1341  1.8475
 2059TIP3    H127668   4.374   1.055   2.947 -2.5081  0.1943  0.7426
 2059TIP3    H227669   4.353   1.058   2.798  2.0413 -0.5300 -0.0539
 2060TIP3   OH227670   1.885   0.694  15.653  0.2170  0.0068  0.0011
 2060TIP3    H127671   1.812   0.663  15.707 -0.1884 -1.7273 -1.4410
 2060TIP3    H227672   1.953   0.716  15.716 -0.4768 -1.2837  1.2808
 2061TIP3   OH227673   5.915   1.574  13.970  0.5536  0.8821  0.0539
 2061TIP3    H127674   5.863   1.494  13.960  0.8702  0.5315  1.0336
 2061TIP3    H227675   5.857   1.644  13.940 -0.2252  0.4183  0.4306
 2062TIP3   OH227676   6.764   2.939  12.685  0.0865 -0.0470  0.2734
 2062TIP3    H127677   6.715   2.967  12.608 -0.3139 -3.0902 -0.7181
 2062TIP3    H227678   6.852   2.974  12.671 -0.1877  0.1553 -1.1387
 2063TIP3   OH227679   2.831   5.916  16.523 -0.0832 -0.4510  0.7024
 2063TIP3    H127680   2.795   6.003  16.512 -0.0550 -0.3704  1.2142
 2063TIP3    H227681   2.760   5.865  16.561 -1.0561 -1.4067 -2.1226
 2064TIP3   OH227682   3.327   6.130   2.940  0.1756  0.0020  0.2166
 2064TIP3    H127683   3.232   6.123   2.941  0.2005 -0.3117  0.7190
 2064TIP3    H227684   3.345   6.205   2.883 -0.2703 -1.4115 -1.9091
 2065TIP3   OH227685   5.412   6.715   5.839 -0.1197  0.2589 -0.1809
 2065TIP3    H127686   5.384   6.649   5.903 -0.5643 -0.4814 -1.1212
 2065TIP3    H227687   5.472   6.668   5.781  1.0211  1.1628  0.2127
 2066TIP3   OH227688   5.071   0.445   0.256  0.1510  0.3622  0.2387
 2066TIP3    H127689   5.107   0.358   0.242  1.0707  0.6703  0.5648
 2066TIP3    H227690   5.020   0.437   0.337 -0.5392 -0.0789 -0.2255
 2067TIP3   OH227691   4.418   6.303  12.336  0.2030 -0.3350  0.2588
 2067TIP3    H127692   4.341   6.246  12.325 -0.5728  0.7180  0.1255
 2067TIP3    H227693   4.452   6.315  12.248 -0.2694  0.2670  0.1557
 2068TIP3   OH227694   1.707   3.948  13.659  0.3390 -0.2659  0.4743
 2068TIP3    H127695   1.798   3.919  13.652  0.1489 -0.6212 -0.6437
 2068TIP3    H227696   1.712   4.027  13.714  1.2004 -0.7878  1.1867
 2069TIP3   OH227697   1.925   2.891   0.394 -0.5076 -0.0176  0.6356
 2069TIP3    H127698   1.960   2.807   0.364 -0.5021  0.5251 -0.9816
 2069TIP3    H227699   1.864   2.918   0.325  0.9673  2.2410  0.1127
 2070TIP3   OH227700   5.550   3.059  12.818  0.9942  0.3542 -0.0418
 2070TIP3    H127701   5.487   3.010  12.871  1.0514 -0.0559 -0.3465
 2070TIP3    H227702   5.497   3.127  12.775  0.5811 -0.5130 -0.9648
 2071TIP3   OH227703   3.342   2.048  14.238 -0.0290 -0.0314 -0.3082
 2071TIP3    H127704   3.399   1.973  14.257  2.4005  1.5653 -0.8201
 2071TIP3    H227705   3.394   2.125  14.263 -1.2903  1.6156 -2.3729
 2072TIP3   OH227706   2.552   2.710   6.285 -0.0883  0.4552  0.1499
 2072TIP3    H127707   2.619   2.745   6.345 -0.3904  1.0856  0.1267
 2072TIP3    H227708   2.581   2.621   6.267  0.0164  0.2641  1.2223
 2073TIP3   OH227709   0.129   1.625  11.344 -0.4292  0.1268 -0.0344
 2073TIP3    H127710   0.039   1.601  11.321  0.3276 -1.7808 -1.1872
 2073TIP3    H227711   0.121   1.714  11.379 -2.7131  0.1318 -0.3944
 2074TIP3   OH227712   6.658   5.843   1.035  0.6764  0.1641 -0.2162
 2074TIP3    H127713   6.584   5.794   0.998  1.0234  0.0042 -0.7061
 2074TIP3    H227714   6.634   5.935   1.022  0.6152  0.1132 -0.4860
 2075TIP3   OH227715   4.187   2.407  14.704 -0.3314  0.4612  0.0621
 2075TIP3    H127716   4.154   2.473  14.765 -1.5552  0.4798 -0.5975
 2075TIP3    H227717   4.252   2.454  14.652  0.9385  0.3765  1.4885
 2076TIP3   OH227718   0.503   1.325  15.251  0.2874  0.1739 -0.6415
 2076TIP3    H127719   0.468   1.285  15.330  0.2939  1.3793 -0.0110
 2076TIP3    H227720   0.446   1.400  15.234  1.2767  0.9071 -0.8251
 2077TIP3   OH227721   5.681   0.156  11.770  0.6649  0.0890  0.1319
 2077TIP3    H127722   5.755   0.183  11.825  0.7952 -1.1259  0.5951
 2077TIP3    H227723   5.712   0.076  11.727 -0.3323 -0.3590  0.2351
 2078TIP3   OH227724   5.415   4.551  13.013 -0.1199 -0.6952  0.5955
 2078TIP3    H127725   5.381   4.639  13.027 -0.5337 -1.1101  2.4463
 2078TIP3    H227726   5.510   4.561  13.016 -0.1651 -0.3034  0.7649
 2079TIP3   OH227727   6.644   2.804   3.199  0.0473  0.5923  0.2115
 2079TIP3    H127728   6.617   2.748   3.271 -1.2163 -0.5988 -1.1272
 2079TIP3    H227729   6.578   2.874   3.197 -0.3021  0.2581 -0.1779
 2080TIP3   OH227730   4.363   6.800   5.196  0.3367 -0.1712 -0.0691
 2080TIP3    H127731   4.418   6.847   5.134 -0.1218 -0.5292 -0.7650
 2080TIP3    H227732   4.290   6.860   5.213  0.8052  0.2092  0.6755
 2081TIP3   OH227733   5.664   4.676   1.369  0.0777 -0.1611 -0.2801
 2081TIP3    H127734   5.615   4.632   1.438  0.1414 -0.9765 -0.7362
 2081TIP3    H227735   5.707   4.750   1.412 -1.3247  0.4068  0.1762
 2082TIP3   OH227736   2.849   1.040  16.366  0.1068 -0.0214 -0.0264
 2082TIP3    H127737   2.812   0.955  16.342 -2.0310  0.8425 -0.0231
 2082TIP3    H227738   2.773   1.098  16.372  1.5060  1.8987 -0.0099
 2083TIP3   OH227739   5.155   2.263  10.652  0.7070  0.1127 -0.1897
 2083TIP3    H127740   5.160   2.200  10.580 -0.0174 -0.0805 -0.0894
 2083TIP3    H227741   5.064   2.292  10.650  0.9781  0.9766 -0.0747
 2084TIP3   OH227742   4.362   3.315  10.759  0.2853 -0.0033  0.1757
 2084TIP3    H127743   4.360   3.293  10.666 -0.1705  1.1421 -0.1044
 2084TIP3    H227744   4.372   3.231  10.804  0.6357 -0.5541 -0.9078
 2085TIP3   OH227745   1.759   0.350   2.590  0.4099  0.5874  0.1262
 2085TIP3    H127746   1.685   0.381   2.538  0.8669  0.8725 -0.3593
 2085TIP3    H227747   1.832   0.405   2.564  1.3637 -1.1727 -1.0948
 2086TIP3   OH227748   0.382   0.308  10.335 -0.5419 -0.3383 -0.6798
 2086TIP3    H127749   0.342   0.262  10.408 -0.2832  0.6058  0.0708
 2086TIP3    H227750   0.328   0.386  10.322 -0.4258 -0.3532 -1.3155
 2087TIP3   OH227751   2.179   3.979   1.670  0.0512  0.5555  0.2186
 2087TIP3    H127752   2.222   4.061   1.695  0.3204  0.6919 -0.6549
 2087TIP3    H227753   2.217   3.957   1.585 -2.6343  1.4930 -1.3767
 2088TIP3   OH227754   2.028   4.096   2.155 -0.2778  0.5946  0.2509
 2088TIP3    H127755   2.015   4.190   2.168 -1.6526  0.4740 -0.1593
 2088TIP3    H227756   1.944   4.064   2.123  0.7060 -0.4380 -1.4710
 2089TIP3   OH227757   4.602   5.962   0.543 -0.2235 -0.1394 -0.0962
 2089TIP3    H127758   4.519   5.923   0.515 -0.8767  0.0402  1.4679
 2089TIP3    H227759   4.576   6.033   0.603  0.9623  1.9775 -1.9370
 2090TIP3   OH227760   4.733   0.589  11.294 -0.4014 -0.5725  0.3330
 2090TIP3    H127761   4.639   0.607  11.286  0.2343  2.8647 -1.2067
 2090TIP3    H227762   4.761   0.640  11.369  0.6252  0.6841 -0.8497
 2091TIP3   OH227763   2.003   0.126  12.855 -0.7052 -0.2344 -0.4546
 2091TIP3    H127764   2.056   0.061  12.900 -1.9440 -0.7770  0.2603
 2091TIP3    H227765   1.915   0.114  12.890 -1.0484  1.5554 -0.6144
 2092TIP3   OH227766   0.394   1.567   2.338 -0.9307 -0.1948 -0.3198
 2092TIP3    H127767   0.419   1.476   2.351  1.3519  0.2619 -1.1197
 2092TIP3    H227768   0.447   1.616   2.401 -1.0841  0.7023 -0.8639
 2093TIP3   OH227769   1.102   0.619  12.819  0.2656  0.4642  0.4185
 2093TIP3    H127770   1.150   0.548  12.862  1.0370  0.0808 -0.9919
 2093TIP3    H227771   1.012   0.588  12.814  0.9126 -1.3076 -1.8201
 2094TIP3   OH227772   1.676   4.129   6.338 -0.2541  0.5000  0.4139
 2094TIP3    H127773   1.672   4.220   6.368  0.9067 -0.3215  3.5115
 2094TIP3    H227774   1.770   4.110   6.333 -0.4408 -0.9565  1.6127
 2095TIP3   OH227775   2.907   2.435  11.522 -0.5954 -0.0126  0.2525
 2095TIP3    H127776   2.823   2.473  11.547 -0.4646  0.0757  0.5544
 2095TIP3    H227777   2.941   2.395  11.602  0.6385  1.7743  0.6722
 2096TIP3   OH227778   6.037   5.037   2.933 -0.1953 -0.1716 -0.3833
 2096TIP3    H127779   6.025   4.998   2.846  1.2812  0.0963 -0.7509
 2096TIP3    H227780   5.951   5.069   2.958 -0.8966 -1.3651 -1.2088
 2097TIP3   OH227781   2.281   0.071   4.458 -0.1456  0.1231  0.9226
 2097TIP3    H127782   2.256   0.153   4.500 -0.6394  0.4633 -0.0002
 2097TIP3    H227783   2.328   0.022   4.526 -0.0476  1.0665  1.5515
 2098TIP3   OH227784   6.665   2.159   6.084 -0.2010  0.1718  0.0951
 2098TIP3    H127785   6.580   2.139   6.044  0.4052  0.7295 -1.5795
 2098TIP3    H227786   6.658   2.127   6.174 -2.1780  0.2020 -0.0051
 2099TIP3   OH227787   5.090   6.623   1.540  0.1060 -0.2367 -0.6096
 2099TIP3    H127788   5.071   6.686   1.609 -0.0233  0.4862 -1.2962
 2099TIP3    H227789   5.174   6.651   1.503 -0.0866 -0.2922 -1.1035
 2100TIP3   OH227790   3.905   2.969  11.300 -0.4252 -0.6895 -0.1128
 2100TIP3    H127791   3.992   2.951  11.266 -0.7742 -1.7224 -0.4871
 2100TIP3    H227792   3.912   3.057  11.337  1.0033 -1.1066  0.6619
 2101TIP3   OH227793   5.430   2.312  13.488  0.6940  0.6870 -0.4638
 2101TIP3    H127794   5.518   2.290  13.518  1.3630  1.8931 -1.4163
 2101TIP3    H227795   5.415   2.255  13.412 -0.1273 -0.8337  0.7922
 2102TIP3   OH227796   2.410   1.629   1.126  0.2835  0.0504  0.7237
 2102TIP3    H127797   2.481   1.613   1.064 -0.0799  0.6960  0.1221
 2102TIP3    H227798   2.434   1.579   1.203  1.7686  0.8318  0.8063
 2103TIP3   OH227799   2.701   4.062  11.271  0.5006  0.1680 -0.0900
 2103TIP3    H127800   2.652   4.008  11.209  0.0261  1.0128 -0.4655
 2103TIP3    H227801   2.641   4.076  11.344  0.7719 -0.1542  0.1978
 2104TIP3   OH227802   1.830   0.798   0.757 -0.1239  0.0773  0.5224
 2104TIP3    H127803   1.830   0.862   0.686 -1.3943  1.0499  1.3545
 2104TIP3    H227804   1.905   0.822   0.811 -0.1392  0.4018  0.4042
 2105TIP3   OH227805   3.260   6.040   4.868  0.3095  0.2523  0.3784
 2105TIP3    H127806   3.251   6.126   4.826 -0.1009  0.2572  0.4670
 2105TIP3    H227807   3.278   5.980   4.796 -1.3188  0.1090  0.0411
 2106TIP3   OH227808   2.661   2.472  12.215  0.2511 -0.0900  0.0706
 2106TIP3    H127809   2.729   2.466  12.282  0.3570 -3.2364 -0.1643
 2106TIP3    H227810   2.579   2.468  12.264  0.2171  1.6006  0.2094
 2107TIP3   OH227811   6.666   2.227  11.426 -0.3808  0.2599 -0.4698
 2107TIP3    H127812   6.738   2.268  11.378 -0.4126  1.0655  0.1377
 2107TIP3    H227813   6.597   2.293  11.427 -1.6106 -0.9345 -2.0648
 2108TIP3   OH227814   5.179   1.439   0.373  0.4462  0.0014  0.7629
 2108TIP3    H127815   5.170   1.405   0.463  1.0777 -0.5645  0.6132
 2108TIP3    H227816   5.139   1.526   0.377 -0.9447 -0.6247  1.2258
 2109TIP3   OH227817   4.197   2.192  11.275 -0.3507 -1.0375  0.2768
 2109TIP3    H127818   4.209   2.283  11.249 -1.9911 -1.0234 -0.5337
 2109TIP3    H227819   4.259   2.143  11.221  0.3034 -0.4505  0.4759
 2110TIP3   OH227820   6.268   5.415  12.669  0.2771 -0.0040  0.0172
 2110TIP3    H127821   6.330   5.384  12.604 -1.1321 -1.1214 -0.8615
 2110TIP3    H227822   6.274   5.352  12.741 -1.4406 -1.5311 -1.0814
 2111TIP3   OH227823   2.919   5.517  13.648  0.1962 -0.5448  0.4483
 2111TIP3    H127824   2.840   5.467  13.671  0.4858 -0.7976  0.9220
 2111TIP3    H227825   2.986   5.450  13.633  0.2177 -0.3458 -0.3558
 2112TIP3   OH227826   3.741   0.340   5.982 -0.2695 -0.1941 -0.1757
 2112TIP3    H127827   3.714   0.416   6.035  0.5249  0.6318 -0.9208
 2112TIP3    H227828   3.772   0.276   6.046 -0.3399  0.3626  0.4272
 2113TIP3   OH227829   2.345   5.358   1.847  0.0026  0.4228 -0.2497
 2113TIP3    H127830   2.377   5.380   1.760  1.6950  0.4167  0.3416
 2113TIP3    H227831   2.262   5.406   1.855 -0.1275  0.4939 -1.8046
 2114TIP3   OH227832   2.552   4.816  13.030 -0.4195  0.3115 -0.2065
 2114TIP3    H127833   2.643   4.846  13.034  0.1167 -1.3333  1.6525
 2114TIP3    H227834   2.505   4.887  12.986  1.8986  0.8082 -2.0985
 2115TIP3   OH227835   1.918   2.029  15.876  0.6136  0.2298 -0.6609
 2115TIP3    H127836   1.967   1.951  15.902  0.0908  0.6965  2.0573
 2115TIP3    H227837   1.957   2.055  15.793  1.7281 -2.1189 -0.9586
 2116TIP3   OH227838   1.122   4.535  15.453 -0.4136 -0.3185 -0.3913
 2116TIP3    H127839   1.112   4.568  15.364 -0.6564 -1.4820 -0.8218
 2116TIP3    H227840   1.045   4.567  15.500  0.0577  0.8754 -0.3920
 2117TIP3   OH227841   1.317   5.636   3.975  0.0594 -0.2035 -0.2840
 2117TIP3    H127842   1.343   5.655   3.885  0.7357 -0.2079 -0.0925
 2117TIP3    H227843   1.306   5.541   3.977 -2.2666 -0.0248 -0.9576
 2118TIP3   OH227844   2.636   4.900   0.503  0.2526  0.0193  0.2746
 2118TIP3    H127845   2.712   4.844   0.488  1.0496  0.2778  2.7976
 2118TIP3    H227846   2.673   4.986   0.524 -0.8340  0.6839 -0.4007
 2119TIP3   OH227847   2.401   1.717  12.809 -0.3268 -0.0489 -0.6798
 2119TIP3    H127848   2.486   1.673  12.807 -0.0267  0.5428 -1.6602
 2119TIP3    H227849   2.369   1.712  12.719 -1.1534  0.0817 -0.4033
 2120TIP3   OH227850   2.398   4.304   3.354  0.2542 -0.1399  0.7422
 2120TIP3    H127851   2.336   4.240   3.389  0.7598 -1.7344 -1.1104
 2120TIP3    H227852   2.371   4.316   3.263  0.4526  1.9793  0.9228
 2121TIP3   OH227853   2.483   3.398   2.289 -0.2074 -0.7359  0.0203
 2121TIP3    H127854   2.487   3.336   2.362  1.9183 -2.1872 -1.2118
 2121TIP3    H227855   2.422   3.358   2.227  0.2470 -1.0081 -0.2563
 2122TIP3   OH227856   1.006   6.166   5.755 -0.0354  0.3520 -0.5782
 2122TIP3    H127857   0.989   6.237   5.817  1.1074  0.0486  0.1202
 2122TIP3    H227858   1.084   6.195   5.707  1.0802 -0.8182  0.4194
 2123TIP3   OH227859   3.505   5.186   1.990  0.2749 -0.7666 -0.2529
 2123TIP3    H127860   3.515   5.245   1.915 -2.5693 -0.9661 -0.9056
 2123TIP3    H227861   3.535   5.101   1.957 -1.4455 -0.9758 -1.4368
 2124TIP3   OH227862   0.949   5.449   1.610 -0.2563 -0.1800  0.3031
 2124TIP3    H127863   0.894   5.522   1.584  0.1651  0.3166  0.7709
 2124TIP3    H227864   0.978   5.471   1.699  1.4678  0.0503 -0.2782
 2125TIP3   OH227865   3.894   1.707   2.100 -0.1932 -0.0830 -0.0254
 2125TIP3    H127866   3.917   1.683   2.190 -0.0005  0.1758 -0.0023
 2125TIP3    H227867   3.875   1.800   2.105 -0.7914 -0.1950 -0.1421
 2126TIP3   OH227868   6.754   4.632   4.556 -0.5394  0.1398  0.2756
 2126TIP3    H127869   6.708   4.668   4.632 -0.3194  2.2050 -0.5115
 2126TIP3    H227870   6.821   4.697   4.535 -0.8413 -0.1803 -1.9254
 2127TIP3   OH227871   3.015   2.153  11.479  0.2913  0.4860  0.2236
 2127TIP3    H127872   3.070   2.080  11.509  2.8471  2.3024  0.2661
 2127TIP3    H227873   2.931   2.112  11.459  1.8635 -2.6388 -0.6735
 2128TIP3   OH227874   1.951   5.453  14.089 -0.0398  0.3386 -0.8258
 2128TIP3    H127875   2.030   5.490  14.128 -1.2802  1.1279  1.0599
 2128TIP3    H227876   1.901   5.529  14.058 -1.0772  0.0449  0.0605
 2129TIP3   OH227877   3.699   0.328   2.005  0.1565  0.9757  0.3953
 2129TIP3    H127878   3.675   0.395   2.070  1.8394  0.9974  1.0667
 2129TIP3    H227879   3.754   0.375   1.942 -1.7527  1.0356 -1.3284
 2130TIP3   OH227880   5.235   5.218   5.882  0.0362 -0.3095 -0.2075
 2130TIP3    H127881   5.269   5.164   5.954  0.1910 -0.8019 -0.6514
 2130TIP3    H227882   5.203   5.155   5.818 -0.9414  0.1406 -0.1746
 2131TIP3   OH227883   2.006   5.982  14.098  0.6052 -0.0185  0.7592
 2131TIP3    H127884   2.018   6.064  14.147 -0.0552  0.7672 -0.3483
 2131TIP3    H227885   1.952   6.007  14.023 -0.1944 -1.6137  0.7702
 2132TIP3   OH227886   4.690   0.392   2.139 -0.4373 -0.5366 -0.1776
 2132TIP3    H127887   4.667   0.452   2.068 -0.6991  2.0766  1.9649
 2132TIP3    H227888   4.782   0.413   2.159 -0.4142 -1.1135  0.3530
 2133TIP3   OH227889   0.174   5.385   4.251  0.1709  0.2960 -0.1404
 2133TIP3    H127890   0.240   5.396   4.319  0.7406 -0.2290 -0.5940
 2133TIP3    H227891   0.092   5.373   4.298  0.6894 -0.9216  0.4771
 2134TIP3   OH227892   3.169   2.154   3.900  0.5689 -0.3140  0.1134
 2134TIP3    H127893   3.169   2.168   3.805  0.4672  0.3197  0.2053
 2134TIP3    H227894   3.261   2.158   3.925  0.5422  0.2494  0.1418
 2135TIP3   OH227895   3.448   6.260   2.627 -0.0589 -0.2224 -0.1232
 2135TIP3    H127896   3.515   6.193   2.617 -0.2113 -0.5802  1.0828
 2135TIP3    H227897   3.441   6.301   2.541 -0.3769 -2.1464 -1.0613
 2136TIP3   OH227898   6.321   2.808  16.668 -0.3614 -0.4263  0.3011
 2136TIP3    H127899   6.316   2.746  16.740  0.1637  1.6286  2.2311
 2136TIP3    H227900   6.412   2.836  16.667 -0.2305 -0.7595 -1.5498
 2137TIP3   OH227901   6.564   0.832  10.991  0.6518 -0.2841 -0.4468
 2137TIP3    H127902   6.563   0.836  10.895 -0.1442 -1.3198 -0.5027
 2137TIP3    H227903   6.482   0.873  11.018  0.5159 -0.6870 -0.2444
 2138TIP3   OH227904   0.151   1.114  15.781 -0.2366 -0.7698  0.2316
 2138TIP3    H127905   0.151   1.166  15.861 -0.6314 -0.1210 -0.1868
 2138TIP3    H227906   0.243   1.111  15.754 -0.4522  1.7628 -1.0516
 2139TIP3   OH227907   5.146   2.253  13.235 -0.4962 -0.1640 -0.4891
 2139TIP3    H127908   5.173   2.264  13.143 -0.7131  1.2772 -0.3990
 2139TIP3    H227909   5.222   2.212  13.277 -0.3901 -0.8417 -1.2947
 2140TIP3   OH227910   2.363   2.997  15.407 -0.0124 -0.2384 -0.5918
 2140TIP3    H127911   2.286   2.962  15.452  0.7789 -0.4692  0.6222
 2140TIP3    H227912   2.343   3.090  15.394 -0.9278 -0.5113 -1.2612
 2141TIP3   OH227913   6.459   5.711  16.504  0.5851  0.1989 -0.1971
 2141TIP3    H127914   6.502   5.767  16.438  0.4313  0.6035  0.0435
 2141TIP3    H227915   6.397   5.769  16.547  1.6857  0.3310  1.2905
 2142TIP3   OH227916   6.402   4.617   4.101  0.1640 -0.0664  0.0703
 2142TIP3    H127917   6.399   4.534   4.053  1.4250  0.8486 -1.7682
 2142TIP3    H227918   6.429   4.593   4.189  1.9640 -1.5383 -0.7970
 2143TIP3   OH227919   5.114   1.398  15.120 -0.3560  0.0286  0.3742
 2143TIP3    H127920   5.124   1.405  15.215  3.7822 -1.2107  0.2309
 2143TIP3    H227921   5.101   1.305  15.104  2.2219 -0.3098 -0.2867
 2144TIP3   OH227922   4.945   3.207   0.459 -0.1692 -0.5496  0.4132
 2144TIP3    H127923   5.033   3.230   0.432  0.0078 -1.3286  0.2902
 2144TIP3    H227924   4.956   3.169   0.546 -0.4799  0.0694  0.7244
 2145TIP3   OH227925   0.488   0.612   0.297 -0.2135 -0.1390 -0.7053
 2145TIP3    H127926   0.443   0.679   0.245 -1.5826  0.0569  0.6593
 2145TIP3    H227927   0.453   0.529   0.265  0.2993 -0.1239 -1.3160
 2146TIP3   OH227928   3.312   3.435   2.100 -0.3731  0.9536  0.4547
 2146TIP3    H127929   3.250   3.496   2.061 -0.1994 -0.1626 -1.6669
 2146TIP3    H227930   3.269   3.404   2.180 -2.7674 -0.1248 -1.1595
 2147TIP3   OH227931   5.348   6.489  12.914  0.2012  0.0439  0.8846
 2147TIP3    H127932   5.255   6.494  12.890  0.2711 -0.8235  0.3991
 2147TIP3    H227933   5.348   6.456  13.004 -0.0027  1.5687  1.4641
 2148TIP3   OH227934   1.026   3.391  14.382  0.1915 -0.0105 -0.0198
 2148TIP3    H127935   1.011   3.342  14.463 -0.8518 -1.4972 -1.0709
 2148TIP3    H227936   1.120   3.380  14.364  0.3156 -0.1296  0.6690
 2149TIP3   OH227937   5.235   5.088  10.434 -0.0678  0.0282  0.0587
 2149TIP3    H127938   5.319   5.043  10.424 -0.5539 -1.2297  1.2675
 2149TIP3    H227939   5.255   5.181  10.424  1.7695 -0.1100  1.8254
 2150TIP3   OH227940   3.990   6.679  14.783  0.0116  0.1614  0.7439
 2150TIP3    H127941   3.903   6.640  14.772  0.1602  0.0796 -0.2178
 2150TIP3    H227942   3.974   6.773  14.781  0.0426  0.1609 -0.4712
 2151TIP3   OH227943   4.560   3.309  16.408 -0.0807  0.1666 -0.5239
 2151TIP3    H127944   4.596   3.222  16.389 -0.1618  0.2139 -0.9109
 2151TIP3    H227945   4.564   3.355  16.324 -2.0866 -0.2161 -0.8913
 2152TIP3   OH227946   6.821   6.666   3.674 -0.9758 -0.0832 -0.5800
 2152TIP3    H127947   6.793   6.712   3.595  0.0582  1.0590 -0.3109
 2152TIP3    H227948   6.865   6.587   3.641 -2.1418 -0.5558 -1.0677
 2153TIP3   OH227949   3.337   5.710   2.298  0.0877 -0.0341 -0.2963
 2153TIP3    H127950   3.295   5.782   2.345  0.6314 -0.4287  0.8515
 2153TIP3    H227951   3.396   5.671   2.363 -0.7590 -1.9926 -0.6218
 2154TIP3   OH227952   0.485   6.033  14.982 -0.1770 -0.2705 -0.7068
 2154TIP3    H127953   0.507   5.942  14.960 -0.2940 -0.4362 -0.1559
 2154TIP3    H227954   0.391   6.031  15.001  0.3015 -0.6258  2.0777
 2155TIP3   OH227955   5.309   6.266  15.846 -0.0252  0.4161 -0.1181
 2155TIP3    H127956   5.363   6.221  15.781  0.1011  0.9999 -0.4193
 2155TIP3    H227957   5.301   6.203  15.918  0.1059 -0.1096 -0.5543
 2156TIP3   OH227958   1.931   3.580  16.392 -0.2247 -0.7892 -0.0423
 2156TIP3    H127959   1.963   3.512  16.451  0.1031  0.1277  0.8665
 2156TIP3    H227960   1.878   3.533  16.328  0.5885 -1.9865  0.1280
 2157TIP3   OH227961   2.361   5.788   0.143  0.0813 -0.0474  0.3135
 2157TIP3    H127962   2.374   5.758   0.053  0.4241 -1.8345  0.9255
 2157TIP3    H227963   2.272   5.823   0.144 -0.4555 -1.3336 -0.3960
 2158TIP3   OH227964   1.347   4.750   5.712  0.5079  0.4319 -0.4419
 2158TIP3    H127965   1.419   4.764   5.774  1.0205  2.3913 -1.4255
 2158TIP3    H227966   1.318   4.660   5.730  2.2955  0.0614  0.8976
 2159TIP3   OH227967   1.594   0.998  15.188  0.3875  0.0295 -0.0557
 2159TIP3    H127968   1.625   0.973  15.275  1.3926  0.8378 -0.1638
 2159TIP3    H227969   1.539   0.924  15.160  1.1563 -0.8495  0.6968
 2160TIP3   OH227970   6.114   6.819  10.240 -0.6703  0.6198 -0.1840
 2160TIP3    H127971   6.148   6.908  10.239 -1.7871  1.0593 -0.7528
 2160TIP3    H227972   6.062   6.814  10.320 -0.9727  0.6349 -0.3752
 2161TIP3   OH227973   2.053   2.031   4.761  0.2001  0.5757  0.2032
 2161TIP3    H127974   1.975   1.977   4.771 -0.9158  1.7674 -1.4651
 2161TIP3    H227975   2.073   2.062   4.849 -1.2225  0.2451  0.6630
 2162TIP3   OH227976   6.145   6.020   1.702 -0.2103  0.2526  0.2251
 2162TIP3    H127977   6.141   6.014   1.797  2.2425 -0.1201  0.3826
 2162TIP3    H227978   6.133   5.930   1.672  2.8870 -0.3601  0.5023
 2163TIP3   OH227979   1.567   1.732  13.348 -0.4684 -0.2175 -0.0221
 2163TIP3    H127980   1.529   1.722  13.260 -1.8623  1.1430  0.3805
 2163TIP3    H227981   1.495   1.767  13.401  0.8149  0.5619  1.2708
 2164TIP3   OH227982   4.057   2.335  16.983 -0.0571  0.1349 -0.6213
 2164TIP3    H127983   3.988   2.298  16.929 -1.3953  2.3272 -0.5101
 2164TIP3    H227984   4.045   2.294  17.069  0.3225 -1.2577 -1.1973
 2165TIP3   OH227985   0.256   6.156   4.728 -0.1287 -0.2223 -0.3537
 2165TIP3    H127986   0.242   6.134   4.636  0.1626 -0.8252 -0.2585
 2165TIP3    H227987   0.174   6.196   4.755  0.2725  1.3032 -1.2553
 2166TIP3   OH227988   0.757   1.104   1.422 -0.1728 -0.0623  0.4273
 2166TIP3    H127989   0.664   1.105   1.402  0.1241 -1.1208 -1.1948
 2166TIP3    H227990   0.792   1.182   1.377 -0.1961  0.0290  0.5686
 2167TIP3   OH227991   4.735   6.209   3.223  0.2618 -0.4717  0.3153
 2167TIP3    H127992   4.748   6.185   3.314 -0.4411 -0.8177  0.3314
 2167TIP3    H227993   4.684   6.290   3.226  1.2158  0.1371  0.2408
 2168TIP3   OH227994   6.313   4.213  10.576  0.4759 -0.3076  0.0397
 2168TIP3    H127995   6.270   4.188  10.658 -0.2988  1.8204  0.3635
 2168TIP3    H227996   6.370   4.285  10.601  0.0923  0.4927 -1.3010
 2169TIP3   OH227997   0.371   5.684  14.237 -0.0333 -0.8186 -0.1788
 2169TIP3    H127998   0.320   5.765  14.234  1.5512  0.1915 -1.9164
 2169TIP3    H227999   0.306   5.615  14.222 -1.3102  0.1543  0.6182
 2170TIP3   OH228000   0.368   4.647   5.447 -0.2397 -0.5275  0.4072
 2170TIP3    H128001   0.314   4.719   5.480 -1.3918 -0.2457 -1.9389
 2170TIP3    H228002   0.362   4.580   5.515 -1.7137  0.3726  1.2218
 2171TIP3   OH228003   6.414   5.359  11.751  0.2915  0.2213  0.1196
 2171TIP3    H128004   6.455   5.408  11.822 -2.5539 -0.2286  2.2633
 2171TIP3    H228005   6.445   5.269  11.762 -0.9641 -0.0621  1.5365
 2172TIP3   OH228006   6.588   6.742  12.454 -0.0323  0.0910 -0.3532
 2172TIP3    H128007   6.578   6.675  12.386  1.0419  1.5708 -2.0703
 2172TIP3    H228008   6.653   6.802  12.418 -1.1286  2.1971  0.9983
 2173TIP3   OH228009   1.473   4.188   3.580 -1.1227  0.6959  0.5023
 2173TIP3    H128010   1.505   4.222   3.496 -0.4773 -1.6309 -0.2976
 2173TIP3    H228011   1.552   4.174   3.632 -0.8802 -2.5868 -0.4892
 2174TIP3   OH228012   3.254   3.807  13.307 -0.1393 -0.0123 -0.5103
 2174TIP3    H128013   3.217   3.803  13.219 -2.3078 -0.5863  0.3604
 2174TIP3    H228014   3.289   3.719  13.323  1.7391  0.5275 -1.3282
 2175TIP3   OH228015   3.107   1.212  12.147 -0.1827 -0.9676  0.7177
 2175TIP3    H128016   3.028   1.187  12.196 -0.4435 -3.8516 -0.8933
 2175TIP3    H228017   3.081   1.202  12.055  0.0588  4.8714 -0.3486
 2176TIP3   OH228018   0.629   4.463  12.914  0.3724 -0.1805 -0.4673
 2176TIP3    H128019   0.695   4.510  12.966 -1.7317  2.1712  0.2860
 2176TIP3    H228020   0.638   4.497  12.826  2.0462 -2.0776 -1.1062
 2177TIP3   OH228021   2.893   1.763  16.050 -0.6410 -0.3748 -0.0918
 2177TIP3    H128022   2.884   1.734  16.141  0.0855 -0.1092  0.0712
 2177TIP3    H228023   2.858   1.691  15.998 -0.8437 -0.6268  0.3850
 2178TIP3   OH228024   0.581   4.354   0.489 -0.1378  0.0443  0.7433
 2178TIP3    H128025   0.600   4.264   0.463  0.6107  0.5076 -0.4060
 2178TIP3    H228026   0.523   4.346   0.565 -0.0206 -1.3961  0.7007
 2179TIP3   OH228027   1.793   2.864  13.730 -0.1713  0.2932  0.1571
 2179TIP3    H128028   1.730   2.808  13.684  0.7834  1.0283 -2.1565
 2179TIP3    H228029   1.771   2.953  13.702 -0.1499  0.8871  1.9104
 2180TIP3   OH228030   0.187   2.401  11.316  0.0959 -0.3202 -0.3767
 2180TIP3    H128031   0.206   2.340  11.245 -0.1174 -1.5597  0.5933
 2180TIP3    H228032   0.271   2.412  11.361 -0.1967 -1.2070  0.4197
 2181TIP3   OH228033   3.501   4.546  13.416  0.4290 -0.0268 -1.0322
 2181TIP3    H128034   3.407   4.548  13.401  0.6492 -1.3340 -2.9516
 2181TIP3    H228035   3.520   4.456  13.443  0.9189  0.7229  1.3837
 2182TIP3   OH228036   5.746   5.369   1.732  0.3686  0.3346 -0.2202
 2182TIP3    H128037   5.748   5.300   1.666  0.4468 -0.2887  0.4250
 2182TIP3    H228038   5.825   5.355   1.784 -0.3062  0.0686  0.7550
 2183TIP3   OH228039   1.015   5.748  17.064 -0.0673  0.1119  0.1255
 2183TIP3    H128040   1.051   5.801  16.992 -0.9994 -1.5205 -1.6163
 2183TIP3    H228041   1.092   5.716  17.110  0.6490 -0.4065 -1.3673
 2184TIP3   OH228042   4.037   1.424  13.649  0.1165 -0.0037 -0.2023
 2184TIP3    H128043   3.971   1.393  13.712 -0.0303 -0.4364 -0.5568
 2184TIP3    H228044   4.080   1.344  13.619  0.4686  0.2367 -0.3455
 2185TIP3   OH228045   0.092   2.557   5.535  0.1348 -0.4078  0.0181
 2185TIP3    H128046   0.154   2.526   5.600  0.0179 -1.2796 -0.2668
 2185TIP3    H228047   0.082   2.650   5.553 -0.0959 -0.6823  1.4090
 2186TIP3   OH228048   6.440   1.715  12.066 -0.1375 -0.2056 -0.6219
 2186TIP3    H128049   6.473   1.649  12.127 -0.0860 -0.3301 -0.7847
 2186TIP3    H228050   6.371   1.670  12.017 -0.4121 -0.0070 -0.4227
 2187TIP3   OH228051   5.396   0.556  11.685 -0.3472 -0.2308 -0.0834
 2187TIP3    H128052   5.316   0.596  11.719 -0.4954 -1.3149  0.9349
 2187TIP3    H228053   5.467   0.600  11.732 -0.3194  0.7617 -1.0198
 2188TIP3   OH228054   0.428   2.932   0.580  0.1812 -0.2101 -0.4553
 2188TIP3    H128055   0.488   2.911   0.652  0.1683 -0.5745 -0.5487
 2188TIP3    H228056   0.378   2.851   0.566  0.4635 -0.2774 -1.1418
 2189TIP3   OH228057   3.896   4.859  14.761 -0.3986 -0.4325 -0.1032
 2189TIP3    H128058   3.890   4.945  14.719 -2.2302  0.8558  2.5227
 2189TIP3    H228059   3.860   4.798  14.696 -1.2917  1.1417 -1.1460
 2190TIP3   OH228060   5.306   2.851   5.939  0.4828 -0.0778 -0.3031
 2190TIP3    H128061   5.259   2.932   5.915 -0.2260 -0.3342  0.1671
 2190TIP3    H228062   5.379   2.846   5.878  1.4073  1.6984  0.5721
 2191TIP3   OH228063   4.454   3.815  15.513 -0.0561 -0.3862  0.7532
 2191TIP3    H128064   4.537   3.857  15.487 -0.5060 -0.3020 -0.6549
 2191TIP3    H228065   4.387   3.872  15.475 -0.6946 -2.2181 -1.0649
 2192TIP3   OH228066   2.293   0.642   5.123  0.1470 -0.5150 -0.1126
 2192TIP3    H128067   2.341   0.594   5.055  2.5191 -1.0012  1.7807
 2192TIP3    H228068   2.224   0.582   5.151 -0.5695 -0.4870 -1.7194
 2193TIP3   OH228069   3.581   6.306  15.375  0.7093  0.3219 -0.2831
 2193TIP3    H128070   3.643   6.282  15.444  0.1612 -0.5166 -0.0725
 2193TIP3    H228071   3.625   6.377  15.328  1.1390  0.8617  0.8722
 2194TIP3   OH228072   4.622   2.460   2.379  0.3949  0.1674 -0.0812
 2194TIP3    H128073   4.663   2.375   2.357  0.4656 -0.0492  0.8504
 2194TIP3    H228074   4.559   2.475   2.309  1.0466 -0.2036 -0.7645
 2195TIP3   OH228075   0.740   3.401   0.177  0.0476 -0.3290  0.8672
 2195TIP3    H128076   0.789   3.363   0.250  1.2377  1.6823  1.1809
 2195TIP3    H228077   0.791   3.378   0.100 -0.6881 -1.6200  0.7422
 2196TIP3   OH228078   2.359   5.363   5.106  0.4362  0.1269 -0.1333
 2196TIP3    H128079   2.330   5.284   5.061 -0.3861  1.3833 -1.9073
 2196TIP3    H228080   2.453   5.368   5.088  0.7435 -1.0616  1.0275
 2197TIP3   OH228081   3.479   3.426   3.635  0.0384  0.1600  0.3111
 2197TIP3    H128082   3.432   3.498   3.591  3.1965  1.1692 -1.7872
 2197TIP3    H228083   3.433   3.347   3.606 -0.1937  1.0497 -1.9698
 2198TIP3   OH228084   6.696   3.819   2.781  0.3255  0.4355 -0.4050
 2198TIP3    H128085   6.778   3.851   2.744  0.6162  0.8085  0.5416
 2198TIP3    H228086   6.710   3.725   2.794  0.2873  0.3359 -1.0512
 2199TIP3   OH228087   5.304   4.576  13.989  0.8069 -0.0950 -0.5422
 2199TIP3    H128088   5.233   4.532  13.942  0.0971  0.0565  0.3443
 2199TIP3    H228089   5.259   4.624  14.059  1.8366 -0.4656  0.3935
 2200TIP3   OH228090   3.653   1.751   2.869 -0.7955 -0.2814  0.5666
 2200TIP3    H128091   3.625   1.791   2.786 -0.1905  1.6870  1.2736
 2200TIP3    H228092   3.659   1.824   2.930  2.9161 -1.0208  1.2752
 2201TIP3   OH228093   3.947   2.085   4.867  0.1908  0.5185 -0.5628
 2201TIP3    H128094   3.860   2.082   4.908  0.7798 -0.6005  0.7015
 2201TIP3    H228095   4.003   2.127   4.932  0.8392  0.0865 -0.8240
 2202TIP3   OH228096   1.035   5.929   1.089  0.1626  0.0812  0.2347
 2202TIP3    H128097   1.054   6.018   1.061  0.6447  0.3095  1.2329
 2202TIP3    H228098   0.941   5.918   1.074  0.3450  0.2891 -1.1173
 2203TIP3   OH228099   3.494   1.688   3.203 -0.7136  0.2225 -0.1781
 2203TIP3    H128100   3.431   1.744   3.158 -0.9136 -0.5668 -0.8980
 2203TIP3    H228101   3.447   1.657   3.281 -0.6122  1.0114  0.2077
 2204TIP3   OH228102   5.230   3.221  12.888 -0.2919 -0.1510 -0.2137
 2204TIP3    H128103   5.237   3.126  12.898 -3.0962 -0.4319 -0.1366
 2204TIP3    H228104   5.138   3.237  12.868  0.1921  2.5388 -0.7521
 2205TIP3   OH228105   3.803   3.135  14.743 -0.2183  0.0939  0.0487
 2205TIP3    H128106   3.807   3.230  14.750  0.2328  0.1011 -0.2787
 2205TIP3    H228107   3.857   3.114  14.666  1.4325 -0.5954  1.3416
 2206TIP3   OH228108   5.198   1.068  14.759  0.0019 -0.4460 -0.0991
 2206TIP3    H128109   5.228   1.052  14.670  1.9367  1.3402  0.1504
 2206TIP3    H228110   5.199   0.981  14.800  0.9941 -1.0326 -1.2790
 2207TIP3   OH228111   4.608   6.461  14.721  0.3391 -0.1391  0.1853
 2207TIP3    H128112   4.532   6.435  14.773  0.3729 -0.0341  0.2884
 2207TIP3    H228113   4.641   6.539  14.765  1.8243 -1.4126  1.4305
 2208TIP3   OH228114   5.316   6.181   5.390  0.1153 -0.3906  0.0953
 2208TIP3    H128115   5.406   6.164   5.418  1.0397  0.5643 -2.0444
 2208TIP3    H228116   5.325   6.236   5.313 -2.3483  0.0389  0.0287
 2209TIP3   OH228117   0.027   4.736  15.269 -0.2339 -1.0458  0.0202
 2209TIP3    H128118  -0.020   4.819  15.263  1.3225 -0.1317 -0.0673
 2209TIP3    H228119  -0.042   4.670  15.278 -1.5741  0.0820 -1.4268
 2210TIP3   OH228120   2.692   3.031   2.706 -0.1020 -0.5880 -0.1411
 2210TIP3    H128121   2.751   3.043   2.632 -0.2292  0.4799 -0.0795
 2210TIP3    H228122   2.722   2.950   2.747 -0.2023 -1.3442 -1.5146
 2211TIP3   OH228123   2.116   0.393  12.253  0.7537 -0.1021  0.3466
 2211TIP3    H128124   2.159   0.398  12.339  1.1034 -2.2607  0.3672
 2211TIP3    H228125   2.166   0.453  12.198  1.0628  0.6796  1.4414
 2212TIP3   OH228126   1.875   1.482  12.887 -0.3305 -0.3398  0.1394
 2212TIP3    H128127   1.845   1.573  12.884  0.3553 -0.0533  1.3736
 2212TIP3    H228128   1.947   1.478  12.824 -1.4505 -0.4761 -1.1778
 2213TIP3   OH228129   6.110   3.981   4.108  0.2478  0.0740 -0.1289
 2213TIP3    H128130   6.122   3.888   4.086  2.2104  0.4050 -0.7100
 2213TIP3    H228131   6.045   3.982   4.177  1.9128 -1.9754  1.6049
 2214TIP3   OH228132   2.634   0.500   4.688  0.1038 -0.4170  0.2168
 2214TIP3    H128133   2.628   0.461   4.601 -0.8815  1.6092 -0.6885
 2214TIP3    H228134   2.727   0.519   4.699  0.3633 -1.5140  0.0128
 2215TIP3   OH228135   1.724   5.770   1.975 -0.3154  0.1225 -0.4865
 2215TIP3    H128136   1.645   5.824   1.967 -0.6787 -0.2493  0.4547
 2215TIP3    H228137   1.694   5.691   2.021  1.0132  0.8936  1.8256
 2216TIP3   OH228138   6.005   6.616  17.138 -0.1349  0.1555 -0.2700
 2216TIP3    H128139   5.970   6.606  17.226 -0.2391 -0.5595 -0.3873
 2216TIP3    H228140   6.089   6.659  17.150  0.1226 -0.4755  0.2242
 2217TIP3   OH228141   0.641   2.618  10.308 -0.2847 -0.4749 -0.7613
 2217TIP3    H128142   0.649   2.535  10.354  0.1980 -0.2390 -0.4146
 2217TIP3    H228143   0.728   2.657  10.313 -0.6287  0.2702 -0.5120
 2218TIP3   OH228144   2.368   5.873  12.563 -0.1565  0.2382 -0.1333
 2218TIP3    H128145   2.311   5.846  12.492  0.0749  1.7438 -0.9430
 2218TIP3    H228146   2.309   5.910  12.629 -0.2964 -0.3569  0.0811
 2219TIP3   OH228147   4.622   5.978   3.554  0.6696 -0.9863  0.0807
 2219TIP3    H128148   4.718   5.975   3.554  0.7065 -0.6106  1.4954
 2219TIP3    H228149   4.599   5.988   3.647 -0.7279 -0.7874 -0.2742
 2220TIP3   OH228150   6.854   0.099  14.661  0.6540  0.8071 -0.1304
 2220TIP3    H128151   6.840   0.141  14.746 -0.8002  0.7873 -0.3394
 2220TIP3    H228152   6.949   0.105  14.647  0.7692  1.8802  0.9328
 2221TIP3   OH228153   2.816   5.956   5.701 -0.4513  0.5939  0.3105
 2221TIP3    H128154   2.876   5.987   5.769  0.1468  1.0638 -0.3990
 2221TIP3    H228155   2.746   6.021   5.700 -1.4456 -0.4091  1.7167
 2222TIP3   OH228156   4.342   6.781   1.006  0.0670 -0.7072  0.1285
 2222TIP3    H128157   4.432   6.763   0.979  0.4007  1.4668 -0.4092
 2222TIP3    H228158   4.333   6.876   0.998 -1.4029 -0.4852  2.8902
 2223TIP3   OH228159   3.375   1.289   0.246  0.0006 -0.0521  0.6402
 2223TIP3    H128160   3.384   1.200   0.211 -0.0101 -0.0491  0.6301
 2223TIP3    H228161   3.334   1.277   0.331 -0.3582 -0.0246  0.4706
 2224TIP3   OH228162   1.854   3.676  15.846 -0.3351 -0.0743 -0.2639
 2224TIP3    H128163   1.825   3.763  15.876  1.4162  0.4739 -0.0193
 2224TIP3    H228164   1.874   3.629  15.927  0.7151  0.0465 -0.4416
 2225TIP3   OH228165   2.546   5.286  15.851 -0.1041  1.0229 -0.1348
 2225TIP3    H128166   2.512   5.212  15.802  1.2575 -0.8554  1.6032
 2225TIP3    H228167   2.489   5.291  15.928  2.1187 -0.8895  1.7877
 2226TIP3   OH228168   0.749   6.551  13.723  0.8511 -0.7374  0.3136
 2226TIP3    H128169   0.808   6.529  13.651  0.4016 -3.6944  0.7052
 2226TIP3    H228170   0.662   6.552  13.682  0.7514 -0.7498  0.5280
 2227TIP3   OH228171   6.046   0.085   2.842  1.0628  0.5435 -0.7353
 2227TIP3    H128172   5.958   0.086   2.804  0.6416  0.9979  0.2200
 2227TIP3    H228173   6.049   0.003   2.892  0.7855  1.0358  0.1069
 2228TIP3   OH228174   6.427   5.739  12.938 -0.6284  0.3353 -0.2062
 2228TIP3    H128175   6.383   5.824  12.949 -1.7934 -0.2845  0.1062
 2228TIP3    H228176   6.367   5.689  12.883 -0.2584 -0.5130  0.1558
 2229TIP3   OH228177   0.460   0.053  11.394 -0.1616 -0.2643  0.4540
 2229TIP3    H128178   0.488   0.105  11.470  0.2515 -1.5973  1.2527
 2229TIP3    H228179   0.493   0.102  11.319  0.5259  0.4531  1.1880
 2230TIP3   OH228180   3.919   6.429   1.632  0.6343  0.4573 -0.6283
 2230TIP3    H128181   3.869   6.484   1.692  2.2310  2.1122 -0.7139
 2230TIP3    H228182   3.888   6.455   1.545 -0.7479 -1.0001 -0.6070
 2231TIP3   OH228183   4.917   5.539  17.103 -0.4709  0.0647 -0.0211
 2231TIP3    H128184   4.854   5.488  17.152  0.3569 -0.7012  0.2772
 2231TIP3    H228185   4.994   5.544  17.161  0.6249 -1.0806 -1.3251
 2232TIP3   OH228186   3.587   2.656  10.760  0.2873 -0.1111 -0.3909
 2232TIP3    H128187   3.679   2.649  10.784  0.2380  1.3956  0.3664
 2232TIP3    H228188   3.561   2.567  10.735  1.2306 -1.1232  2.0120
 2233TIP3   OH228189   4.550   0.880   4.973  0.6615  0.2560  0.0095
 2233TIP3    H128190   4.532   0.967   4.936 -0.4966  0.5014  1.0966
 2233TIP3    H228191   4.501   0.820   4.916  1.0238  0.3593 -0.4186
 2234TIP3   OH228192   4.364   4.690  14.393  0.3010 -0.7193 -0.0892
 2234TIP3    H128193   4.314   4.755  14.343 -1.4872 -2.2861 -0.4804
 2234TIP3    H228194   4.339   4.606  14.353  0.1459 -1.8807  2.3142
 2235TIP3   OH228195   1.022   0.284  13.788  0.1159 -0.0800  0.5701
 2235TIP3    H128196   1.000   0.191  13.786 -1.7007  0.2593  2.1099
 2235TIP3    H228197   0.948   0.327  13.745  0.6265  0.7050  0.4548
 2236TIP3   OH228198   1.595   1.449   5.286  0.0881 -0.7329  0.4370
 2236TIP3    H128199   1.561   1.467   5.198  2.5626  0.1514 -0.4257
 2236TIP3    H228200   1.548   1.510   5.343 -1.4161 -1.1970 -0.2642
 2237TIP3   OH228201   3.993   4.383   1.442 -0.0450  0.2004 -0.4966
 2237TIP3    H128202   3.923   4.415   1.498 -1.1827  0.0793 -1.7900
 2237TIP3    H228203   4.017   4.458   1.388 -0.4077 -0.1943 -1.2381
 2238TIP3   OH228204   2.061   0.131   1.499 -0.1511  0.4217 -0.4995
 2238TIP3    H128205   2.127   0.074   1.539  0.7531  1.3062 -0.6813
 2238TIP3    H228206   2.111   0.206   1.466 -1.3316  1.4364 -0.0569
 2239TIP3   OH228207   2.634   0.187  16.817 -0.0552 -0.2941  0.3046
 2239TIP3    H128208   2.545   0.212  16.790  0.0894 -0.5787 -0.4726
 2239TIP3    H228209   2.688   0.263  16.795  0.2669 -0.9647 -1.4033
 2240TIP3   OH228210   6.424   6.843   6.640  0.2284 -0.3709 -0.4645
 2240TIP3    H128211   6.328   6.846   6.638  0.1595 -0.7133  1.0800
 2240TIP3    H228212   6.445   6.770   6.699  1.4568 -0.6841 -1.2384
 2241TIP3   OH228213   3.910   0.065  14.429 -0.4236 -0.3829 -0.0382
 2241TIP3    H128214   3.949   0.123  14.363  1.2359  0.2813  1.4196
 2241TIP3    H228215   3.839   0.116  14.466 -0.8801 -0.4664 -0.7759
 2242TIP3   OH228216   6.005   0.023  14.093 -0.5906 -0.6065 -0.2356
 2242TIP3    H128217   5.920   0.015  14.136 -1.3222  1.7565 -1.1004
 2242TIP3    H228218   5.997   0.099  14.036  0.7004 -2.8079 -3.7106
 2243TIP3   OH228219   5.371   6.303   2.508  0.2675  0.2873  0.2860
 2243TIP3    H128220   5.448   6.245   2.512  0.2339  0.1659 -0.5905
 2243TIP3    H228221   5.306   6.259   2.563  0.8445  0.4410  1.1194
 2244TIP3   OH228222   6.301   1.286  16.096 -0.4644 -0.7930 -0.2046
 2244TIP3    H128223   6.239   1.298  16.024 -0.8745 -1.3181  0.0509
 2244TIP3    H228224   6.252   1.308  16.174  0.2583  0.7081 -0.1381
 2245TIP3   OH228225   0.127   0.197  12.293  0.3028 -0.2428 -0.3841
 2245TIP3    H128226   0.161   0.133  12.231 -0.1347 -0.6213 -0.2466
 2245TIP3    H228227   0.093   0.268  12.239 -1.2097 -1.1297 -0.6578
 2246TIP3   OH228228   0.182   0.173  14.899 -0.6746 -0.1563 -0.4464
 2246TIP3    H128229   0.267   0.180  14.856  0.2710  1.4829  1.5666
 2246TIP3    H228230   0.196   0.113  14.972 -0.3215  2.3992  1.7491
 2247TIP3   OH228231   3.444   5.079   5.073 -0.1773 -0.6322  0.3078
 2247TIP3    H128232   3.473   5.115   4.989 -1.2146 -0.1006  0.1518
 2247TIP3    H228233   3.349   5.068   5.063 -0.2306 -1.1114  1.2123
 2248TIP3   OH228234   2.218   4.328  14.034  0.0218  0.1164  0.4236
 2248TIP3    H128235   2.267   4.392  14.085 -0.0059 -0.1804  0.8375
 2248TIP3    H228236   2.267   4.318  13.953 -2.1135  3.7409 -1.5730
 2249TIP3   OH228237   1.967   3.761   1.706 -0.0665  0.1366 -0.0138
 2249TIP3    H128238   2.034   3.822   1.736 -0.8213  1.5086 -0.9895
 2249TIP3    H228239   1.930   3.803   1.628 -1.8497 -0.7057  0.3293
 2250TIP3   OH228240   5.825   3.918  15.224  0.4304 -0.4014 -0.1053
 2250TIP3    H128241   5.821   3.903  15.130  2.1291 -1.4533 -0.0456
 2250TIP3    H228242   5.750   3.975  15.242 -0.0567 -0.3557 -2.0419
 2251TIP3   OH228243   4.802   3.720  15.971  0.2285  0.1669  0.4370
 2251TIP3    H128244   4.859   3.762  15.907  0.7177  0.5116  1.0856
 2251TIP3    H228245   4.713   3.742  15.942  0.4482  0.5555  0.0413
 2252TIP3   OH228246   1.029   1.362  15.592  0.1666  0.1142 -0.1990
 2252TIP3    H128247   0.957   1.424  15.581 -0.0480 -0.0375  0.3507
 2252TIP3    H228248   1.067   1.383  15.676  1.8575  1.3023 -1.2021
 2253TIP3   OH228249   2.449   5.335  12.328  0.2187  0.5511  0.5229
 2253TIP3    H128250   2.465   5.429  12.335 -0.9489  0.7146  1.1843
 2253TIP3    H228251   2.358   5.328  12.299  0.9004 -0.3589 -1.6528
 2254TIP3   OH228252   3.306   5.406  16.762  0.3536 -0.2368  0.6626
 2254TIP3    H128253   3.263   5.487  16.735  0.8054 -0.7036 -1.6687
 2254TIP3    H228254   3.389   5.435  16.800  1.0485  0.4155 -1.2160
 2255TIP3   OH228255   1.478   0.297   5.567 -0.5182 -0.1031 -0.4813
 2255TIP3    H128256   1.418   0.245   5.514  2.1946 -2.3010 -1.6084
 2255TIP3    H228257   1.527   0.233   5.619 -0.1594  1.7079  1.5527
 2256TIP3   OH228258   2.830   5.693  14.686 -0.5897 -0.0143  0.3885
 2256TIP3    H128259   2.832   5.783  14.719 -2.0768 -0.2191  1.1646
 2256TIP3    H228260   2.801   5.641  14.761 -0.7389 -0.9893 -0.3247
 2257TIP3   OH228261   2.818   6.728  12.281  0.2393  0.0702 -0.5579
 2257TIP3    H128262   2.848   6.751  12.369  0.1402  2.1168 -1.0106
 2257TIP3    H228263   2.821   6.810  12.232 -2.3730 -0.3986 -1.7018
 2258TIP3   OH228264   4.871   0.578   6.256 -0.3113  0.3233 -1.3397
 2258TIP3    H128265   4.776   0.567   6.249 -0.3451 -0.1941 -0.2343
 2258TIP3    H228266   4.907   0.491   6.236 -0.0728  0.4649 -1.5433
 2259TIP3   OH228267   2.237   1.817  14.738  0.6673  0.4494 -0.1996
 2259TIP3    H128268   2.247   1.762  14.816  1.7685  0.5621 -0.2369
 2259TIP3    H228269   2.144   1.812  14.716  0.2147  0.9255  1.4916
 2260TIP3   OH228270   3.213   2.073   0.631  0.6152  0.2850 -0.6204
 2260TIP3    H128271   3.224   1.989   0.587  0.8952 -0.0743  0.1305
 2260TIP3    H228272   3.238   2.057   0.722 -4.5074 -0.2903  1.0103
 2261TIP3   OH228273   1.880   0.509  15.024  0.1067  0.2202 -0.0011
 2261TIP3    H128274   1.845   0.471  14.943 -1.5361 -0.7898  1.1241
 2261TIP3    H228275   1.972   0.485  15.024 -0.1965 -1.0300 -0.8854
 2262TIP3   OH228276   6.543   5.993   5.929  0.2462 -0.3094  0.2785
 2262TIP3    H128277   6.489   5.955   5.860 -0.3634  0.1160  0.5166
 2262TIP3    H228278   6.633   5.978   5.900 -0.0000 -0.0561 -0.6536
 2263TIP3   OH228279   5.202   2.051   2.339  0.2862 -0.0521  0.2386
 2263TIP3    H128280   5.252   1.976   2.371 -0.0467  0.0796  1.0982
 2263TIP3    H228281   5.264   2.123   2.338 -0.1722  0.4685  2.7092
 2264TIP3   OH228282   0.308   1.970  16.695  0.1007 -0.6632 -0.6112
 2264TIP3    H128283   0.364   1.962  16.772 -1.2022  1.5182  0.6722
 2264TIP3    H228284   0.323   2.059  16.664 -0.9181 -0.8410 -1.6728
 2265TIP3   OH228285   5.038   4.006   3.300  0.0839  0.0147 -0.2651
 2265TIP3    H128286   5.018   4.087   3.253  0.7988  1.0526  1.1498
 2265TIP3    H228287   5.068   4.035   3.386  2.6528 -1.6264 -0.4841
 2266TIP3   OH228288   1.782   5.489   5.624 -0.1266  0.3764 -0.1882
 2266TIP3    H128289   1.853   5.426   5.637  0.3689  1.1594  1.2305
 2266TIP3    H228290   1.736   5.491   5.708 -0.1342  1.8523 -0.1886
 2267TIP3   OH228291   1.062   1.719  15.839  0.1393 -0.4553 -0.1623
 2267TIP3    H128292   1.147   1.757  15.862 -0.7348  0.5248  1.7090
 2267TIP3    H228293   1.078   1.625  15.836  1.1173 -0.3597  1.0779
 2268TIP3   OH228294   1.141   3.896   0.948 -0.7604  0.1549  0.2641
 2268TIP3    H128295   1.166   3.809   0.915 -0.4019  0.0064  0.9288
 2268TIP3    H228296   1.045   3.891   0.956 -0.6544 -0.5568  1.3347
 2269TIP3   OH228297   0.107   5.777   1.969 -0.1142  0.0565 -0.4766
 2269TIP3    H128298   0.027   5.744   2.008 -0.5166  1.1661 -0.3241
 2269TIP3    H228299   0.089   5.870   1.952  1.1333  0.3250 -0.4403
 2270TIP3   OH228300   4.143   3.070  16.800  0.4336  0.2300  0.0696
 2270TIP3    H128301   4.234   3.056  16.776  0.7368  1.7201  0.2897
 2270TIP3    H228302   4.146   3.108  16.888 -0.4118  0.1590  0.1428
 2271TIP3   OH228303   4.541   0.286   5.555 -0.6489  0.4993  0.0467
 2271TIP3    H128304   4.598   0.336   5.496 -1.6317  0.0526 -1.3154
 2271TIP3    H228305   4.455   0.327   5.545 -1.1256 -0.4764  0.0896
 2272TIP3   OH228306   4.864   5.451  15.393  0.0428  0.0979 -0.1857
 2272TIP3    H128307   4.808   5.396  15.338  1.1484 -1.0060 -0.2244
 2272TIP3    H228308   4.871   5.404  15.476  1.1273  0.0696 -0.2762
 2273TIP3   OH228309   4.105   3.890   1.370  0.9429 -0.2445  0.3451
 2273TIP3    H128310   4.025   3.906   1.319  1.2323 -0.1199 -0.0699
 2273TIP3    H228311   4.136   3.805   1.340 -0.5526 -1.6868  2.4915
 2274TIP3   OH228312   1.308   1.144   0.341  0.4070  0.1416  0.3459
 2274TIP3    H128313   1.241   1.176   0.401  0.5892 -1.1952  1.2947
 2274TIP3    H228314   1.262   1.079   0.287  0.3681  0.9720 -0.6636
 2275TIP3   OH228315   5.399   5.950  11.666  0.0000 -0.3030 -0.5638
 2275TIP3    H128316   5.404   5.868  11.618  0.4319 -2.0510  2.2189
 2275TIP3    H228317   5.490   5.970  11.689 -0.3070 -0.5602  1.0215
 2276TIP3   OH228318   6.438   1.519   1.960 -0.2025  0.0804 -0.0790
 2276TIP3    H128319   6.514   1.565   1.996 -0.1760 -0.0406  0.0218
 2276TIP3    H228320   6.401   1.580   1.895  0.0250  0.1098 -0.1828
 2277TIP3   OH228321   0.662   5.555  11.617  0.0324  0.2243 -0.1517
 2277TIP3    H128322   0.727   5.485  11.625 -1.3129 -1.0047  0.2299
 2277TIP3    H228323   0.695   5.609  11.545  0.9315 -0.9709 -0.6736
 2278TIP3   OH228324   2.187   2.591   4.524  0.0611  0.1250 -0.2477
 2278TIP3    H128325   2.258   2.593   4.459  0.6492  2.1889  0.3801
 2278TIP3    H228326   2.142   2.675   4.512 -0.0730  0.3785  1.7221
 2279TIP3   OH228327   3.218   1.913  15.730  0.6999  0.2151  0.4055
 2279TIP3    H128328   3.303   1.885  15.696  1.1574  2.0372 -0.0670
 2279TIP3    H228329   3.191   1.985  15.673 -0.1865  1.0233  1.7698
 2280TIP3   OH228330   4.809   0.641  15.860  0.2544 -0.3746 -0.1638
 2280TIP3    H128331   4.899   0.641  15.892 -0.1482  1.0501  1.0377
 2280TIP3    H228332   4.813   0.589  15.780  2.0124 -0.8841  0.2023
 2281TIP3   OH228333   2.948   3.436  16.231 -0.4941 -0.0022 -0.5927
 2281TIP3    H128334   3.007   3.444  16.306  1.7887  0.0710 -2.2834
 2281TIP3    H228335   2.922   3.525  16.211  1.5095  0.3779 -1.7746
 2282TIP3   OH228336   3.841   4.173   4.086 -0.3493 -0.4022 -0.9816
 2282TIP3    H128337   3.746   4.187   4.093 -0.4166 -0.5673 -1.4940
 2282TIP3    H228338   3.853   4.080   4.102  0.0286  0.0475  1.7563
 2283TIP3   OH228339   1.275   5.913   3.881 -0.2596 -0.4554  0.4195
 2283TIP3    H128340   1.249   5.982   3.942 -1.8885 -2.3044  1.9626
 2283TIP3    H228341   1.235   5.833   3.917  2.3120 -2.3948 -0.7386
 2284TIP3   OH228342   3.102   4.024  14.450 -0.1979 -0.4606 -0.9068
 2284TIP3    H128343   3.103   4.119  14.465  1.8724 -0.9002  3.0374
 2284TIP3    H228344   3.014   3.996  14.478 -0.4234  0.1493 -0.9856
 2285TIP3   OH228345   5.372   6.724  14.605  0.4657 -0.3898 -0.3247
 2285TIP3    H128346   5.315   6.796  14.579  0.7969 -0.7632 -2.2431
 2285TIP3    H228347   5.317   6.646  14.600  0.6401 -0.5173 -0.3044
 2286TIP3   OH228348   3.867   3.968  12.594 -0.3389 -0.1094  0.5773
 2286TIP3    H128349   3.941   3.975  12.654  0.6768  0.6240 -0.7224
 2286TIP3    H228350   3.861   3.875  12.573 -0.9622 -0.4399  2.0895
 2287TIP3   OH228351   3.246   5.854  13.303 -0.3222 -0.4048 -0.3845
 2287TIP3    H128352   3.279   5.791  13.367  0.5388  0.4522  0.0312
 2287TIP3    H228353   3.260   5.811  13.218 -0.7148 -1.2021 -0.0537
 2288TIP3   OH228354   5.713   0.791   1.427 -0.0776  0.2024  0.7056
 2288TIP3    H128355   5.690   0.860   1.489  0.8835  1.7758 -0.6203
 2288TIP3    H228356   5.631   0.746   1.410 -0.7795  1.1796  1.4119
 2289TIP3   OH228357   4.625   2.579   4.097 -0.6919  0.5071 -0.7725
 2289TIP3    H128358   4.566   2.560   4.025 -0.1349 -0.3048 -1.0351
 2289TIP3    H228359   4.709   2.599   4.055 -0.9386  2.4275 -0.4408
 2290TIP3   OH228360   2.757   2.141  12.794 -0.9236  0.3016 -0.3052
 2290TIP3    H128361   2.729   2.195  12.720 -0.8118  1.2333  0.3319
 2290TIP3    H228362   2.817   2.196  12.843 -0.8525 -0.3821  0.3885
 2291TIP3   OH228363   1.904   4.618   0.416 -0.2349  0.0883 -0.4751
 2291TIP3    H128364   1.977   4.579   0.368 -0.9864 -1.5221 -0.3804
 2291TIP3    H228365   1.933   4.623   0.506 -0.0739 -0.1272 -0.5154
 2292TIP3   OH228366   4.430   3.906  16.355  0.2527 -0.2311  0.1149
 2292TIP3    H128367   4.341   3.942  16.365  0.7179  0.7914  0.7186
 2292TIP3    H228368   4.462   3.946  16.274  0.2423 -0.4245  0.0164
 2293TIP3   OH228369   5.247   3.104   0.563 -0.2402 -0.6582 -0.4566
 2293TIP3    H128370   5.287   3.167   0.623  0.9432 -1.8414  0.0497
 2293TIP3    H228371   5.288   3.122   0.478 -2.3312  1.3932 -1.1126
 2294TIP3   OH228372   1.373   2.417  15.191  0.1712  0.1801  0.0180
 2294TIP3    H128373   1.456   2.449  15.228 -0.1916  0.1075  0.9168
 2294TIP3    H228374   1.318   2.400  15.267 -1.5183  2.4688 -0.5837
 2295TIP3   OH228375   1.788   1.808   2.806 -0.0207  0.2488  0.2808
 2295TIP3    H128376   1.828   1.866   2.741 -1.2606  0.5108 -0.2724
 2295TIP3    H228377   1.700   1.842   2.818  0.7575  1.3995  3.5958
 2296TIP3   OH228378   4.053   0.412  10.585 -0.3616  0.2509  0.6788
 2296TIP3    H128379   4.058   0.445  10.675 -0.4212 -0.4324  0.9459
 2296TIP3    H228380   4.048   0.317  10.596  3.2833 -0.1701 -0.1384
 2297TIP3   OH228381   6.131   0.980   2.411  0.3796 -0.0058 -0.2394
 2297TIP3    H128382   6.067   0.948   2.475  1.8746  0.7084  1.6941
 2297TIP3    H228383   6.127   0.917   2.339 -0.3314 -1.6772  1.2093
 2298TIP3   OH228384   4.879   4.224  14.655 -0.0271  0.2483  0.4416
 2298TIP3    H128385   4.797   4.182  14.631  0.1575  1.1267 -1.9053
 2298TIP3    H228386   4.854   4.297  14.712 -0.6638 -0.5953  1.2778
 2299TIP3   OH228387   6.224   0.932   3.357 -0.4652  0.5697 -0.3528
 2299TIP3    H128388   6.169   0.854   3.352 -0.5986  0.5015  1.4551
 2299TIP3    H228389   6.177   0.991   3.417  0.2359  1.5253 -0.7189
 2300TIP3   OH228390   6.484   1.453  15.868 -0.4991 -0.1597  0.7772
 2300TIP3    H128391   6.511   1.379  15.815 -0.2738  2.1791 -2.7118
 2300TIP3    H228392   6.393   1.434  15.892 -0.6371 -1.2783 -0.5599
 2301TIP3   OH228393   5.684   6.232  15.730  0.3713 -0.4068  1.0694
 2301TIP3    H128394   5.702   6.289  15.656  0.2444  0.7380  1.8786
 2301TIP3    H228395   5.595   6.199  15.715  0.6415 -0.8146  0.3372
 2302TIP3   OH228396   5.069   4.793  13.766 -0.0289  0.2083  0.0717
 2302TIP3    H128397   4.986   4.747  13.750  0.1096  0.4578 -1.5834
 2302TIP3    H228398   5.087   4.838  13.683  1.4883  0.5938  0.5870
 2303TIP3   OH228399   3.477   5.640  13.638  0.5712  0.3236  0.1266
 2303TIP3    H128400   3.562   5.658  13.598  1.5980 -1.3809  1.4140
 2303TIP3    H228401   3.482   5.548  13.665 -0.8915  0.7550  2.0965
 2304TIP3   OH228402   5.222   1.731  14.014  0.2653  0.3389 -0.4056
 2304TIP3    H128403   5.187   1.797  14.074 -2.2613 -2.3371  1.3259
 2304TIP3    H228404   5.313   1.720  14.042 -0.4278  0.2258  2.0514
 2305TIP3   OH228405   3.446   5.789  12.457  0.3070  0.1331  0.2060
 2305TIP3    H128406   3.447   5.716  12.520 -2.0933 -0.0667  0.0918
 2305TIP3    H228407   3.363   5.833  12.473  0.5527  1.2810 -1.5059
 2306TIP3   OH228408   3.447   6.383  10.902 -0.3010  0.2649 -0.4334
 2306TIP3    H128409   3.513   6.368  10.970  1.5483  0.3251 -2.1264
 2306TIP3    H228410   3.408   6.297  10.887  0.2800 -0.0289 -0.2818
 2307TIP3   OH228411   6.455   1.478  13.946  0.2004  0.0938  0.0780
 2307TIP3    H128412   6.500   1.498  13.864  0.2163  0.2164  0.1148
 2307TIP3    H228413   6.382   1.540  13.948 -1.4371 -1.6900 -1.1518
 2308TIP3   OH228414   6.100   2.621   1.983 -0.1447  0.1667 -0.1724
 2308TIP3    H128415   6.076   2.657   1.897  1.7625 -1.1770 -1.3553
 2308TIP3    H228416   6.176   2.567   1.965  0.7858  0.4441  2.5335
 2309TIP3   OH228417   0.897   1.688   0.953 -0.8520  0.5733  0.0078
 2309TIP3    H128418   0.835   1.735   0.897 -0.4865  1.2138  0.1324
 2309TIP3    H228419   0.952   1.638   0.892 -0.3417  1.4069 -0.2274
 2310TIP3   OH228420   5.993   1.983   1.645  0.2274  0.7878 -0.0881
 2310TIP3    H128421   6.019   2.052   1.707  0.9167  0.1367  0.3641
 2310TIP3    H228422   5.901   2.002   1.625 -1.1681 -0.9038  3.7967
 2311TIP3   OH228423   0.701   2.424   3.187 -0.4199 -0.6240 -0.1559
 2311TIP3    H128424   0.781   2.403   3.234  1.1995 -0.4267 -2.6434
 2311TIP3    H228425   0.650   2.477   3.248  1.4130 -0.5771  1.4188
 2312TIP3   OH228426   2.499   6.311  11.610  0.1701  0.2728  0.3157
 2312TIP3    H128427   2.511   6.387  11.553 -1.0580  0.9249  0.8828
 2312TIP3    H228428   2.469   6.348  11.693 -2.2743 -0.9104  0.0486
 2313TIP3   OH228429   5.684   3.032   3.739  0.3497  0.2508  0.2494
 2313TIP3    H128430   5.754   3.010   3.801  1.0013  2.2986  0.3091
 2313TIP3    H228431   5.707   3.118   3.706 -1.2986  0.2600 -1.0058
 2314TIP3   OH228432   6.075   3.494   0.594 -0.1364 -0.2641 -0.6657
 2314TIP3    H128433   6.042   3.572   0.549 -0.2045  0.6381  0.8460
 2314TIP3    H228434   5.996   3.451   0.628 -0.0404 -0.5062 -0.7486
 2315TIP3   OH228435   4.555   4.266  11.476 -0.4693  0.5864 -0.0495
 2315TIP3    H128436   4.597   4.196  11.426  0.2418  0.2188  1.0303
 2315TIP3    H228437   4.571   4.243  11.568 -3.0217  0.4377  0.4378
 2316TIP3   OH228438   0.395   0.156   0.921 -0.2264  0.3299  0.6948
 2316TIP3    H128439   0.394   0.084   0.983 -1.5656  1.4273  2.0295
 2316TIP3    H228440   0.361   0.119   0.840  0.0442 -0.7494  1.0595
 2317TIP3   OH228441   6.072   5.986  13.873 -0.2517 -0.1538 -0.4223
 2317TIP3    H128442   6.058   6.052  13.941 -2.1593 -0.9106 -0.0076
 2317TIP3    H228443   6.144   6.020  13.820  3.2389 -0.7242  3.4652
 2318TIP3   OH228444   3.423   6.242   5.455 -0.0328  0.1835 -0.2928
 2318TIP3    H128445   3.400   6.156   5.420 -1.9064  0.3305  0.4508
 2318TIP3    H228446   3.435   6.297   5.377 -0.1681 -0.4226 -0.7542
 2319TIP3   OH228447   3.005   2.624   2.010 -0.3173 -0.0469  0.3260
 2319TIP3    H128448   2.958   2.704   1.988 -0.1994  0.2596  1.1513
 2319TIP3    H228449   3.048   2.598   1.928 -0.5136  0.6274  0.0031
 2320TIP3   OH228450   0.468   3.164   1.691 -0.2154  0.5386 -0.1411
 2320TIP3    H128451   0.403   3.233   1.706 -0.6364  0.3350 -0.9525
 2320TIP3    H228452   0.421   3.083   1.708  0.4263  0.4518  1.3274
 2321TIP3   OH228453   1.486   3.046   4.239  0.0903 -0.2477 -0.5782
 2321TIP3    H128454   1.401   3.007   4.217 -0.2030 -0.3777  0.6781
 2321TIP3    H228455   1.464   3.132   4.274  0.6479  0.5542 -2.1190
 2322TIP3   OH228456   2.287   4.878   4.510  0.0602  0.0546 -0.0787
 2322TIP3    H128457   2.341   4.949   4.478  1.5501 -0.5458  0.9986
 2322TIP3    H228458   2.252   4.911   4.593 -1.5615  0.5614 -0.9091
 2323TIP3   OH228459   6.586   3.854  16.770 -0.6760 -0.0218 -0.0990
 2323TIP3    H128460   6.614   3.928  16.716  0.1913  0.4666  0.9830
 2323TIP3    H228461   6.520   3.809  16.717 -0.2060  0.7185 -1.3498
 2324TIP3   OH228462   3.877   2.229  11.028  0.3038 -0.4311  0.1148
 2324TIP3    H128463   3.789   2.193  11.021  0.4268 -1.1671  1.9170
 2324TIP3    H228464   3.873   2.311  10.977 -0.9233 -1.2591 -1.2028
 2325TIP3   OH228465   0.288   6.405   5.028 -0.4529 -1.1167 -0.2530
 2325TIP3    H128466   0.277   6.421   4.935  0.4614 -2.2349 -0.5824
 2325TIP3    H228467   0.201   6.416   5.065 -0.5337  0.8958 -0.9701
 2326TIP3   OH228468   0.222   6.593   5.311  0.1253  0.1580 -0.7344
 2326TIP3    H128469   0.239   6.633   5.396 -1.5590 -0.5753  0.0001
 2326TIP3    H228470   0.258   6.504   5.319 -0.8704 -0.2291 -0.4229
 2327TIP3   OH228471   2.259   3.436   4.142  0.2357  0.2935 -0.0432
 2327TIP3    H128472   2.283   3.489   4.217  1.0421 -1.2284  0.8238
 2327TIP3    H228473   2.327   3.454   4.077  1.6990 -1.1419  1.0039
 2328TIP3   OH228474   1.209   5.126   4.890  0.0243  0.6006  0.1224
 2328TIP3    H128475   1.251   5.061   4.946 -1.1361 -0.7994 -0.5513
 2328TIP3    H228476   1.134   5.080   4.852  0.8451  1.3917 -2.7423
 2329TIP3   OH228477   3.771   6.645  12.522  0.1267  0.1232  0.0648
 2329TIP3    H128478   3.780   6.575  12.587 -0.2204  0.7527  0.8139
 2329TIP3    H228479   3.803   6.723  12.567 -4.6006  1.6576  1.4311
 2330TIP3   OH228480   3.001   3.996  15.239 -0.5912 -0.4007 -0.0365
 2330TIP3    H128481   3.050   4.077  15.244  1.4494 -1.5845  0.1308
 2330TIP3    H228482   3.005   3.971  15.146  1.1867 -1.6466  0.3186
 2331TIP3   OH228483   4.231   0.152   0.411  0.1890  0.3053  0.1417
 2331TIP3    H128484   4.145   0.130   0.375 -0.0420  0.4107  0.6211
 2331TIP3    H228485   4.293   0.110   0.351 -0.2068 -0.2283  0.0964
 2332TIP3   OH228486   0.779   3.251  12.860 -0.2790  0.1750  0.2847
 2332TIP3    H128487   0.779   3.155  12.864  0.6503 -0.0027 -2.2772
 2332TIP3    H228488   0.755   3.271  12.769 -0.2446  2.3652  0.7117
 2333TIP3   OH228489   3.808   3.527  15.410  0.5849  0.6071  0.4723
 2333TIP3    H128490   3.769   3.594  15.467 -1.1000 -0.3705  0.5500
 2333TIP3    H228491   3.898   3.555  15.398 -0.0894  2.9636  0.3839
 2334TIP3   OH228492   0.741   3.695   4.049  0.5717 -0.1930  0.6259
 2334TIP3    H128493   0.786   3.688   3.965  3.5344  0.2443  2.0815
 2334TIP3    H228494   0.703   3.783   4.048 -0.6184 -0.6627 -0.7185
 2335TIP3   OH228495   1.713   4.797   4.060 -0.1259  0.0454 -0.1677
 2335TIP3    H128496   1.729   4.731   3.993  0.2526 -2.0289  1.8457
 2335TIP3    H228497   1.618   4.812   4.057 -0.1191 -0.0462 -1.1179
 2336TIP3   OH228498   3.716   1.887  14.127 -0.6030 -0.1892 -0.2307
 2336TIP3    H128499   3.788   1.943  14.157  0.9057 -1.3112 -1.5121
 2336TIP3    H228500   3.693   1.923  14.041 -3.2658  1.5726  1.0641
 2337TIP3   OH228501   5.352   1.765  15.107  0.2533  0.5329 -0.5421
 2337TIP3    H128502   5.327   1.680  15.070 -1.4838  0.9133 -0.3030
 2337TIP3    H228503   5.405   1.805  15.038 -1.3140  0.4271 -1.8693
 2338TIP3   OH228504   5.133   5.308   0.665  0.4579 -0.1013  0.5706
 2338TIP3    H128505   5.140   5.232   0.607 -2.3081 -0.6018  0.7610
 2338TIP3    H228506   5.215   5.309   0.714  2.4327 -0.3298 -2.4540
 2339TIP3   OH228507   0.907   6.226   2.711 -0.3656 -0.2250  0.3582
 2339TIP3    H128508   0.920   6.241   2.617  0.2663 -0.4936  0.3968
 2339TIP3    H228509   0.826   6.175   2.716  1.1952 -3.0032 -0.3110
 2340TIP3   OH228510   1.153   1.470  11.928  0.3153 -0.6050 -0.1223
 2340TIP3    H128511   1.204   1.480  11.847 -0.9038 -0.7065 -0.9333
 2340TIP3    H228512   1.085   1.537  11.921 -0.5798 -1.4588  0.1925
 2341TIP3   OH228513   2.407   5.472   1.555 -0.3927 -0.0731  0.1629
 2341TIP3    H128514   2.497   5.465   1.523 -0.5588  0.1758 -0.3643
 2341TIP3    H228515   2.402   5.560   1.592 -0.7630  0.3744 -0.9098
 2342TIP3   OH228516   6.461   4.666   0.630 -0.0603 -0.7823  0.0587
 2342TIP3    H128517   6.454   4.668   0.726 -2.0557 -2.5923  0.0178
 2342TIP3    H228518   6.414   4.587   0.604  2.1677 -1.4773 -2.3163
 2343TIP3   OH228519   2.373   2.913   6.179  0.3528  0.4441 -0.3063
 2343TIP3    H128520   2.372   2.967   6.259  0.3239  0.0865 -0.0616
 2343TIP3    H228521   2.422   2.834   6.205  1.5481  0.9237 -1.0346
 2344TIP3   OH228522   0.170   3.893   0.338  0.7681 -0.3322  0.1473
 2344TIP3    H128523   0.189   3.987   0.337 -0.4759 -0.0431  1.3397
 2344TIP3    H228524   0.120   3.878   0.258  0.0771  0.2271  0.4672
 2345TIP3   OH228525   1.095   4.903   4.024  0.5774 -0.7234  0.3433
 2345TIP3    H128526   1.141   4.944   4.097  0.7221  0.2025 -0.2575
 2345TIP3    H228527   1.122   4.811   4.028  3.2665 -0.0705 -0.5514
 2346TIP3   OH228528   0.120   6.086   2.097 -0.0188 -0.1504 -0.6301
 2346TIP3    H128529   0.065   6.031   2.153  0.0873  1.0209  0.7099
 2346TIP3    H228530   0.196   6.032   2.076  0.6187 -0.2118  1.5738
 2347TIP3   OH228531   2.563   6.366  13.746 -0.1736  0.3362  0.1870
 2347TIP3    H128532   2.602   6.449  13.775 -0.3732 -0.3388  2.5945
 2347TIP3    H228533   2.543   6.380  13.654  1.9142  2.1603 -0.0772
 2348TIP3   OH228534   3.029   0.585   4.193 -0.0035  0.6148  0.2655
 2348TIP3    H128535   2.962   0.569   4.260 -0.8140  0.5248 -0.5469
 2348TIP3    H228536   2.992   0.654   4.138  0.1621 -0.0669 -0.7362
 2349TIP3   OH228537   5.531   3.979  11.725 -0.6938 -0.0524  1.3938
 2349TIP3    H128538   5.625   3.959  11.733 -1.0584 -2.9258 -0.2235
 2349TIP3    H228539   5.524   4.071  11.752  2.7806  0.6884  0.3086
 2350TIP3   OH228540   5.569   6.439  13.096  0.3469 -0.5212 -0.8552
 2350TIP3    H128541   5.593   6.466  13.007  2.6587  0.1651 -0.0879
 2350TIP3    H228542   5.607   6.352  13.106  2.6856  0.5713  0.3774
 2351TIP3   OH228543   5.111   6.294  12.694 -0.2706 -0.5968 -0.3562
 2351TIP3    H128544   5.205   6.284  12.678  0.1437  0.6979  1.0633
 2351TIP3    H228545   5.076   6.205  12.685  0.9297 -0.9786 -1.6841
 2352TIP3   OH228546   5.892   2.980   2.233  0.0572  0.0764 -0.2885
 2352TIP3    H128547   5.924   2.901   2.190 -1.9717 -0.9121 -0.1204
 2352TIP3    H228548   5.836   3.022   2.168 -0.2574  0.4313  0.2003
 2353TIP3   OH228549   1.290   4.384  15.156 -0.5069  0.6712 -0.0339
 2353TIP3    H128550   1.239   4.410  15.080  0.8472 -0.3447 -1.3393
 2353TIP3    H228551   1.358   4.452  15.164 -0.4769  0.6246  0.1186
 2354TIP3   OH228552   0.784   0.670   0.300 -0.0275  0.6908  0.2037
 2354TIP3    H128553   0.800   0.641   0.210  0.0888  1.8741 -0.1748
 2354TIP3    H228554   0.702   0.627   0.324  1.6014 -2.3495  0.7845
 2355TIP3   OH228555   6.808   2.744  12.306  0.0009  0.0346 -0.1564
 2355TIP3    H128556   6.760   2.804  12.364 -0.4871 -0.8130  0.3331
 2355TIP3    H228557   6.788   2.775  12.218 -0.5250  0.3974  0.0811
 2356TIP3   OH228558   3.945   3.584  17.002  0.5549 -0.0381 -0.0844
 2356TIP3    H128559   4.029   3.618  17.033  0.3899 -0.7378  1.2123
 2356TIP3    H228560   3.947   3.598  16.908  2.3165 -0.4370 -0.1523
 2357TIP3   OH228561   5.796   2.071   2.448 -0.3830  0.5180  0.1060
 2357TIP3    H128562   5.744   1.991   2.443 -0.8071  0.8342 -0.5577
 2357TIP3    H228563   5.744   2.130   2.503 -0.5925  0.7257 -0.3097
 2358TIP3   OH228564   5.776   1.216   2.046  0.1919  0.2830  0.7252
 2358TIP3    H128565   5.757   1.278   2.116 -3.0251 -0.3287  0.5547
 2358TIP3    H228566   5.702   1.156   2.046  1.7111 -1.7790 -1.0792
 2359TIP3   OH228567   6.108   1.069   3.556  0.1340 -0.0507 -0.3261
 2359TIP3    H128568   6.060   1.104   3.630  1.1732 -0.1051  0.3937
 2359TIP3    H228569   6.054   1.091   3.480 -1.1845 -0.4138  0.4675
 2360TIP3   OH228570   2.120   0.787  15.799 -0.4276 -0.1533  0.3020
 2360TIP3    H128571   2.097   0.880  15.802 -1.7633 -0.4982  1.2679
 2360TIP3    H228572   2.143   0.765  15.889  0.1089 -0.7224  0.0334
 2361TIP3   OH228573   2.612   0.149  10.908 -0.1839 -0.3073  0.5128
 2361TIP3    H128574   2.567   0.213  10.853 -0.1245 -0.8432 -0.1616
 2361TIP3    H228575   2.685   0.198  10.946  1.0614 -0.4565 -1.5625
 2362TIP3   OH228576   4.391   1.520   2.675 -0.2957  0.1003  0.3406
 2362TIP3    H128577   4.451   1.461   2.629 -0.8233 -1.8059  1.9373
 2362TIP3    H228578   4.307   1.508   2.631 -0.2547  0.2047  0.2323
 2363TIP3   OH228579   2.454   5.895  16.094 -0.0567 -0.2607 -0.0499
 2363TIP3    H128580   2.531   5.874  16.042  0.2697  2.5450 -0.8701
 2363TIP3    H228581   2.470   5.855  16.179  1.5073 -1.1368 -0.7128
 2364TIP3   OH228582   3.987   5.373  12.085 -0.3710  0.4006 -0.2365
 2364TIP3    H128583   4.032   5.458  12.090 -0.5491  0.4627  0.3854
 2364TIP3    H228584   4.011   5.338  11.999 -0.1247  0.9855 -0.4105
 2365TIP3   OH228585   6.502   0.797   4.433  0.5793 -0.1226  0.2789
 2365TIP3    H128586   6.581   0.744   4.423  1.2880  1.0726 -0.7279
 2365TIP3    H228587   6.531   0.876   4.479 -0.0254  0.3091 -0.0676
 2366TIP3   OH228588   3.997   1.743   1.784 -0.2672 -0.3238  0.4449
 2366TIP3    H128589   3.933   1.672   1.784 -2.2347  1.3287  1.7200
 2366TIP3    H228590   4.012   1.761   1.877  2.7288 -1.1487  0.2182
 2367TIP3   OH228591   4.095   1.108  12.495 -0.1327 -0.5772  0.7718
 2367TIP3    H128592   4.132   1.048  12.430 -1.6796 -1.1278  0.3642
 2367TIP3    H228593   4.163   1.115  12.562  0.2033 -2.5752  0.7071
 2368TIP3   OH228594   1.864   3.519   6.500  0.2829 -0.2264 -0.1358
 2368TIP3    H128595   1.904   3.434   6.516 -1.1371 -0.8383  0.3186
 2368TIP3    H228596   1.855   3.558   6.586 -0.6344 -0.3683 -0.1546
 2369TIP3   OH228597   6.637   6.834   1.070  0.1574  0.0444 -0.2904
 2369TIP3    H128598   6.693   6.784   1.010  0.8675 -0.1734  0.5324
 2369TIP3    H228599   6.639   6.923   1.036  3.2821  0.6810  1.2395
 2370TIP3   OH228600   1.819   2.347  12.513 -0.2660  0.4787  0.0521
 2370TIP3    H128601   1.788   2.381  12.597 -0.2370 -0.0340  0.2735
 2370TIP3    H228602   1.744   2.356  12.454 -0.8083 -0.6337  0.5494
 2371TIP3   OH228603   2.402   3.613  13.491  0.5513  0.4714  0.5123
 2371TIP3    H128604   2.486   3.568  13.495  1.3345  1.7177 -0.8745
 2371TIP3    H228605   2.388   3.646  13.580  0.5274 -1.4015  1.2610
 2372TIP3   OH228606   6.339   6.740   2.712 -0.2007  0.1583 -0.9307
 2372TIP3    H128607   6.326   6.645   2.708 -0.8019  0.2578 -1.6751
 2372TIP3    H228608   6.390   6.754   2.791 -1.5351 -0.6281  0.1174
 2373TIP3   OH228609   1.845   5.675  14.646 -0.1750  0.5302 -0.2394
 2373TIP3    H128610   1.823   5.586  14.672  0.7456  0.6893  1.1529
 2373TIP3    H228611   1.919   5.666  14.586 -0.5773  0.3255 -0.7128
 2374TIP3   OH228612   1.460   4.917  15.279 -0.4366  0.1906 -0.4894
 2374TIP3    H128613   1.499   4.860  15.345 -0.9602  0.4495  0.0553
 2374TIP3    H228614   1.524   4.919  15.208 -0.2871 -0.8437 -0.3973
 2375TIP3   OH228615   4.672   2.900   4.057 -0.1087  0.2982  0.0049
 2375TIP3    H128616   4.577   2.906   4.068 -0.4050 -2.8317 -0.1362
 2375TIP3    H228617   4.684   2.894   3.962  0.1094 -0.6082  0.0877
 2376TIP3   OH228618   2.215   5.091   1.887 -0.2298 -0.4659 -0.4950
 2376TIP3    H128619   2.167   5.127   1.812  0.3956 -0.2675 -0.8054
 2376TIP3    H228620   2.307   5.095   1.861  0.3713  2.7026  1.5152
 2377TIP3   OH228621   4.884   1.061  11.462  0.1695 -0.0985  0.2795
 2377TIP3    H128622   4.795   1.037  11.486  0.0960 -0.3957 -0.2767
 2377TIP3    H228623   4.901   1.142  11.509 -0.7121  0.4287 -0.2867
 2378TIP3   OH228624   6.822   0.846   4.864 -0.8133  0.8583 -0.8879
 2378TIP3    H128625   6.873   0.902   4.805 -1.2792  0.9322 -1.2316
 2378TIP3    H228626   6.838   0.881   4.951 -0.4217  0.9929 -1.0119
 2379TIP3   OH228627   4.339   2.668  12.104 -0.5572  0.0674  0.2481
 2379TIP3    H128628   4.355   2.584  12.147  0.6788 -1.1120 -2.2460
 2379TIP3    H228629   4.427   2.703  12.087 -0.8000 -0.5457 -2.9400
 2380TIP3   OH228630   1.968   1.262  16.297 -0.2787 -0.2073  0.6189
 2380TIP3    H128631   1.992   1.342  16.250  0.3554 -0.0005  1.2782
 2380TIP3    H228632   1.876   1.248  16.275 -0.1733  0.2452 -0.1555
 2381TIP3   OH228633   2.254   1.808  15.468 -0.8321  0.3976 -0.2379
 2381TIP3    H128634   2.347   1.816  15.487 -0.1952  0.3339 -2.8594
 2381TIP3    H228635   2.243   1.717  15.441 -1.4243  0.6489 -0.8819
 2382TIP3   OH228636   4.371   4.211  14.532  0.4261 -0.2682  0.7148
 2382TIP3    H128637   4.383   4.177  14.443 -1.0644 -1.4131  0.9071
 2382TIP3    H228638   4.298   4.160  14.567 -0.5934  1.7881  1.7560
 2383TIP3   OH228639   6.431   3.035  11.241 -0.0947 -0.0870 -0.2282
 2383TIP3    H128640   6.415   2.942  11.259 -2.0303  0.0445 -1.0974
 2383TIP3    H228641   6.461   3.037  11.150  1.9840 -0.0082  0.4028
 2384TIP3   OH228642   3.652   0.087  10.932 -0.0603 -0.3460  0.4300
 2384TIP3    H128643   3.742   0.057  10.940 -0.4579 -1.3167  1.5845
 2384TIP3    H228644   3.607   0.017  10.885 -0.4183 -0.3048  0.7061
 2385TIP3   OH228645   3.902   0.883   3.205 -0.0745  0.1324 -0.2018
 2385TIP3    H128646   3.813   0.877   3.171 -0.9003 -2.0274  2.0434
 2385TIP3    H228647   3.929   0.792   3.217  2.4648  0.7315 -0.7305
 2386TIP3   OH228648   1.261   5.731  11.993 -0.0452 -0.0649 -0.2512
 2386TIP3    H128649   1.248   5.810  11.940 -1.2005  0.1778  0.3398
 2386TIP3    H228650   1.172   5.696  12.004  0.3788 -1.0408  0.0971
 2387TIP3   OH228651   1.696   0.568  12.300  0.2704  0.2887  0.1140
 2387TIP3    H128652   1.766   0.606  12.353  0.7994  1.6455 -1.4738
 2387TIP3    H228653   1.615   0.596  12.343  0.6755  1.7842 -0.0389
 2388TIP3   OH228654   4.313   3.801   4.310  0.3371  0.1581 -0.2938
 2388TIP3    H128655   4.284   3.854   4.235  0.0711  0.4716  0.0256
 2388TIP3    H228656   4.245   3.735   4.319 -0.0298  0.5823  0.1366
 2389TIP3   OH228657   4.151   1.676  13.185  0.1316 -0.2886  0.2835
 2389TIP3    H128658   4.216   1.687  13.254 -0.0658  2.2363  0.1458
 2389TIP3    H228659   4.069   1.706  13.225  0.0997  1.6538 -1.1321
 2390TIP3   OH228660   5.192   3.113  13.382 -0.0551  0.3104 -0.0607
 2390TIP3    H128661   5.278   3.100  13.422 -0.4813 -2.6619  0.0992
 2390TIP3    H228662   5.129   3.084  13.448 -1.0219 -0.2400 -1.1648
 2391TIP3   OH228663   3.188   2.058  15.029  0.1011 -0.3705 -0.1083
 2391TIP3    H128664   3.143   2.011  14.959  1.8454  1.3335 -2.5335
 2391TIP3    H228665   3.135   2.136  15.042  0.8219  0.3012 -1.0356
 2392TIP3   OH228666   4.015   6.813   3.491 -0.2883 -0.0885  0.1150
 2392TIP3    H128667   4.090   6.784   3.438  0.2724 -0.1682  0.9402
 2392TIP3    H228668   3.939   6.784   3.441  0.2066  0.4875 -1.0274
 2393TIP3   OH228669   6.511   3.011  13.434 -0.6029  0.0475 -0.1710
 2393TIP3    H128670   6.535   2.953  13.362  3.4607  1.3833 -0.1525
 2393TIP3    H228671   6.518   2.957  13.512  1.1000 -0.0299 -0.3369
 2394TIP3   OH228672   6.722   2.808  16.045  0.5594 -0.1014  0.2398
 2394TIP3    H128673   6.735   2.901  16.024 -0.9299  0.1501  0.2929
 2394TIP3    H228674   6.706   2.766  15.961  0.6695 -0.2128  0.2740
 2395TIP3   OH228675   2.381   0.605  15.263  0.4701  0.4121  0.4375
 2395TIP3    H128676   2.368   0.518  15.226  1.2407  0.0588  0.9778
 2395TIP3    H228677   2.295   0.632  15.294  0.0058  0.2974 -0.6865
 2396TIP3   OH228678   1.740   1.599  14.726  0.3920 -0.4833 -0.3501
 2396TIP3    H128679   1.709   1.580  14.815 -1.2362  0.8303 -0.5728
 2396TIP3    H228680   1.691   1.538  14.671  1.0614 -0.9853 -0.3963
 2397TIP3   OH228681   1.625   6.304  11.102  0.0444 -0.2017 -0.6925
 2397TIP3    H128682   1.627   6.398  11.123 -1.4725 -0.5322  1.2498
 2397TIP3    H228683   1.621   6.261  11.188 -0.1137 -2.0268 -1.5722
 2398TIP3   OH228684   2.342   1.243   1.193  0.1853 -0.0617  0.0356
 2398TIP3    H128685   2.390   1.323   1.215 -0.7166  0.1967  1.1791
 2398TIP3    H228686   2.356   1.231   1.099  0.4892  1.3442 -0.1178
 2399TIP3   OH228687   4.646   0.167   2.942 -0.5260  0.2265 -0.3991
 2399TIP3    H128688   4.566   0.169   2.890 -0.7943 -1.3325 -0.1085
 2399TIP3    H228689   4.636   0.091   2.999 -1.1080  2.8399  3.3620
 2400TIP3   OH228690   4.148   1.886  12.766 -0.1033  0.0315 -0.2463
 2400TIP3    H128691   4.214   1.939  12.810 -0.4314  0.5523 -0.3763
 2400TIP3    H228692   4.199   1.828  12.708  0.2445  0.3054 -0.2178
 2401TIP3   OH228693   2.329   2.909   2.707  0.2672  0.2070 -0.1297
 2401TIP3    H128694   2.384   2.971   2.755  0.1437  0.1112  0.1341
 2401TIP3    H228695   2.255   2.893   2.765  0.5435 -0.5700  0.0127
 2402TIP3   OH228696   6.351   0.293   0.213  0.3517  0.4726  0.1405
 2402TIP3    H128697   6.438   0.334   0.210  0.4449  0.4311  1.3967
 2402TIP3    H228698   6.348   0.251   0.299 -0.2947 -0.9404 -0.5425
 2403TIP3   OH228699   4.351   6.832  15.647 -1.0244 -0.1363  0.3501
 2403TIP3    H128700   4.257   6.825  15.662 -1.2382 -1.6871 -1.3374
 2403TIP3    H228701   4.365   6.922  15.618 -2.2995 -0.3832 -1.1359
 2404TIP3   OH228702   4.888   0.113   4.777 -0.4973 -0.2848 -0.2341
 2404TIP3    H128703   4.847   0.058   4.844 -0.5310 -0.5510 -0.4722
 2404TIP3    H228704   4.972   0.070   4.759 -0.8800 -0.7219 -1.0125
 2405TIP3   OH228705   2.733   1.183   3.032  0.4029 -0.3942  0.1290
 2405TIP3    H128706   2.794   1.253   3.054  0.4989 -0.5008  0.2006
 2405TIP3    H228707   2.648   1.214   3.065  0.6413 -0.7830  1.1241
 2406TIP3   OH228708   6.674   3.654  16.517  0.4328  0.0568  0.0326
 2406TIP3    H128709   6.659   3.603  16.597 -0.4723  0.0508 -0.1259
 2406TIP3    H228710   6.713   3.592  16.456 -1.2558 -0.6581 -0.3741
 2407TIP3   OH228711   5.588   5.221  11.960 -0.1064 -0.1733  0.0956
 2407TIP3    H128712   5.619   5.173  11.883 -1.3435  0.7132 -0.9846
 2407TIP3    H228713   5.493   5.222  11.951 -0.4150 -1.4872  2.5331
 2408TIP3   OH228714   6.527   4.799   2.191 -0.5086 -0.0142  0.2833
 2408TIP3    H128715   6.453   4.848   2.156 -1.2321 -0.1072  1.6400
 2408TIP3    H228716   6.521   4.713   2.148 -1.6733 -0.2990  0.9697
 2409TIP3   OH228717   5.969   2.658   4.191 -0.2227 -0.1606 -0.0545
 2409TIP3    H128718   5.957   2.639   4.098 -0.3289 -0.6491  0.0567
 2409TIP3    H228719   5.945   2.577   4.235 -1.3131  0.4234  0.4742
 2410TIP3   OH228720   2.757   5.673   6.120 -0.1852  0.4189 -0.2414
 2410TIP3    H128721   2.774   5.676   6.026  1.1959  2.0663  0.0246
 2410TIP3    H228722   2.674   5.719   6.130 -2.1997 -2.7411 -0.9394
 2411TIP3   OH228723   6.637   0.512  16.044 -0.2153  0.2349 -0.1705
 2411TIP3    H128724   6.641   0.425  16.006 -0.0753  0.1574  0.0224
 2411TIP3    H228725   6.587   0.500  16.125 -0.8265  0.4623 -0.5094
 2412TIP3   OH228726   2.419   2.308  11.680  0.4023 -0.0533  0.5474
 2412TIP3    H128727   2.472   2.271  11.751  0.7945 -0.6045 -0.0262
 2412TIP3    H228728   2.331   2.315  11.717  0.5241 -0.6817  0.9699
 2413TIP3   OH228729   0.009   0.266   2.879  0.0390 -0.1152  0.7866
 2413TIP3    H128730   0.013   0.358   2.852 -1.2688 -0.0552  0.7140
 2413TIP3    H228731   0.080   0.224   2.830  1.4648  1.0558  1.7630
 2414TIP3   OH228732   4.307   3.929  12.955  0.1839  0.2402 -0.5806
 2414TIP3    H128733   4.388   3.879  12.943  0.9825  1.8132 -2.3038
 2414TIP3    H228734   4.337   4.019  12.968 -1.2202  1.2553 -3.4091
 2415TIP3   OH228735   3.137   1.551  15.644 -0.4138  0.2289 -0.1571
 2415TIP3    H128736   3.202   1.535  15.711 -0.4329  0.0653 -0.1770
 2415TIP3    H228737   3.186   1.550  15.562 -0.6476 -1.3429 -0.3079
 2416TIP3   OH228738   5.287   1.937  13.031  0.0911 -0.4583 -0.1741
 2416TIP3    H128739   5.283   1.965  13.122 -0.8344 -0.4484 -0.2089
 2416TIP3    H228740   5.347   1.999  12.989 -0.9862  0.7522  0.0080
 2417TIP3   OH228741   3.647   0.832   2.004 -0.2925  0.1879 -0.1219
 2417TIP3    H128742   3.631   0.808   2.095 -1.0566  0.3735 -0.2060
 2417TIP3    H228743   3.650   0.928   2.004 -0.2388  0.1865 -0.2887
 2418TIP3   OH228744   1.212   5.665   6.108  0.6829 -0.3101 -0.3994
 2418TIP3    H128745   1.233   5.626   6.023 -0.9387 -1.7306 -0.1904
 2418TIP3    H228746   1.118   5.682   6.104  0.9592  1.6179  0.3467
 2419TIP3   OH228747   5.993   0.785   5.215 -0.0462  0.3303  0.2346
 2419TIP3    H128748   6.018   0.760   5.304 -1.1676  0.0487  0.4854
 2419TIP3    H228749   6.012   0.707   5.162 -0.7797 -0.0400  0.5000
 2420TIP3   OH228750   0.905   2.113  14.461  0.2286  0.0225 -0.4616
 2420TIP3    H128751   0.991   2.154  14.468 -0.1492  0.5823  2.1959
 2420TIP3    H228752   0.850   2.179  14.420 -0.0105  1.7182  2.3576
 2421TIP3   OH228753   5.453   1.588  16.938  0.2419 -0.2024  0.0215
 2421TIP3    H128754   5.456   1.650  16.866  1.3138 -1.4902 -1.0949
 2421TIP3    H228755   5.504   1.513  16.907  0.1555 -1.0670  1.8609
 2422TIP3   OH228756   1.186   6.677   4.765  0.0035 -0.2171  0.4228
 2422TIP3    H128757   1.127   6.602   4.771 -1.6303  0.9722  0.2521
 2422TIP3    H228758   1.128   6.750   4.739  1.8745  0.6682 -1.5446
 2423TIP3   OH228759   1.325   3.833  12.440 -0.1375  0.2439 -0.2801
 2423TIP3    H128760   1.402   3.889  12.453 -0.5440  0.8457 -0.4067
 2423TIP3    H228761   1.298   3.809  12.529 -1.8443  2.8861  0.0560
 2424TIP3   OH228762   1.344   4.274  10.512  0.0804  0.1291  0.2880
 2424TIP3    H128763   1.413   4.208  10.516 -0.8916 -0.9755 -0.5229
 2424TIP3    H228764   1.266   4.228  10.545 -0.6547  0.8071 -0.4866
 2425TIP3   OH228765   6.480   5.921   0.251 -0.3129 -0.6086 -0.1059
 2425TIP3    H128766   6.448   5.833   0.272 -2.4754  0.0946 -0.2144
 2425TIP3    H228767   6.507   5.957   0.335 -0.7794 -0.8723  0.1606
 2426TIP3   OH228768   5.306   4.831   2.434 -0.0558  0.1062  0.0135
 2426TIP3    H128769   5.350   4.916   2.434  0.8579 -0.3530  0.7504
 2426TIP3    H228770   5.215   4.852   2.412  0.2708  1.2015 -0.4053
 2427TIP3   OH228771   2.884   1.926  15.761 -0.2341  0.2270 -0.6590
 2427TIP3    H128772   2.977   1.935  15.741  0.6150 -3.7610  0.6370
 2427TIP3    H228773   2.878   1.930  15.856 -1.0244 -1.3595 -0.5967
 2428TIP3   OH228774   5.884   0.775  14.505  0.2046 -0.7116 -0.6406
 2428TIP3    H128775   5.840   0.691  14.487  1.4059 -1.5689  0.2819
 2428TIP3    H228776   5.938   0.790  14.427 -1.1210 -0.0115 -1.4643
 2429TIP3   OH228777   1.801   1.567   1.687 -0.2100 -0.1946  0.1007
 2429TIP3    H128778   1.741   1.583   1.614 -1.4073  2.1918  1.4939
 2429TIP3    H228779   1.881   1.536   1.645 -0.7945  1.1979 -2.2588
 2430TIP3   OH228780   0.902   3.937  14.628  0.4275 -0.4658  0.0315
 2430TIP3    H128781   0.954   4.014  14.607  0.7187 -0.6700 -0.0084
 2430TIP3    H228782   0.865   3.909  14.544 -1.5519  0.9549  0.3733
 2431TIP3   OH228783   2.391   0.416  11.802 -0.4904  0.0369 -0.2560
 2431TIP3    H128784   2.335   0.392  11.876 -0.7022 -1.0023 -0.7353
 2431TIP3    H228785   2.416   0.332  11.763 -0.3865  0.5649 -1.3645
 2432TIP3   OH228786   2.220   1.891  12.156  0.5781 -0.1643 -0.2541
 2432TIP3    H128787   2.285   1.832  12.195  0.8409  0.8269  0.8921
 2432TIP3    H228788   2.150   1.834  12.127  0.7330 -1.0512  1.0101
 2433TIP3   OH228789   1.837   4.784  11.668 -0.3884  0.6370 -0.5880
 2433TIP3    H128790   1.892   4.739  11.731 -3.0286 -2.2807 -0.1279
 2433TIP3    H228791   1.787   4.848  11.720 -1.7391 -0.9696  0.1690
 2434TIP3   OH228792   3.135   2.066   1.519 -0.4741 -0.0610  0.0731
 2434TIP3    H128793   3.174   2.057   1.606  0.6731  1.2434 -0.2792
 2434TIP3    H228794   3.052   2.112   1.534  0.0784  0.8504  0.4187
 2435TIP3   OH228795   0.977   3.074  12.369 -0.3257  0.1411  0.1678
 2435TIP3    H128796   0.896   3.122  12.353 -3.0774 -3.7413  1.0817
 2435TIP3    H228797   0.997   3.091  12.462  0.5155  1.7703 -0.2686
 2436TIP3   OH228798   0.411   2.630   1.436 -0.0154 -0.1878  0.0063
 2436TIP3    H128799   0.488   2.682   1.414  0.5096 -0.6367  0.7434
 2436TIP3    H228800   0.378   2.599   1.351  1.4605 -1.1863 -0.2440
 2437TIP3   OH228801   1.893   6.075   0.056  0.1784 -0.5557 -0.4052
 2437TIP3    H128802   1.923   6.159   0.092  0.6922 -1.0947  0.4475
 2437TIP3    H228803   1.856   6.028   0.132 -1.3818 -0.5605 -1.1231
 2438TIP3   OH228804   6.115   1.034   6.135 -0.7365  0.5096 -0.6055
 2438TIP3    H128805   6.153   0.962   6.185  1.3745  1.2284 -1.0646
 2438TIP3    H228806   6.036   1.058   6.183  0.1788 -0.0841  1.3009
 2439TIP3   OH228807   6.296   3.559  16.909 -0.1196  0.7252 -0.3739
 2439TIP3    H128808   6.265   3.535  16.822 -0.5806 -0.0565 -0.0078
 2439TIP3    H228809   6.378   3.606  16.894  0.5666 -0.6572 -1.1761
 2440TIP3   OH228810   1.001   5.030   3.814 -0.3472  0.0747  0.4331
 2440TIP3    H128811   1.017   4.990   3.900 -0.6727  0.9996  0.9379
 2440TIP3    H228812   1.036   5.118   3.822  2.3251 -0.7043 -1.3533
 2441TIP3   OH228813   1.876   5.660   0.548  0.1553 -0.2412  0.1740
 2441TIP3    H128814   1.905   5.752   0.549 -0.5926  0.0220 -0.9685
 2441TIP3    H228815   1.914   5.623   0.628  1.7150  0.6660 -0.0982
 2442TIP3   OH228816   1.202   2.092   3.815 -0.0876  0.2685  0.4330
 2442TIP3    H128817   1.166   2.078   3.903 -1.8750  1.4612 -0.0673
 2442TIP3    H228818   1.163   2.023   3.762  1.1635 -0.5868  0.5864
 2443TIP3   OH228819   0.368   4.234   3.808 -0.9299  0.1887 -0.7171
 2443TIP3    H128820   0.401   4.225   3.898  0.8482 -0.6097 -1.3898
 2443TIP3    H228821   0.345   4.326   3.799  0.2690  0.5916  0.1323
 2444TIP3   OH228822   0.160   4.125   4.558 -0.4897  0.9677 -0.2842
 2444TIP3    H128823   0.182   4.183   4.631  0.3835  0.1470  0.1258
 2444TIP3    H228824   0.065   4.130   4.552 -0.7600 -0.2090  2.0008
 2445TIP3   OH228825   1.996   2.086  16.336  0.3654  0.1962 -0.6948
 2445TIP3    H128826   1.919   2.099  16.282 -1.6798 -0.7376  1.8124
 2445TIP3    H228827   2.008   2.169  16.382 -1.2065 -0.6262  1.3204
 2446TIP3   OH228828   6.215   6.699   5.849  0.4859 -0.2374 -0.4564
 2446TIP3    H128829   6.191   6.768   5.787 -0.4849  0.6103  0.8184
 2446TIP3    H228830   6.134   6.650   5.863  1.3643 -2.2998 -2.0642
 2447TIP3   OH228831   6.725   1.396  16.952 -1.1593 -0.3292  0.8245
 2447TIP3    H128832   6.673   1.477  16.954 -2.3997 -1.0981  0.7678
 2447TIP3    H228833   6.660   1.326  16.947 -0.0829 -1.2824 -0.8317
 2448TIP3   OH228834   6.616   1.516  16.230  0.1789  0.8660  0.5093
 2448TIP3    H128835   6.650   1.449  16.170 -0.6362  1.8915 -1.1739
 2448TIP3    H228836   6.567   1.466  16.296  0.8212 -0.2837  0.1504
 2449TIP3   OH228837   1.296   1.807  17.132  0.1326  0.6083 -0.2670
 2449TIP3    H128838   1.304   1.825  17.038 -0.0415 -0.7036 -0.5507
 2449TIP3    H228839   1.208   1.770  17.142  0.2307  0.5317  0.3762
 2450TIP3   OH228840   6.001   4.086  14.313  0.5199  0.5336 -0.4487
 2450TIP3    H128841   6.028   4.117  14.399  0.7207 -0.5457 -0.1109
 2450TIP3    H228842   6.033   3.996  14.308 -0.2175  0.2973 -1.3187
 2451TIP3   OH228843   0.444   3.428   2.570  0.3485  0.2855 -0.4673
 2451TIP3    H128844   0.482   3.447   2.656  0.9023 -2.1704 -0.0955
 2451TIP3    H228845   0.494   3.482   2.510  2.2190 -0.3492  0.4213
 2452TIP3   OH228846   4.979   1.708   3.818  0.4395 -0.3587 -0.2141
 2452TIP3    H128847   4.983   1.796   3.780  0.4724 -0.1337  0.3024
 2452TIP3    H228848   4.886   1.691   3.830  0.4832  0.2714  1.1903
 2453TIP3   OH228849   4.907   1.137   5.332 -0.6585  0.4847 -0.7072
 2453TIP3    H128850   4.968   1.098   5.271  1.7658  0.6666  1.4294
 2453TIP3    H228851   4.872   1.064   5.382 -2.8082  0.3108 -2.3256
 2454TIP3   OH228852   1.244   1.104   0.028 -0.0139  0.3479 -0.3355
 2454TIP3    H128853   1.306   1.125  -0.041  0.1030 -0.7196 -0.5780
 2454TIP3    H228854   1.234   1.009   0.023 -1.6299  0.4931 -0.2681
 2455TIP3   OH228855   4.700   0.369  12.517  0.1576  0.5026  0.8837
 2455TIP3    H128856   4.743   0.286  12.492  1.6142  1.1527  1.1281
 2455TIP3    H228857   4.662   0.351  12.603  0.5844  0.1171  1.0018
 2456TIP3   OH228858   1.210   1.664  16.452 -0.5305 -0.5525 -0.5447
 2456TIP3    H128859   1.190   1.741  16.506  0.1133 -0.0001 -1.0655
 2456TIP3    H228860   1.143   1.601  16.474 -1.5870  0.4754 -0.7215
 2457TIP3   OH228861   3.830   0.149  16.976  0.3131 -0.1023 -0.1385
 2457TIP3    H128862   3.892   0.204  17.025 -0.4469 -1.8855  3.1208
 2457TIP3    H228863   3.745   0.170  17.014 -0.4067 -1.3472 -0.9952
 2458TIP3   OH228864   1.886   0.072  15.055  0.3085 -0.2276 -0.2755
 2458TIP3    H128865   1.879   0.167  15.046  0.7369 -0.2388 -0.7485
 2458TIP3    H228866   1.804   0.046  15.097 -0.9823  0.0594 -2.4500
 2459TIP3   OH228867   3.615   0.272   2.442  0.1828 -0.6926 -0.1584
 2459TIP3    H128868   3.621   0.238   2.531  0.8660 -0.6992 -0.2056
 2459TIP3    H228869   3.658   0.205   2.388  2.8008  0.8324 -0.1065
 2460TIP3   OH228870   2.310   2.395   3.371 -0.4564  0.1701 -0.7236
 2460TIP3    H128871   2.318   2.426   3.461  2.1296 -0.8351 -0.5060
 2460TIP3    H228872   2.275   2.307   3.379  1.6676 -0.7026 -0.4639
 2461TIP3   OH228873   3.389   4.177  12.967 -0.1997 -0.3729  0.1769
 2461TIP3    H128874   3.376   4.253  12.911 -2.9079 -0.6161  0.3046
 2461TIP3    H228875   3.414   4.107  12.907  0.6214  0.2187 -0.1838
 2462TIP3   OH228876   0.945   0.514  14.021 -0.2242  0.3907  0.1954
 2462TIP3    H128877   0.883   0.580  14.052 -1.9442  0.0570 -2.2932
 2462TIP3    H228878   0.942   0.520  13.926  2.4742 -0.7130 -0.0629
 2463TIP3   OH228879   3.532   3.328   3.897  0.0318 -0.0199 -0.3797
 2463TIP3    H128880   3.504   3.413   3.931  2.4124  0.8679 -0.4618
 2463TIP3    H228881   3.548   3.345   3.804  0.4086 -0.5966 -0.4183
 2464TIP3   OH228882   1.070   5.746   4.134  0.3301 -0.0582  0.4428
 2464TIP3    H128883   1.151   5.739   4.084  0.2934  2.7871 -0.1456
 2464TIP3    H228884   1.023   5.664   4.115  0.9021  0.2973 -3.1478
 2465TIP3   OH228885   1.913   5.619  16.563  0.5070 -0.2979  0.5651
 2465TIP3    H128886   1.839   5.616  16.624 -0.8101  2.2104 -0.7579
 2465TIP3    H228887   1.872   5.627  16.476  2.3175  1.2591 -0.2127
 2466TIP3   OH228888   6.356   4.790   4.757  0.0785  0.4156 -0.7743
 2466TIP3    H128889   6.285   4.854   4.757 -0.8948 -0.3164  3.5623
 2466TIP3    H228890   6.318   4.712   4.799  2.9804 -0.6029  0.1927
 2467TIP3   OH228891   4.931   4.771  16.165 -0.0277 -0.5841  0.0178
 2467TIP3    H128892   4.985   4.783  16.243 -0.0866  1.0070 -0.1642
 2467TIP3    H228893   4.983   4.807  16.093 -1.2428  0.8688 -0.1823
 2468TIP3   OH228894   0.804   2.674  14.526  0.2901  0.2973 -0.2299
 2468TIP3    H128895   0.893   2.644  14.506  0.7192  0.1669  1.6417
 2468TIP3    H228896   0.802   2.764  14.494  0.8418  0.0682 -0.9428
 2469TIP3   OH228897   0.224   0.541   2.016  0.3743  0.2009  0.4498
 2469TIP3    H128898   0.295   0.530   2.079  1.7920  0.0468 -1.0839
 2469TIP3    H228899   0.243   0.477   1.947 -1.1192  0.3432 -0.1390
 2470TIP3   OH228900   4.421   0.752   2.895 -0.0540 -0.2946 -0.0728
 2470TIP3    H128901   4.504   0.748   2.942 -1.5288 -0.1427  2.7819
 2470TIP3    H228902   4.402   0.846   2.888 -2.1690 -0.2243  3.8209
 2471TIP3   OH228903   6.046   4.390   1.090  0.1224  0.3596  0.4799
 2471TIP3    H128904   5.964   4.429   1.120 -1.2654 -2.4792  0.7400
 2471TIP3    H228905   6.067   4.439   1.010 -0.2144  3.0181  1.9041
 2472TIP3   OH228906   4.566   6.646   0.695 -0.1248 -0.4699  0.1069
 2472TIP3    H128907   4.523   6.724   0.659  1.5189  0.8930  1.0055
 2472TIP3    H228908   4.600   6.601   0.618 -1.5894 -0.6485 -0.4719
 2473TIP3   OH228909   5.001   5.611  14.679  0.5017  0.2100 -0.3322
 2473TIP3    H128910   5.033   5.694  14.716  2.1185 -0.6838  0.3746
 2473TIP3    H228911   4.959   5.637  14.597 -0.0117  1.8392  0.3923
 2474TIP3   OH228912   6.828   2.117   3.781  0.0009  0.3132 -0.1286
 2474TIP3    H128913   6.801   2.059   3.851  2.1020  0.1870  0.6520
 2474TIP3    H228914   6.787   2.201   3.802 -2.4580 -0.6021 -0.8761
 2475TIP3   OH228915   1.931   1.152   3.502 -0.2876 -0.9721  0.1517
 2475TIP3    H128916   2.023   1.145   3.527  0.3219  2.6805 -0.5357
 2475TIP3    H228917   1.886   1.175   3.584  0.1724  1.3289 -0.1622
 2476TIP3   OH228918   1.693   1.238  16.272  0.1100 -0.1752  0.4378
 2476TIP3    H128919   1.651   1.232  16.358 -0.1875  0.8420  0.3823
 2476TIP3    H228920   1.654   1.168  16.221  0.0870 -0.6196  1.0512
 2477TIP3   OH228921   2.475   0.512  13.487  0.0933 -0.1465  0.1689
 2477TIP3    H128922   2.430   0.593  13.464  1.9882  1.0381  0.4108
 2477TIP3    H228923   2.489   0.518  13.582 -1.2867 -1.6143  0.5108
 2478TIP3   OH228924   4.156   2.483  13.193  0.3581  0.6274  0.5913
 2478TIP3    H128925   4.127   2.495  13.283  1.2389  0.9226  0.8494
 2478TIP3    H228926   4.140   2.391  13.174  2.2490 -0.0366  1.8449
 2479TIP3   OH228927   1.575   1.069  16.076  0.3851 -0.1787 -0.1808
 2479TIP3    H128928   1.508   1.119  16.030  1.8486  0.8818 -1.2709
 2479TIP3    H228929   1.527   1.004  16.126 -1.5587  1.5452  0.3422
 2480TIP3   OH228930   1.910   6.221  15.089 -0.0395  0.3074 -0.4893
 2480TIP3    H128931   1.863   6.205  15.008 -0.8994 -1.0033  0.2277
 2480TIP3    H228932   1.929   6.134  15.124 -1.4304  0.7937  1.6824
 2481TIP3   OH228933   5.044   1.858  14.221 -0.2657  0.1573  0.2157
 2481TIP3    H128934   5.047   1.776  14.271 -1.2328  1.2908  2.2676
 2481TIP3    H228935   4.971   1.846  14.160  1.7746 -1.7668 -2.0378
 2482TIP3   OH228936   6.836   0.442   0.444  0.1217  0.3230  0.3183
 2482TIP3    H128937   6.817   0.485   0.528 -0.9681 -0.9892  0.7752
 2482TIP3    H228938   6.908   0.381   0.465  0.3310  0.5043  0.1291
 2483TIP3   OH228939   5.685   6.064   3.016 -0.2535  0.3456  0.3903
 2483TIP3    H128940   5.721   6.150   2.996  1.1734 -0.4112 -0.4140
 2483TIP3    H228941   5.730   6.035   3.095 -0.1989  0.0357  0.2502
 2484TIP3   OH228942   1.601   5.944   0.005 -0.2123 -0.7190 -0.0987
 2484TIP3    H128943   1.618   5.930  -0.088  0.2783 -1.4047  0.0821
 2484TIP3    H228944   1.587   6.038   0.013  0.7601 -0.5048 -0.7031
 2485TIP3   OH228945   6.365   3.783   0.708  0.3652 -0.1028  0.4993
 2485TIP3    H128946   6.411   3.858   0.671  1.2591 -0.2542  1.2712
 2485TIP3    H228947   6.312   3.819   0.779  0.7001 -0.1863  0.7910
 2486TIP3   OH228948   0.386   6.281   1.046  0.7355  0.2944 -0.0455
 2486TIP3    H128949   0.337   6.200   1.029 -0.7507  0.9596  0.8443
 2486TIP3    H228950   0.350   6.344   0.984  2.0696  0.2407 -0.9109
 2487TIP3   OH228951   1.721   2.599   6.076  0.2042  0.1219  0.2616
 2487TIP3    H128952   1.728   2.613   6.170 -0.2919  0.5902  0.2348
 2487TIP3    H228953   1.633   2.565   6.062 -0.5197  2.0396 -0.2297
 2488TIP3   OH228954   1.389   2.252   5.038 -0.3439 -0.8465  0.1769
 2488TIP3    H128955   1.468   2.242   5.091 -0.4853 -0.6243  0.4350
 2488TIP3    H228956   1.325   2.192   5.078 -1.4812  1.5552  2.2870
 2489TIP3   OH228957   5.680   2.140   4.440 -0.4560  0.2403 -0.1315
 2489TIP3    H128958   5.632   2.113   4.519 -0.3305  1.7592  0.4919
 2489TIP3    H228959   5.761   2.179   4.473  0.3867 -0.6129 -1.1026
 2490TIP3   OH228960   6.227   4.583  13.211  0.0601  0.0004  0.6857
 2490TIP3    H128961   6.289   4.626  13.152  0.6650  0.8914  1.9266
 2490TIP3    H228962   6.206   4.650  13.276  0.4734 -1.3413  2.2723
 2491TIP3   OH228963   3.609   1.175  15.429  0.0840 -0.0459 -0.1561
 2491TIP3    H128964   3.655   1.168  15.513 -0.3755  0.4914  0.1494
 2491TIP3    H228965   3.570   1.089  15.416  0.7786 -0.3621 -0.1864
 2492TIP3   OH228966   1.834   6.307  12.585 -0.2891 -0.4117 -0.1461
 2492TIP3    H128967   1.771   6.374  12.561 -0.2539  0.0977  1.0757
 2492TIP3    H228968   1.791   6.224  12.565 -0.6260 -0.0389 -0.9840
 2493TIP3   OH228969   5.447   0.163   1.522 -0.4780  0.2232  0.1111
 2493TIP3    H128970   5.534   0.200   1.502 -0.2165  0.0032  0.8176
 2493TIP3    H228971   5.394   0.239   1.547 -1.1377  0.6816 -2.3629
 2494TIP3   OH228972   2.775   1.992   1.281  0.8076 -0.5367  0.8368
 2494TIP3    H128973   2.824   2.027   1.206  2.8724  0.1309  2.3827
 2494TIP3    H228974   2.710   2.059   1.301  0.3162 -0.6673 -0.2601
 2495TIP3   OH228975   3.239   1.782  11.919  0.3678 -0.2484  0.2879
 2495TIP3    H128976   3.162   1.731  11.944 -0.4507  1.4139  1.3288
 2495TIP3    H228977   3.285   1.797  12.001  2.1618 -1.6580 -0.3791
 2496TIP3   OH228978   0.186   0.771  16.257  0.3382  0.0632  0.2150
 2496TIP3    H128979   0.203   0.865  16.250  0.9259  0.1209  1.9611
 2496TIP3    H228980   0.114   0.755  16.196  1.3644  1.3048 -1.4045
 2497TIP3   OH228981   2.138   6.830   4.736 -0.0218  0.0432 -0.6929
 2497TIP3    H128982   2.125   6.845   4.830  0.0086  0.4114 -0.7471
 2497TIP3    H228983   2.073   6.885   4.694 -1.4078 -1.6422 -0.8508
 2498TIP3   OH228984   5.381   4.955  16.654 -0.1713 -0.2933 -0.6530
 2498TIP3    H128985   5.321   5.020  16.691  0.2382 -0.7405  0.8660
 2498TIP3    H228986   5.449   4.945  16.721 -0.1270 -2.1538 -0.9409
 2499TIP3   OH228987   0.578   5.915   5.856  0.2383  0.1686 -0.0228
 2499TIP3    H128988   0.528   5.910   5.774 -1.9467  0.2505  1.2213
 2499TIP3    H228989   0.545   5.993   5.899 -0.0515 -0.8826  1.7546
 2500TIP3   OH228990   6.500   5.095  16.780 -0.1247 -0.1444 -0.1130
 2500TIP3    H128991   6.508   5.160  16.710  0.0336  1.0727  0.9823
 2500TIP3    H228992   6.426   5.127  16.832  0.5466 -0.3154  0.9730
 2501TIP3   OH228993   1.567   0.265  15.327 -0.1071  0.5987  0.5072
 2501TIP3    H128994   1.609   0.239  15.409  1.2248  1.7878  0.2505
 2501TIP3    H228995   1.615   0.344  15.300 -0.7319  0.4208 -1.2461
 2502TIP3   OH228996   1.442   4.902   5.494  0.3584 -0.1701  0.3417
 2502TIP3    H128997   1.407   4.857   5.570 -0.6635  1.0009  0.5904
 2502TIP3    H228998   1.536   4.910   5.511  0.4533 -1.5902  0.5825
 2503TIP3   OH228999   5.877   6.234  12.694  0.0652  0.1190  0.0051
 2503TIP3    H129000   5.904   6.292  12.765  2.4695  1.8715 -2.1569
 2503TIP3    H229001   5.959   6.206  12.653 -1.1949 -1.1817 -1.8033
 2504TIP3   OH229002   0.786   2.677  15.013 -0.3165  0.0171 -0.8825
 2504TIP3    H129003   0.758   2.629  14.935  1.1644 -1.1434 -0.7455
 2504TIP3    H229004   0.841   2.747  14.980 -1.1695  0.6532 -0.9790
 2505TIP3   OH229005   2.680   2.609  14.220 -0.0648  0.1286  0.3342
 2505TIP3    H129006   2.650   2.670  14.287  0.6167  0.7236  0.1064
 2505TIP3    H229007   2.742   2.552  14.265  0.5266  0.6407  0.1705
 2506TIP3   OH229008   3.450   4.269  12.601 -0.0462  0.3720  0.3261
 2506TIP3    H129009   3.436   4.302  12.689 -1.4046  0.1352  0.2290
 2506TIP3    H229010   3.509   4.332  12.560  1.0626  0.1756  1.5713
 2507TIP3   OH229011   2.286   5.913  16.571 -0.8236  0.0648 -0.8024
 2507TIP3    H129012   2.236   5.833  16.583 -0.4391  0.0095  0.7258
 2507TIP3    H229013   2.272   5.962  16.652  1.3166  0.1867 -0.4429
 2508TIP3   OH229014   2.628   5.446   5.265 -0.3026 -0.1141 -0.1083
 2508TIP3    H129015   2.596   5.418   5.351  2.5199 -1.6778  0.5379
 2508TIP3    H229016   2.636   5.541   5.272 -0.2754 -0.2027  1.3105
 2509TIP3   OH229017   5.558   5.639  12.288 -0.5411 -0.3625 -0.2302
 2509TIP3    H129018   5.490   5.706  12.283 -0.4421 -0.2445  0.0097
 2509TIP3    H229019   5.522   5.573  12.348 -1.3702 -1.3645 -1.7649
 2510TIP3   OH229020   4.204   1.760  16.910  0.2566  0.6226 -0.1858
 2510TIP3    H129021   4.207   1.723  16.999 -1.7865 -0.9275 -0.6665
 2510TIP3    H229022   4.154   1.841  16.920  0.9681  1.0128  0.2365
 2511TIP3   OH229023   6.773   3.315   5.304  0.0588  0.1162 -0.0515
 2511TIP3    H129024   6.716   3.244   5.273 -1.4817  0.8600  0.9695
 2511TIP3    H229025   6.840   3.322   5.236 -2.0629  0.4059 -2.2766
 2512TIP3   OH229026   3.892   1.274   5.811 -0.5026 -0.7565 -0.0005
 2512TIP3    H129027   3.935   1.253   5.894  0.4019 -0.0245 -0.2688
 2512TIP3    H229028   3.802   1.244   5.822 -1.0913  1.5844  2.1760
 2513TIP3   OH229029   3.763   5.590   4.566  0.1162  0.2158 -0.4409
 2513TIP3    H129030   3.726   5.576   4.479  0.2646  1.5351 -0.7512
 2513TIP3    H229031   3.689   5.582   4.626  0.3286 -2.6065 -0.4380
 2514TIP3   OH229032   5.828   1.565  15.798 -0.3406 -0.1337  0.7647
 2514TIP3    H129033   5.813   1.529  15.885 -2.7676 -1.1165  0.0176
 2514TIP3    H229034   5.809   1.659  15.807 -1.3619 -0.3684  1.1506
 2515TIP3   OH229035   0.825   5.248  12.070  0.2601  0.0711 -0.1687
 2515TIP3    H129036   0.760   5.313  12.043 -1.0781 -1.3038 -0.3889
 2515TIP3    H229037   0.799   5.169  12.024  0.6148 -1.1657  1.6601
 2516TIP3   OH229038   3.818   3.795  15.140 -0.1419  0.8849 -0.6682
 2516TIP3    H129039   3.747   3.774  15.200 -1.2019  0.9145 -1.8558
 2516TIP3    H229040   3.775   3.838  15.066  0.7703 -1.0457 -2.4437
 2517TIP3   OH229041   5.877   0.968   4.264 -0.3549  0.3195  0.4847
 2517TIP3    H129042   5.917   0.955   4.350 -0.8384  0.5486  0.7479
 2517TIP3    H229043   5.816   1.040   4.277 -2.5817 -1.5127  0.6934
 2518TIP3   OH229044   1.056   6.356   5.350  0.2883  0.3675 -0.3956
 2518TIP3    H129045   0.999   6.280   5.342 -0.9668  1.3550 -1.2182
 2518TIP3    H229046   1.000   6.426   5.384  0.9401  1.4071 -1.3736
 2519TIP3   OH229047   4.047   4.198  16.078  0.2409  0.1308  0.3267
 2519TIP3    H129048   4.142   4.188  16.073  0.6369  2.8479  0.6951
 2519TIP3    H229049   4.034   4.279  16.127 -2.1501  1.3322 -2.0010
 2520TIP3   OH229050   0.196   1.584  13.225 -1.2093 -0.4602  0.2756
 2520TIP3    H129051   0.248   1.534  13.161 -1.6087  0.0024 -0.4227
 2520TIP3    H229052   0.112   1.538  13.229 -0.4969 -1.7344  2.0692
 2521TIP3   OH229053   0.528   1.737  15.338  0.1095  0.6929 -0.2689
 2521TIP3    H129054   0.462   1.776  15.395 -1.0329  0.1321 -1.1639
 2521TIP3    H229055   0.549   1.806  15.274 -1.2034  0.2087 -1.2681
 2522TIP3   OH229056   6.228   2.438   2.713  0.0283 -0.4957 -0.0524
 2522TIP3    H129057   6.319   2.440   2.743 -0.1335 -1.7008  0.6050
 2522TIP3    H229058   6.196   2.527   2.728  1.4559  0.3068 -1.5309
 2523TIP3   OH229059   4.717   6.087   4.999 -0.3236  0.4523  0.4143
 2523TIP3    H129060   4.730   6.125   5.086  0.8957  1.4385 -0.1598
 2523TIP3    H229061   4.784   6.128   4.944 -1.8623  0.8526 -1.3066
 2524TIP3   OH229062   5.846   6.423  12.904  0.4739 -0.0800  0.7541
 2524TIP3    H129063   5.914   6.486  12.880  0.0527  0.5573  1.2042
 2524TIP3    H229064   5.883   6.375  12.978  0.7565 -0.2953  0.4743
 2525TIP3   OH229065   2.637   1.777  12.966 -0.1028  0.1135  0.0776
 2525TIP3    H129066   2.542   1.772  12.960 -0.1137 -1.6500  1.0057
 2525TIP3    H229067   2.653   1.828  13.045 -0.3299 -0.8063  0.7387
 2526TIP3   OH229068   3.062   0.593  15.047 -0.5038 -0.4092 -0.3415
 2526TIP3    H129069   3.106   0.597  15.131 -0.3845  0.2889 -0.4266
 2526TIP3    H229070   3.002   0.519  15.054 -0.4911 -0.3591  0.3548
 2527TIP3   OH229071   2.815   5.845   4.837  0.4010  0.4522 -0.2914
 2527TIP3    H129072   2.903   5.842   4.876 -0.3676  0.3233  1.5217
 2527TIP3    H229073   2.821   5.913   4.771  2.4006 -0.8816 -1.6159
 2528TIP3   OH229074   6.206   5.142   5.596  0.0220  0.1951  0.0437
 2528TIP3    H129075   6.167   5.057   5.574 -1.9113  1.1987 -0.7096
 2528TIP3    H229076   6.131   5.201   5.606  1.3294  2.1508 -0.9206
 2529TIP3   OH229077   2.857   5.327   0.461  0.0124 -0.2812 -0.1903
 2529TIP3    H129078   2.861   5.373   0.377  0.9647  0.2000  0.1149
 2529TIP3    H229079   2.765   5.302   0.469  0.1033 -1.3550 -1.9123
 2530TIP3   OH229080   3.566   3.309   1.334 -0.5682 -0.2718 -0.2183
 2530TIP3    H129081   3.477   3.336   1.354  0.1724  1.1460  1.3731
 2530TIP3    H229082   3.604   3.286   1.419  1.1051  0.8824 -0.6116
 2531TIP3   OH229083   4.348   5.600   2.612  0.0650 -0.0217 -0.0681
 2531TIP3    H129084   4.383   5.524   2.658 -2.1366 -2.6822 -2.3633
 2531TIP3    H229085   4.253   5.586   2.611 -0.3002  1.9400 -1.9031
 2532TIP3   OH229086   1.777   1.827  11.724 -0.1480 -0.4582  0.1032
 2532TIP3    H129087   1.771   1.874  11.808  1.1755 -0.7611  0.3836
 2532TIP3    H229088   1.863   1.850  11.689  0.1572 -1.9304 -0.1907
 2533TIP3   OH229089   5.940   0.401   1.924 -0.0231  0.1982 -0.0485
 2533TIP3    H129090   5.911   0.396   1.833  2.9872  0.7704 -1.1540
 2533TIP3    H229091   5.988   0.320   1.939  3.5255  2.0060 -0.6308
 2534TIP3   OH229092   5.800   4.217   1.651  0.3126 -0.0982 -0.1032
 2534TIP3    H129093   5.730   4.152   1.645 -2.3595  1.8315  4.5334
 2534TIP3    H229094   5.860   4.181   1.716  1.9077 -0.2868 -1.6366
 2535TIP3   OH229095   3.765   1.730  10.677 -0.1020 -0.0008  0.5815
 2535TIP3    H129096   3.704   1.703  10.745 -0.0694 -1.0985  0.1964
 2535TIP3    H229097   3.841   1.673  10.689 -0.7147 -1.2955 -1.3187
 2536TIP3   OH229098   3.133   2.382  13.312 -0.2133 -0.0118  0.0251
 2536TIP3    H129099   3.104   2.393  13.403 -2.2465 -0.2040 -0.5545
 2536TIP3    H229100   3.082   2.445  13.263 -2.4425 -2.7981 -1.5476
 2537TIP3   OH229101   5.442   4.871   4.490  0.1254  0.4529  0.1093
 2537TIP3    H129102   5.376   4.937   4.468  0.2671  0.5691  0.0308
 2537TIP3    H229103   5.497   4.913   4.556  2.5009  1.8451 -2.5496
 2538TIP3   OH229104   6.123   6.602   2.503 -0.3289 -0.2336  0.0181
 2538TIP3    H129105   6.095   6.593   2.594 -0.1726  1.4157  0.2582
 2538TIP3    H229106   6.043   6.589   2.452 -0.1177 -2.9059  0.2328
 2539TIP3   OH229107   2.548   5.160  11.645 -0.0466 -0.2589  0.0468
 2539TIP3    H129108   2.611   5.134  11.578 -0.7039 -0.2220 -0.6003
 2539TIP3    H229109   2.475   5.198  11.596 -0.5651 -0.2877  0.7803
 2540TIP3   OH229110   5.190   3.869   4.306  0.0878 -0.7655  0.2074
 2540TIP3    H129111   5.203   3.802   4.239 -0.6220  0.1291 -0.8696
 2540TIP3    H229112   5.107   3.846   4.347 -0.5904 -0.1203 -0.7394
 2541TIP3   OH229113   2.992   2.243  11.149  0.4331 -0.2507 -0.2623
 2541TIP3    H129114   2.920   2.264  11.208  0.6407  0.1744 -0.1563
 2541TIP3    H229115   2.951   2.228  11.064  0.4116  2.2408 -0.7513
 2542TIP3   OH229116   1.737   4.918   5.476  0.5202  0.3584  0.0856
 2542TIP3    H129117   1.785   4.997   5.499 -0.3082  0.6355  0.8941
 2542TIP3    H229118   1.801   4.847   5.487  1.7166  0.9981 -2.0558
 2543TIP3   OH229119   1.529   4.442   0.664  0.1147 -0.0790 -0.3303
 2543TIP3    H129120   1.585   4.387   0.610 -0.1743 -0.0444 -0.6741
 2543TIP3    H229121   1.440   4.416   0.640 -0.0149  0.0030  0.0618
 2544TIP3   OH229122   4.635   4.294   6.237 -0.1669  0.3209  1.0078
 2544TIP3    H129123   4.699   4.227   6.212  0.1076  1.0352 -0.2972
 2544TIP3    H229124   4.550   4.249   6.234 -0.0080  0.0727 -0.0672
 2545TIP3   OH229125   3.170   4.622  16.126  0.1244 -0.3004 -0.4512
 2545TIP3    H129126   3.100   4.557  16.129 -0.4135  0.2867  0.4000
 2545TIP3    H229127   3.123   4.706  16.127  0.8107  0.1976  3.4172
 2546TIP3   OH229128   4.876   3.463  14.121 -0.2423 -0.3926  0.2673
 2546TIP3    H129129   4.786   3.496  14.129 -0.4237 -1.1639  1.9021
 2546TIP3    H229130   4.919   3.523  14.060 -0.8927  2.1554  2.1571
 2547TIP3   OH229131   1.208   4.717   0.478  0.1792  0.3458 -0.6172
 2547TIP3    H129132   1.156   4.673   0.410  1.8783 -0.3986 -1.4872
 2547TIP3    H229133   1.296   4.681   0.468  1.3311  2.9043 -0.3909
 2548TIP3   OH229134   5.121   1.389  16.842 -0.1460  0.2610  0.0799
 2548TIP3    H129135   5.078   1.456  16.895  1.4008  1.3018  0.0896
 2548TIP3    H229136   5.200   1.366  16.891  1.1282  0.9675 -1.5110
 2549TIP3   OH229137   3.892   6.841  12.665 -0.5911  0.6402  0.2278
 2549TIP3    H129138   3.908   6.909  12.599 -1.0488  1.0076  0.4893
 2549TIP3    H229139   3.889   6.888  12.748  1.9380 -0.0609  0.7754
 2550TIP3   OH229140   4.172   2.011  13.347 -0.2098  0.1580 -0.1931
 2550TIP3    H129141   4.220   1.928  13.350 -0.3118  0.0241 -1.4825
 2550TIP3    H229142   4.235   2.077  13.376  0.1461 -0.2595 -0.0014
 2551TIP3   OH229143   5.246   0.485  13.970  0.1494 -0.4243 -0.2595
 2551TIP3    H129144   5.285   0.457  14.053 -0.7437 -0.0903  0.2874
 2551TIP3    H229145   5.312   0.542  13.931  0.2915 -0.0087  0.5583
 2552TIP3   OH229146   6.019   6.315   2.490 -0.5253  0.1330 -0.3864
 2552TIP3    H129147   5.993   6.401   2.457  0.1896  0.2668 -0.6423
 2552TIP3    H229148   5.937   6.269   2.508 -0.9149  1.1525  0.5225
 2553TIP3   OH229149   0.782   2.847   5.435 -0.3546  0.4617  0.3704
 2553TIP3    H129150   0.821   2.934   5.439 -2.6281  1.5579  0.1599
 2553TIP3    H229151   0.750   2.840   5.345 -0.0142 -0.7088  0.3273
 2554TIP3   OH229152   4.746   1.175  12.415  0.3866 -0.1006  0.1974
 2554TIP3    H129153   4.657   1.160  12.446  0.2538 -0.0801 -0.1630
 2554TIP3    H229154   4.800   1.113  12.463  0.6467  1.8932  2.6797
 2555TIP3   OH229155   2.425   0.199  13.113 -0.3491  0.7570  0.3960
 2555TIP3    H129156   2.450   0.219  13.203  0.9948 -0.2759  0.2869
 2555TIP3    H229157   2.348   0.254  13.096 -1.1035  0.3975  2.4186
 2556TIP3   OH229158   1.747   0.465   4.817  0.0693 -0.4414  0.3811
 2556TIP3    H129159   1.692   0.495   4.745  0.8579 -0.4860 -0.2533
 2556TIP3    H229160   1.726   0.372   4.826  0.3532 -0.5600 -0.1492
 2557TIP3   OH229161   4.040   4.724  14.433 -0.6051  0.0012  0.1813
 2557TIP3    H129162   4.055   4.675  14.513 -1.7783  0.4575  0.6972
 2557TIP3    H229163   4.021   4.658  14.367 -1.2367 -0.2869  0.6505
 2558TIP3   OH229164   6.635   2.584  15.340  0.3115 -0.1653 -0.5292
 2558TIP3    H129165   6.562   2.641  15.319  0.8724  1.0572  0.6941
 2558TIP3    H229166   6.709   2.618  15.289  0.7422  0.4928  0.4912
 2559TIP3   OH229167   0.257   0.154   2.133 -0.7001 -0.3175 -0.4998
 2559TIP3    H129168   0.277   0.061   2.128 -0.8980 -0.4649  1.0794
 2559TIP3    H229169   0.227   0.177   2.045 -0.0194 -1.5872 -1.0813
 2560TIP3   OH229170   2.895   2.838   5.335  0.2367  0.2779 -0.1185
 2560TIP3    H129171   2.869   2.902   5.401 -0.3330  0.3737 -0.4283
 2560TIP3    H229172   2.840   2.858   5.259  0.7795  0.0721 -0.5687
 2561TIP3   OH229173   3.423   2.075   1.149 -0.3846  0.5500  0.3910
 2561TIP3    H129174   3.446   2.038   1.063  0.8501 -0.2579  1.0268
 2561TIP3    H229175   3.329   2.088   1.145 -0.3305  0.6843 -1.1519
 2562TIP3   OH229176   1.137   2.231  14.563 -0.0587 -0.0192 -0.1316
 2562TIP3    H129177   1.086   2.297  14.610  0.2789 -0.5564  1.0097
 2562TIP3    H229178   1.187   2.282  14.499  0.9699  0.9936  1.3952
 2563TIP3   OH229179   4.137   6.040  13.384 -0.9504 -0.1421  0.5315
 2563TIP3    H129180   4.130   6.040  13.289 -3.1764 -1.6718  0.6216
 2563TIP3    H229181   4.082   6.114  13.412 -2.0279 -0.9842  0.6751
 2564TIP3   OH229182   1.549   0.548   5.142  0.1029 -0.4051 -0.1415
 2564TIP3    H129183   1.557   0.643   5.139 -2.1419 -0.1635 -0.7015
 2564TIP3    H229184   1.538   0.528   5.235  1.6883 -0.2800  0.1010
 2565TIP3   OH229185   0.959   5.271   0.655 -0.1188  0.2573  0.1861
 2565TIP3    H129186   0.870   5.306   0.660  0.3346  1.3243  1.2915
 2565TIP3    H229187   0.990   5.295   0.568 -0.3224  1.4010  0.4115
 2566TIP3   OH229188   5.298   4.150   3.176 -0.0965  0.3046 -0.1747
 2566TIP3    H129189   5.271   4.058   3.173  0.2631  0.1312  1.2410
 2566TIP3    H229190   5.215   4.199   3.182 -0.2414 -0.1273  2.3024
 2567TIP3   OH229191   4.857   6.421   6.491 -0.1187 -0.3202 -0.8074
 2567TIP3    H129192   4.842   6.334   6.528 -0.1259 -0.4059 -1.0084
 2567TIP3    H229193   4.923   6.461   6.548  1.2177 -1.1305 -1.7396
 2568TIP3   OH229194   4.002   0.009   4.949  0.4352  0.7199  0.5220
 2568TIP3    H129195   3.912  -0.010   4.923  0.5297  1.8417 -0.7362
 2568TIP3    H229196   4.048   0.026   4.867  2.3902 -2.0214  0.9316
 2569TIP3   OH229197   0.712   3.175  14.459 -0.0789  0.3725  0.5918
 2569TIP3    H129198   0.683   3.260  14.492 -0.0627 -0.1359  1.9776
 2569TIP3    H229199   0.639   3.116  14.476  0.3681 -0.1443  0.7627
 2570TIP3   OH229200   1.734   1.019  14.161 -0.0684  0.3554 -0.2388
 2570TIP3    H129201   1.648   0.985  14.138  0.6345 -1.1650 -0.7999
 2570TIP3    H229202   1.766   1.059  14.080  0.3548 -0.4622 -0.4887
 2571TIP3   OH229203   4.930   1.566   4.320  0.0174 -0.7308  0.3116
 2571TIP3    H129204   4.840   1.590   4.300  0.8270  0.4216 -2.3918
 2571TIP3    H229205   4.976   1.650   4.331  0.8979 -1.2872  1.1134
 2572TIP3   OH229206   0.312   4.848  10.831  0.7719  0.2802 -0.4160
 2572TIP3    H129207   0.360   4.783  10.780 -0.6360 -0.6907 -0.5547
 2572TIP3    H229208   0.227   4.856  10.787 -0.3845 -0.3841  1.5285
 2573TIP3   OH229209   5.530   6.313   4.139  0.3496  0.1913 -0.2668
 2573TIP3    H129210   5.624   6.302   4.126  0.8327  1.0784  1.9535
 2573TIP3    H229211   5.501   6.369   4.067  1.3593 -0.6860 -1.3806
 2574TIP3   OH229212   0.378   3.388  12.695 -0.6188  0.1141  0.1490
 2574TIP3    H129213   0.345   3.478  12.687  0.2236  0.3625 -0.6842
 2574TIP3    H229214   0.402   3.380  12.788 -1.4809  0.4607  0.4122
 2575TIP3   OH229215   3.689   3.391   4.172  0.3017 -0.1545  0.0908
 2575TIP3    H129216   3.657   3.310   4.134  2.4503 -1.5401  1.0195
 2575TIP3    H229217   3.699   3.372   4.265 -1.7477  2.1085  0.8680
 2576TIP3   OH229218   1.721   3.899  16.031  0.0609 -0.3663  0.3395
 2576TIP3    H129219   1.740   3.954  16.107 -0.7997  0.4239  0.0027
 2576TIP3    H229220   1.686   3.818  16.068 -1.7211  0.5505  0.7963
 2577TIP3   OH229221   4.501   0.201   1.136 -0.0218 -0.2599 -0.0842
 2577TIP3    H129222   4.463   0.231   1.053  1.9394  1.4569 -0.4423
 2577TIP3    H229223   4.519   0.282   1.185 -0.8946 -1.2225  1.9443
 2578TIP3   OH229224   2.479   2.395   2.796 -0.0875  0.4523  0.7632
 2578TIP3    H129225   2.395   2.368   2.761  0.2448 -0.8162  0.8813
 2578TIP3    H229226   2.472   2.379   2.890  0.3389  0.1604  0.7504
 2579TIP3   OH229227   1.360   3.471  12.082  0.0543  0.1261  1.1517
 2579TIP3    H129228   1.367   3.553  12.130  0.3168  0.8888 -0.1487
 2579TIP3    H229229   1.267   3.464  12.060 -0.3403 -0.9417  2.9212
 2580TIP3   OH229230   0.401   2.025   0.298  0.4801  0.1124  0.3286
 2580TIP3    H129231   0.407   2.083   0.374  1.6248 -0.0669  0.3898
 2580TIP3    H229232   0.486   1.982   0.294  0.4537  0.1538 -1.0849
 2581TIP3   OH229233   0.907   0.523   6.670  0.1151  0.0028  0.2860
 2581TIP3    H129234   0.995   0.488   6.686  0.1229  0.0101  0.2582
 2581TIP3    H229235   0.920   0.594   6.607  0.0558 -0.1727  0.0731
 2582TIP3   OH229236   4.341   6.629   3.640 -0.0986 -0.0678 -0.1245
 2582TIP3    H129237   4.282   6.628   3.564 -1.0350 -1.2021  0.5767
 2582TIP3    H229238   4.381   6.715   3.638 -2.1373  0.9346 -0.3778
 2583TIP3   OH229239   2.207   0.585  12.974  0.0088  0.3460  0.7646
 2583TIP3    H129240   2.202   0.489  12.975 -1.5712  0.3784 -0.1611
 2583TIP3    H229241   2.277   0.606  13.036  1.2714 -1.4509  0.0437
 2584TIP3   OH229242   1.490   4.143  15.041 -0.2656  0.2520  0.0545
 2584TIP3    H129243   1.440   4.217  15.006 -1.4151  0.1682  1.4129
 2584TIP3    H229244   1.554   4.184  15.100  0.4020  0.2703 -0.6675
 2585TIP3   OH229245   3.369   1.310   2.435 -0.2408  0.1386  0.2650
 2585TIP3    H129246   3.301   1.324   2.502 -0.5125  0.8525 -0.1419
 2585TIP3    H229247   3.448   1.293   2.485 -0.3392  1.1594  0.7995
 2586TIP3   OH229248   4.544   5.880  15.371 -0.5253 -0.1610  0.3832
 2586TIP3    H129249   4.465   5.872  15.425  0.4999 -0.4396  1.9196
 2586TIP3    H229250   4.570   5.972  15.381 -1.6988  0.4822 -1.7492
 2587TIP3   OH229251   5.151   4.465   4.467 -0.0164 -0.2512 -0.5803
 2587TIP3    H129252   5.205   4.425   4.536 -2.1753 -0.0766  1.3498
 2587TIP3    H229253   5.173   4.558   4.471  0.1829 -0.3054 -0.4006
 2588TIP3   OH229254   3.946   6.669  10.781 -0.1260 -0.1470 -0.3232
 2588TIP3    H129255   3.943   6.585  10.737  0.4472  0.4111 -1.4749
 2588TIP3    H229256   4.000   6.724  10.725  0.6780  0.5932  1.0966
 2589TIP3   OH229257   0.045   3.613   5.579 -0.2590 -0.0523  0.1927
 2589TIP3    H129258   0.134   3.645   5.570 -0.4967 -0.0113 -3.1118
 2589TIP3    H229259   0.054   3.519   5.596  0.3564  0.1525  1.0854
 2590TIP3   OH229260   5.848   3.904  11.708  0.5770  0.0881 -0.7796
 2590TIP3    H129261   5.927   3.934  11.664  0.7105  1.0211  0.0487
 2590TIP3    H229262   5.817   3.831  11.655  1.7183  0.0204 -1.3862
 2591TIP3   OH229263   3.521   2.694  16.968 -0.2271 -0.3171  0.1961
 2591TIP3    H129264   3.607   2.701  17.010 -1.3126  1.6065  2.3195
 2591TIP3    H229265   3.525   2.758  16.897  0.3094 -0.7119 -0.1354
 2592TIP3   OH229266   3.898   3.108   0.431 -0.0061 -0.3535 -0.1266
 2592TIP3    H129267   3.893   3.098   0.336  1.7074  0.5968 -0.3670
 2592TIP3    H229268   3.913   3.019   0.464 -0.6533 -0.6958 -0.7278
 2593TIP3   OH229269   0.748   6.738   3.868  0.6644 -0.5328  0.1205
 2593TIP3    H129270   0.663   6.752   3.825  0.4635  0.2944  0.7685
 2593TIP3    H229271   0.811   6.783   3.811  0.2743  1.4435  1.1407
 2594TIP3   OH229272   0.512   1.017   1.181 -0.1745 -0.2198 -0.5250
 2594TIP3    H129273   0.433   1.019   1.236  0.2647 -1.0692  0.1506
 2594TIP3    H229274   0.562   0.942   1.213  0.9202  0.3120 -0.9446
 2595TIP3   OH229275   5.648   6.122  13.189 -0.0217  0.0516 -0.0785
 2595TIP3    H129276   5.685   6.082  13.110  2.6249 -0.0427  1.1068
 2595TIP3    H229277   5.600   6.050  13.232  0.3890 -0.4917 -0.5161
 2596TIP3   OH229278   1.575   4.975  16.833 -0.2226 -0.2760  0.3451
 2596TIP3    H129279   1.596   5.066  16.855  1.2450 -0.8917  1.7106
 2596TIP3    H229280   1.584   4.970  16.738  1.2389  0.6442  0.4084
 2597TIP3   OH229281   1.654   6.488  13.000  0.1395 -0.3082 -0.1987
 2597TIP3    H129282   1.644   6.565  12.943 -0.1617 -1.9014 -2.4129
 2597TIP3    H229283   1.583   6.430  12.975  0.3724 -1.3573  1.4274
 2598TIP3   OH229284   1.072   3.862  13.932  0.6892  0.1888 -0.4838
 2598TIP3    H129285   1.007   3.795  13.912  0.5771 -1.1966  3.4606
 2598TIP3    H229286   1.021   3.939  13.959  0.5784 -0.4531  1.3099
 2599TIP3   OH229287   5.496   6.492   3.933  0.3875  0.3585  0.1620
 2599TIP3    H129288   5.495   6.458   3.844 -0.7451  1.9584 -0.4805
 2599TIP3    H229289   5.556   6.566   3.931  1.1732 -0.2208  1.0221
 2600TIP3   OH229290   2.909   4.700  13.750 -0.5630  0.7382  0.3690
 2600TIP3    H129291   2.869   4.624  13.791 -0.9657  0.1462 -1.0783
 2600TIP3    H229292   2.983   4.722  13.808 -0.4540 -0.7236  0.8260
 2601TIP3   OH229293   5.814   4.257  15.309 -0.7032 -0.7045 -0.0401
 2601TIP3    H129294   5.735   4.206  15.288  0.2355 -2.3094  0.1009
 2601TIP3    H229295   5.828   4.241  15.402 -0.5512  0.0864  0.0760
 2602TIP3   OH229296   4.148   5.177  10.786  0.0979 -0.0278 -0.2630
 2602TIP3    H129297   4.089   5.178  10.861  1.9233 -0.5851  1.2692
 2602TIP3    H229298   4.151   5.269  10.757 -0.1024  0.3294  0.8025
 2603TIP3   OH229299   3.441   1.335  16.850  0.2534 -0.0383  0.5410
 2603TIP3    H129300   3.431   1.266  16.784  0.0726  1.8455 -1.5115
 2603TIP3    H229301   3.387   1.305  16.923 -1.0438 -1.3791 -0.8782
 2604TIP3   OH229302   5.628   0.296   2.950 -0.1723  1.0560  0.3971
 2604TIP3    H129303   5.561   0.327   2.888  0.8070  2.1337 -0.1477
 2604TIP3    H229304   5.639   0.368   3.012  1.5473  1.5446 -0.4094
 2605TIP3   OH229305   2.894   6.806   0.021 -0.0176 -0.0420 -0.2703
 2605TIP3    H129306   2.975   6.758   0.037  0.1238 -0.6027 -2.3274
 2605TIP3    H229307   2.922   6.889  -0.016 -0.3653  0.0200 -0.3982
 2606TIP3   OH229308   0.025   1.159   3.475 -1.2938 -0.1413 -0.4012
 2606TIP3    H129309   0.052   1.220   3.406  1.5219 -1.0426 -0.2347
 2606TIP3    H229310   0.100   1.155   3.534 -1.7859 -2.9257  0.1847
 2607TIP3   OH229311   1.424   5.223  16.035 -0.6453  0.0691 -0.4045
 2607TIP3    H129312   1.475   5.144  16.019 -0.2605 -0.0214  1.1167
 2607TIP3    H229313   1.355   5.195  16.096  0.8821  1.3443  2.0378
 2608TIP3   OH229314   0.147   3.866  16.831  0.1689  0.9626  0.7738
 2608TIP3    H129315   0.077   3.808  16.802  1.2092  0.1061 -0.0985
 2608TIP3    H229316   0.101   3.943  16.864 -1.1978  0.2082  0.7223
 2609TIP3   OH229317   3.698   5.408  12.389  0.5457  0.5777 -0.3261
 2609TIP3    H129318   3.614   5.391  12.432  0.2241  1.3068 -0.6326
 2609TIP3    H229319   3.758   5.344  12.426  0.2866  1.2131  1.2453
 2610TIP3   OH229320   0.340   2.529  12.246 -0.1408 -0.4120  0.5453
 2610TIP3    H129321   0.390   2.586  12.187 -0.9682  1.5282  1.6100
 2610TIP3    H229322   0.404   2.504  12.313  0.6127 -2.0257 -0.7269
 2611TIP3   OH229323   1.230   3.720   3.581  0.1446  0.1292 -0.1371
 2611TIP3    H129324   1.252   3.666   3.505 -1.0820  1.5561 -1.5955
 2611TIP3    H229325   1.286   3.797   3.573 -0.2552  0.4610  0.1674
 2612TIP3   OH229326   3.432   2.700  14.121  0.5405  0.3156  0.2396
 2612TIP3    H129327   3.381   2.736  14.048 -0.0244  1.7014  1.2683
 2612TIP3    H229328   3.379   2.629  14.156 -0.1517  0.9814  0.5595
 2613TIP3   OH229329   6.354   2.714   1.814  0.8515  0.3890  0.3919
 2613TIP3    H129330   6.414   2.760   1.873  1.0314 -0.8974  1.2543
 2613TIP3    H229331   6.287   2.779   1.793  0.7465  0.8825  2.0645
 2614TIP3   OH229332   3.162   4.534  12.657 -0.5863  0.0716  0.3970
 2614TIP3    H129333   3.154   4.586  12.577  0.4579 -1.2020 -0.5675
 2614TIP3    H229334   3.131   4.447  12.632  1.9192 -0.9716  0.6750
 2615TIP3   OH229335   5.194   3.366   0.589  0.3240  0.4088 -0.2185
 2615TIP3    H129336   5.187   3.327   0.677  1.1486  1.2920  0.2543
 2615TIP3    H229337   5.111   3.343   0.547 -0.4018  0.5941  1.0545
 2616TIP3   OH229338   5.517   5.507   3.429 -0.1065  0.1191  0.3469
 2616TIP3    H129339   5.490   5.590   3.389  0.0908  1.2808  2.4296
 2616TIP3    H229340   5.611   5.503   3.416 -0.2876 -0.4471 -0.8768
 2617TIP3   OH229341   6.231   0.448  14.204  0.0079  0.3369 -0.4375
 2617TIP3    H129342   6.314   0.496  14.210 -0.3185  0.8564  0.1026
 2617TIP3    H229343   6.164   0.515  14.221 -0.6005  0.1902 -2.0883
 2618TIP3   OH229344   1.778   0.906   0.288 -0.0660 -0.0870 -0.4493
 2618TIP3    H129345   1.786   0.897   0.193  1.3876  1.6244 -0.5515
 2618TIP3    H229346   1.716   0.978   0.300  0.2347  0.1213 -0.1242
 2619TIP3   OH229347   1.481   5.665  15.551 -0.6733 -0.1033 -0.4660
 2619TIP3    H129348   1.568   5.655  15.511 -0.9201  1.1358 -1.3606
 2619TIP3    H229349   1.488   5.619  15.635  0.9360  0.2082 -0.3905
 2620TIP3   OH229350   3.557   2.654  12.953 -0.2819 -0.1878 -0.3846
 2620TIP3    H129351   3.543   2.655  13.047  0.8287 -0.7121 -0.2029
 2620TIP3    H229352   3.486   2.599  12.919 -1.9411  1.6648 -0.1170
 2621TIP3   OH229353   6.328   4.332  13.927 -0.3915 -0.6434  0.0306
 2621TIP3    H129354   6.325   4.250  13.877  0.0526 -0.9910  0.5679
 2621TIP3    H229355   6.274   4.392  13.876 -0.9209 -1.3356 -0.2449
 2622TIP3   OH229356   2.323   4.792  12.472 -0.0324 -0.6736 -0.8016
 2622TIP3    H129357   2.391   4.783  12.540 -0.2675  1.5225 -0.2070
 2622TIP3    H229358   2.346   4.873  12.427 -0.9829 -1.1185 -2.1283
 2623TIP3   OH229359   2.288   1.861   1.198 -0.6413  0.1214  0.3324
 2623TIP3    H129360   2.278   1.824   1.286  2.2062 -0.1486  0.6302
 2623TIP3    H229361   2.295   1.784   1.140  0.5052  0.2170  0.3166
 2624TIP3   OH229362   5.968   5.439  12.966  0.2515  0.2536  0.6630
 2624TIP3    H129363   5.992   5.361  12.916  2.6659  0.8498  0.7285
 2624TIP3    H229364   5.902   5.483  12.913 -0.3453 -1.2637  0.1050
 2625TIP3   OH229365   3.827   3.665   1.430  0.5595 -0.6587  0.1276
 2625TIP3    H129366   3.853   3.706   1.348  3.0650 -2.2441  0.0192
 2625TIP3    H229367   3.733   3.653   1.422  0.3801  1.2849 -1.5101
 2626TIP3   OH229368   2.115   1.697   4.091  0.0236  0.2792 -0.2641
 2626TIP3    H129369   2.168   1.661   4.162  1.9646 -0.8098 -2.1299
 2626TIP3    H229370   2.053   1.626   4.069  0.9758 -0.3195 -1.1193
 2627TIP3   OH229371   4.277   5.817  10.802  0.6300 -0.2418  0.2447
 2627TIP3    H129372   4.327   5.875  10.860  1.6883 -0.7807 -0.1165
 2627TIP3    H229373   4.341   5.755  10.769 -0.3349 -1.1166 -0.0263
 2628TIP3   OH229374   3.922   3.289  13.278 -0.3201 -0.3574 -0.4029
 2628TIP3    H129375   3.943   3.361  13.337  1.9865 -0.5359 -0.9171
 2628TIP3    H229376   3.832   3.306  13.250  0.1086  2.2660 -0.4348
 2629TIP3   OH229377   6.238   3.637  16.381 -0.6793 -0.0202  0.4234
 2629TIP3    H129378   6.296   3.562  16.366 -0.5304  0.5354 -2.1423
 2629TIP3    H229379   6.161   3.598  16.424 -1.2718 -2.0143 -2.1786
 2630TIP3   OH229380   4.530   1.220  12.002 -0.0368 -0.3723  0.0579
 2630TIP3    H129381   4.551   1.133  12.037 -0.0688 -0.8775 -1.1125
 2630TIP3    H229382   4.548   1.280  12.074  2.2278 -1.1102  0.1886
 2631TIP3   OH229383   5.593   0.692  10.841 -0.2177 -0.1599  0.4088
 2631TIP3    H129384   5.640   0.632  10.784 -1.5967 -0.4211 -0.5231
 2631TIP3    H229385   5.556   0.758  10.781 -2.9980 -1.3013  0.7199
 2632TIP3   OH229386   6.240   6.328   3.398 -0.0527  0.2674 -0.4190
 2632TIP3    H129387   6.253   6.381   3.477 -3.1607 -0.8404  0.9858
 2632TIP3    H229388   6.202   6.389   3.335 -0.4980  0.4807  0.0435
 2633TIP3   OH229389   2.804   1.221   4.664  0.5559  0.0879 -0.1107
 2633TIP3    H129390   2.801   1.185   4.752 -0.4382  1.7533  0.5813
 2633TIP3    H229391   2.885   1.186   4.627 -0.0880 -2.3822  0.6388
 2634TIP3   OH229392   6.293   3.262  16.043  0.0434  0.6267 -0.0617
 2634TIP3    H129393   6.344   3.181  16.046  0.1183  0.6422 -0.6311
 2634TIP3    H229394   6.238   3.252  15.965 -1.7688  0.0661  1.2295
 2635TIP3   OH229395   2.949   3.341  14.752 -0.2941  0.1785  0.3807
 2635TIP3    H129396   2.945   3.333  14.848  1.0127  1.7049  0.6140
 2635TIP3    H229397   2.924   3.432  14.735  1.9105  0.7005 -0.4652
 2636TIP3   OH229398   1.791   2.650  11.063  0.3117 -0.3073  0.6863
 2636TIP3    H129399   1.725   2.635  10.995 -0.8822 -2.2435  2.1275
 2636TIP3    H229400   1.874   2.624  11.023 -0.0420  0.5044 -0.6243
 2637TIP3   OH229401   1.600   6.736  15.602 -0.0432 -0.2401 -0.4428
 2637TIP3    H129402   1.511   6.756  15.633 -0.2465 -0.0771 -1.1059
 2637TIP3    H229403   1.591   6.652  15.558  0.1053 -0.1638 -0.6170
 2638TIP3   OH229404   3.776   1.076  15.892 -0.2268 -0.0205 -0.6074
 2638TIP3    H129405   3.864   1.039  15.898  0.1282  0.6464 -1.5226
 2638TIP3    H229406   3.784   1.163  15.930 -0.4840  0.0642 -0.7452
 2639TIP3   OH229407   0.136   5.825   1.420  0.2487 -0.1681 -0.2753
 2639TIP3    H129408   0.084   5.863   1.491 -0.1532  1.8827 -1.5818
 2639TIP3    H229409   0.072   5.782   1.363  0.5135 -1.3670  0.3012
 2640TIP3   OH229410   1.861   3.906  16.830  0.6176 -0.2324  0.4761
 2640TIP3    H129411   1.840   3.942  16.744  1.3161 -1.9377 -0.4645
 2640TIP3    H229412   1.836   3.974  16.891 -3.2524 -0.2739 -0.7882
 2641TIP3   OH229413   5.804   0.645  13.563 -0.8074 -0.1750  0.2452
 2641TIP3    H129414   5.758   0.569  13.528  2.3251 -2.4122  0.6529
 2641TIP3    H229415   5.834   0.693  13.485 -0.3358 -0.9546 -0.0586
 2642TIP3   OH229416   6.306   2.547   3.986  0.3610 -0.0676 -0.0706
 2642TIP3    H129417   6.324   2.503   3.903  0.4833  0.2082 -0.1871
 2642TIP3    H229418   6.210   2.548   3.992  0.2407  2.1019 -1.3834
 2643TIP3   OH229419   2.644   0.521   2.878  0.4118  0.1955  0.3271
 2643TIP3    H129420   2.715   0.463   2.851  0.6587  1.6659 -2.5632
 2643TIP3    H229421   2.682   0.608   2.876 -1.2030  0.9209 -0.3301
 2644TIP3   OH229422   4.877   2.134   5.403 -0.1874  0.2288  0.4208
 2644TIP3    H129423   4.953   2.098   5.359  0.1528  0.8664  0.4814
 2644TIP3    H229424   4.906   2.147   5.494 -1.5214 -3.1911  1.5130
 2645TIP3   OH229425   5.952   3.705  15.306  0.8849 -0.5610  0.2338
 2645TIP3    H129426   5.888   3.757  15.258  0.3619 -2.0292 -0.7265
 2645TIP3    H229427   6.033   3.756  15.301  0.4452  0.0540 -0.8539
 2646TIP3   OH229428   0.591   2.901   4.242  0.0184 -0.2371 -0.0741
 2646TIP3    H129429   0.499   2.929   4.243  0.1755  0.3126  1.3855
 2646TIP3    H229430   0.641   2.981   4.255  0.7863 -0.3826 -1.8854
 2647TIP3   OH229431   0.741   0.553  15.555  0.2118  0.1639 -0.5960
 2647TIP3    H129432   0.801   0.499  15.607  0.1615  0.5322 -0.1426
 2647TIP3    H229433   0.742   0.638  15.600  0.7405  0.7126 -1.6284
 2648TIP3   OH229434   2.103   6.357  13.722 -0.3097  0.4475 -0.9204
 2648TIP3    H129435   2.144   6.280  13.682  0.5139  0.3063  0.1555
 2648TIP3    H229436   2.172   6.423  13.723 -0.0857  0.2237  0.8795
 2649TIP3   OH229437   3.785   5.029   1.796  0.4034 -0.3173 -0.2906
 2649TIP3    H129438   3.841   5.035   1.874 -0.1771 -0.2697  0.1383
 2649TIP3    H229439   3.743   4.943   1.804 -0.6578  0.2227  0.1594
 2650TIP3   OH229440   1.270   5.352   0.887  0.3750  0.0042  0.5925
 2650TIP3    H129441   1.226   5.346   0.972 -0.1833 -0.4123  0.2791
 2650TIP3    H229442   1.232   5.282   0.835  0.9930  0.0107  0.1179
 2651TIP3   OH229443   5.891   1.177   2.616 -0.2457 -0.9281 -0.0000
 2651TIP3    H129444   5.890   1.203   2.524 -0.5316 -1.5312 -0.1696
 2651TIP3    H229445   5.947   1.100   2.619  0.7235 -0.2286  0.5284
 2652TIP3   OH229446   4.179   1.773   3.329 -0.0348  0.4818 -0.3957
 2652TIP3    H129447   4.215   1.748   3.244  0.0316  2.0071 -0.8399
 2652TIP3    H229448   4.154   1.865   3.318 -1.2718  0.3183  0.8246
 2653TIP3   OH229449   3.575   2.435   2.918  0.1287 -0.2542 -0.5355
 2653TIP3    H129450   3.547   2.522   2.890 -0.0334 -0.7477 -2.0347
 2653TIP3    H229451   3.541   2.426   3.007  0.3140  1.2695 -0.2865
 2654TIP3   OH229452   3.253   6.269   0.274 -0.5224 -0.6263  0.4259
 2654TIP3    H129453   3.289   6.357   0.267  0.5513 -1.0801 -0.0195
 2654TIP3    H229454   3.327   6.211   0.255 -1.4708 -1.6049 -0.4662
 2655TIP3   OH229455   1.168   4.061  11.196 -0.5501 -0.2157  0.2648
 2655TIP3    H129456   1.100   4.022  11.141 -2.1200 -0.0443  1.9776
 2655TIP3    H229457   1.165   4.010  11.277  2.2315 -0.9770  0.0101
 2656TIP3   OH229458   5.947   4.830   1.771 -1.0020 -0.3642  0.4350
 2656TIP3    H129459   5.890   4.903   1.799 -1.1226 -0.4599  0.4399
 2656TIP3    H229460   5.892   4.752   1.782 -1.2393 -0.3509 -0.5865
 2657TIP3   OH229461   1.395   4.459   0.945 -0.3441  0.2635 -0.4673
 2657TIP3    H129462   1.475   4.440   0.994 -0.2515  1.1778 -0.2457
 2657TIP3    H229463   1.424   4.466   0.854 -0.5437 -1.6093 -0.6998
 2658TIP3   OH229464   2.487   4.817  16.348  0.5428  0.3243 -0.2949
 2658TIP3    H129465   2.431   4.783  16.418  1.5011 -1.0639 -0.1556
 2658TIP3    H229466   2.564   4.849  16.393  0.5769  0.6830 -0.6130
 2659TIP3   OH229467   3.985   5.849   6.533 -0.2774 -0.8386  0.7353
 2659TIP3    H129468   3.922   5.821   6.599 -0.8791 -0.4806  0.3172
 2659TIP3    H229469   3.934   5.901   6.471  0.5149 -0.1379  0.6515
 2660TIP3   OH229470   0.613   2.883   0.343  0.3581  0.3856  0.1849
 2660TIP3    H129471   0.560   2.900   0.421 -1.3730 -0.6354 -0.7106
 2660TIP3    H229472   0.586   2.950   0.281 -0.8106 -0.7876 -0.6602
 2661TIP3   OH229473   1.787   3.644  12.145  0.3923 -0.1195 -0.5744
 2661TIP3    H129474   1.872   3.627  12.105  0.1341 -4.8588  0.3663
 2661TIP3    H229475   1.725   3.590  12.097 -1.5197  0.6385  0.8539
 2662TIP3   OH229476   5.022   6.693  11.434 -0.0186 -0.4123  0.1043
 2662TIP3    H129477   5.110   6.675  11.468  0.0823 -0.5062 -0.2069
 2662TIP3    H229478   4.965   6.685  11.511  0.1846 -0.8236  0.2148
 2663TIP3   OH229479   1.282   4.812  11.630 -0.1421 -0.4758 -0.4859
 2663TIP3    H129480   1.298   4.776  11.717 -0.3039  0.0597 -0.2348
 2663TIP3    H229481   1.232   4.892  11.645  0.5115  0.0419 -1.0202
 2664TIP3   OH229482   3.773   2.826   1.158  0.1704 -0.5999 -0.1634
 2664TIP3    H129483   3.799   2.772   1.083 -1.5649  0.9320 -1.9840
 2664TIP3    H229484   3.685   2.796   1.179 -0.0544  0.2123  0.0808
 2665TIP3   OH229485   2.380   6.439   0.136  0.4094 -0.3502 -0.1394
 2665TIP3    H129486   2.364   6.345   0.132  0.9685 -0.4216 -0.8358
 2665TIP3    H229487   2.305   6.478   0.092  1.4313 -0.6186 -2.2362
 2666TIP3   OH229488   4.158   5.941   2.253 -0.0532 -0.6114  0.2918
 2666TIP3    H129489   4.230   5.900   2.204  1.4865  0.2394  1.7091
 2666TIP3    H229490   4.183   5.929   2.345 -1.3460  0.3925  0.7949
 2667TIP3   OH229491   2.822   0.606   2.180  0.5919  0.4309  0.5947
 2667TIP3    H129492   2.857   0.642   2.098 -0.8077  0.0825 -0.1811
 2667TIP3    H229493   2.801   0.683   2.233  0.9696  0.6698  0.3994
 2668TIP3   OH229494   4.319   0.280  11.699  0.3369  1.3027 -0.6076
 2668TIP3    H129495   4.261   0.236  11.638  0.0761  1.4534 -0.4741
 2668TIP3    H229496   4.332   0.367  11.662  1.6871  0.7811 -1.4049
 2669TIP3   OH229497   1.618   1.507   2.691 -0.5816  0.5571 -0.0379
 2669TIP3    H129498   1.539   1.559   2.706 -0.6489  0.1715  1.0900
 2669TIP3    H229499   1.625   1.452   2.769  0.4928  0.1807 -0.3795
 2670TIP3   OH229500   0.370   5.408  15.642 -0.5778 -0.1934  0.4530
 2670TIP3    H129501   0.460   5.404  15.673 -0.1784 -0.0932 -0.6342
 2670TIP3    H229502   0.317   5.416  15.721  0.3430 -0.6150  1.1234
 2671TIP3   OH229503   0.489   6.402   4.268 -0.5582 -0.6737 -0.0996
 2671TIP3    H129504   0.425   6.352   4.318 -1.8513 -0.3176 -1.3274
 2671TIP3    H229505   0.511   6.345   4.194 -0.3636 -0.2987 -0.3303
 2672TIP3   OH229506   4.600   0.609  14.149  0.4080 -0.4259 -0.2425
 2672TIP3    H129507   4.598   0.589  14.243 -1.3517  0.5504 -0.0207
 2672TIP3    H229508   4.665   0.678  14.140  0.2089 -0.1545  0.3488
 2673TIP3   OH229509   1.243   5.332  13.068 -0.0454  0.5421  0.2279
 2673TIP3    H129510   1.307   5.379  13.122 -0.3302  0.0883  0.9823
 2673TIP3    H229511   1.204   5.269  13.128  0.2271 -0.5599 -0.7282
 2674TIP3   OH229512   3.209   1.948   3.457  0.0544  0.1746  0.2886
 2674TIP3    H129513   3.263   1.884   3.504  1.6918  1.4769  0.2829
 2674TIP3    H229514   3.120   1.914   3.464  0.5503 -0.8776  2.3118
 2675TIP3   OH229515   1.591   3.480   5.550 -0.5756  0.0108 -0.2730
 2675TIP3    H129516   1.621   3.485   5.641 -0.4271 -0.0650 -0.3191
 2675TIP3    H229517   1.645   3.412   5.510 -1.2928 -0.6407 -0.1621
 2676TIP3   OH229518   6.111   4.601  15.194  0.0803  0.3055 -0.2472
 2676TIP3    H129519   6.181   4.617  15.132  0.6235 -0.5514  0.1301
 2676TIP3    H229520   6.046   4.549  15.146  1.1261 -1.5459  0.2496
 2677TIP3   OH229521   1.360   2.942  12.381 -0.0028 -0.6483 -0.0103
 2677TIP3    H129522   1.275   2.899  12.393 -1.1833  2.0401  2.5375
 2677TIP3    H229523   1.382   2.974  12.468  1.8504  1.8879 -1.3062
 2678TIP3   OH229524   6.578   1.668  12.294  0.0179  0.5079 -0.3390
 2678TIP3    H129525   6.666   1.649  12.327  0.3827 -0.6337 -1.8491
 2678TIP3    H229526   6.520   1.613  12.347  0.7945 -2.9757 -2.7135
 2679TIP3   OH229527   3.445   0.494   3.497 -0.3643 -0.5125 -0.5862
 2679TIP3    H129528   3.423   0.433   3.567 -1.3215 -0.1926 -0.5952
 2679TIP3    H229529   3.503   0.444   3.438 -0.1466 -1.0101  0.0418
 2680TIP3   OH229530   1.791   6.682   4.333 -0.1631  0.2014 -0.3058
 2680TIP3    H129531   1.878   6.720   4.324  0.1253 -0.4876 -0.4549
 2680TIP3    H229532   1.791   6.642   4.420 -0.3004  0.1149 -0.3455
 2681TIP3   OH229533   3.284   3.155   1.171 -0.1286  0.0587  0.2077
 2681TIP3    H129534   3.323   3.080   1.125 -1.3456 -0.7533  0.4522
 2681TIP3    H229535   3.279   3.127   1.263  0.5704  0.9459  0.5334
 2682TIP3   OH229536   3.628   3.417   6.447  0.0460  0.5770  0.0869
 2682TIP3    H129537   3.621   3.322   6.452 -2.0571  0.6913  0.0656
 2682TIP3    H229538   3.677   3.434   6.366  0.2853 -0.4710  0.0069
 2683TIP3   OH229539   1.377   3.440  15.354  0.8583 -0.1178  0.0424
 2683TIP3    H129540   1.465   3.412  15.333  1.3252 -0.2009  1.9147
 2683TIP3    H229541   1.374   3.440  15.450 -0.6450  1.4930  0.0491
 2684TIP3   OH229542   3.232   3.593   5.387 -0.4584  0.3167  0.0611
 2684TIP3    H129543   3.240   3.498   5.376 -0.4113  0.2127  0.9222
 2684TIP3    H229544   3.316   3.628   5.357  1.0937 -0.2530  3.2940
 2685TIP3   OH229545   6.255   5.969   3.947  0.0283  0.3946 -0.9987
 2685TIP3    H129546   6.219   5.945   3.862  0.5493 -2.1044 -0.5958
 2685TIP3    H229547   6.336   5.918   3.955 -1.7874 -2.4413  2.3905
 2686TIP3   OH229548   1.745   5.747  16.068 -0.1886 -0.1545  0.5293
 2686TIP3    H129549   1.749   5.675  16.005  0.5057 -1.0497  1.5597
 2686TIP3    H229550   1.723   5.823  16.015 -0.8334 -1.0914 -0.6097
 2687TIP3   OH229551   1.494   1.035   5.008  0.0504 -0.0684  0.2448
 2687TIP3    H129552   1.558   1.004   4.944 -1.0816 -2.1837  0.0412
 2687TIP3    H229553   1.508   0.980   5.085 -1.1783 -0.2422  0.3631
 2688TIP3   OH229554   5.574   5.872  14.953 -0.2831  0.9972  0.4663
 2688TIP3    H129555   5.503   5.848  15.012 -0.1198  1.0898  0.7028
 2688TIP3    H229556   5.646   5.813  14.976  0.0510  1.5664  0.9077
 2689TIP3   OH229557   2.899   4.459   3.620 -0.5435  0.1114  0.1386
 2689TIP3    H129558   2.975   4.413   3.656  0.3423  0.2776 -1.4088
 2689TIP3    H229559   2.842   4.389   3.587 -0.0334  0.0388 -0.6168
 2690TIP3   OH229560   5.135   2.846   1.096 -0.1765 -0.1661 -0.1805
 2690TIP3    H129561   5.077   2.921   1.107 -0.7971 -0.9528  2.8374
 2690TIP3    H229562   5.175   2.833   1.182  2.5443 -1.2600 -1.4881
 2691TIP3   OH229563   0.151   1.025  14.665 -0.3598 -0.1219  0.3257
 2691TIP3    H129564   0.128   0.935  14.640  0.8280  0.0262 -1.4379
 2691TIP3    H229565   0.218   1.014  14.732  0.3800 -0.5931 -0.4608
 2692TIP3   OH229566   0.478   5.614  13.943  0.0830  0.3510  0.5541
 2692TIP3    H129567   0.435   5.614  14.028 -0.4513  3.1524  0.3648
 2692TIP3    H229568   0.524   5.698  13.939 -0.4062  0.5763 -2.1637
 2693TIP3   OH229569   2.065   3.577   4.372  0.0494 -0.0642 -0.0369
 2693TIP3    H129570   1.982   3.615   4.401  0.4880  1.2355 -0.4416
 2693TIP3    H229571   2.103   3.540   4.452 -0.0471  1.0177  0.5282
 2694TIP3   OH229572   3.726   6.216   1.201 -0.3041  0.1771  0.1937
 2694TIP3    H129573   3.792   6.247   1.139 -0.4209 -0.0265 -0.0369
 2694TIP3    H229574   3.773   6.208   1.284  0.6402 -2.3528 -0.4825
 2695TIP3   OH229575   6.683   6.286  10.909  0.4642  0.3307  0.7206
 2695TIP3    H129576   6.614   6.221  10.897  0.7731 -0.2627  2.0587
 2695TIP3    H229577   6.759   6.250  10.863 -0.3370  1.4591 -1.6492
 2696TIP3   OH229578   0.524   5.128  15.645  0.6118  0.2543 -0.1767
 2696TIP3    H129579   0.618   5.143  15.631  0.7416  0.2852  0.6800
 2696TIP3    H229580   0.482   5.167  15.568  1.3999 -1.5195 -1.5847
 2697TIP3   OH229581   6.665   2.634  10.337  0.9132 -0.1177 -0.0399
 2697TIP3    H129582   6.733   2.697  10.313 -1.1053  2.7410  1.1186
 2697TIP3    H229583   6.694   2.598  10.420  0.4757  2.1408  1.1755
 2698TIP3   OH229584   2.263   1.444   5.844  0.0968 -0.4042  0.2705
 2698TIP3    H129585   2.334   1.500   5.877 -0.6424 -0.3119  1.7955
 2698TIP3    H229586   2.251   1.472   5.753  1.8197 -0.2427  0.0633
 2699TIP3   OH229587   0.567   2.091   4.023 -0.2627  0.3739  0.2771
 2699TIP3    H129588   0.628   2.122   3.956  0.2011 -0.2083  0.4248
 2699TIP3    H229589   0.548   2.169   4.076 -1.0255  0.9505 -0.8191
 2700TIP3   OH229590   2.762   6.809   1.829 -0.0354 -0.7171  0.1005
 2700TIP3    H129591   2.800   6.827   1.915 -1.5904 -3.4357  1.4914
 2700TIP3    H229592   2.834   6.768   1.780 -0.0242 -2.3356  1.3762
 2701TIP3   OH229593   4.939   2.849  12.176  0.2844 -0.5145 -0.1783
 2701TIP3    H129594   5.018   2.859  12.123  1.3067 -2.1664  0.9546
 2701TIP3    H229595   4.934   2.929  12.228  1.1425 -0.3373 -0.3506
 2702TIP3   OH229596   0.161   6.475  13.021 -0.4343  0.9259 -0.2063
 2702TIP3    H129597   0.081   6.479  12.969 -0.2696  1.5636 -0.4227
 2702TIP3    H229598   0.230   6.501  12.960  0.0923 -0.5551 -0.3046
 2703TIP3   OH229599   4.975   2.135   0.926 -0.2463 -0.1702  0.1447
 2703TIP3    H129600   4.914   2.098   0.862 -0.3959 -1.2316  0.8869
 2703TIP3    H229601   4.919   2.164   0.998 -0.1154  1.3678 -0.3238
 2704TIP3   OH229602   3.554   2.547   3.656  0.0154 -0.0950  0.2269
 2704TIP3    H129603   3.604   2.601   3.718 -0.4430 -0.0888  0.5964
 2704TIP3    H229604   3.621   2.499   3.607  0.4804  1.3070 -0.5853
 2705TIP3   OH229605   5.012   0.899   1.191 -0.2899 -0.4427  0.6201
 2705TIP3    H129606   5.029   0.823   1.136 -1.0165  0.1572 -0.4550
 2705TIP3    H229607   4.917   0.910   1.190 -0.2750 -0.0958  1.5560
 2706TIP3   OH229608   1.988   2.061  14.401 -0.3367 -0.4210 -0.6074
 2706TIP3    H129609   2.002   2.148  14.439  0.7994 -0.6843 -0.3842
 2706TIP3    H229610   1.955   2.079  14.313 -3.0637  0.1945  0.4226
 2707TIP3   OH229611   1.160   1.531   3.205 -0.0997  0.1881  0.4421
 2707TIP3    H129612   1.068   1.555   3.217 -0.1682 -0.5683  1.5692
 2707TIP3    H229613   1.182   1.562   3.117 -1.1993  1.0920  0.4639
 2708TIP3   OH229614   0.768   1.597   0.388  0.3040  0.8000  0.3463
 2708TIP3    H129615   0.851   1.603   0.436 -0.2845 -1.0694  1.7411
 2708TIP3    H229616   0.706   1.645   0.442 -0.0603 -0.0879  0.7376
 2709TIP3   OH229617   2.275   3.878   1.900  0.3578 -0.0773  0.3905
 2709TIP3    H129618   2.290   3.798   1.850  1.1436 -0.4761  1.2219
 2709TIP3    H229619   2.266   3.946   1.833  0.0600 -0.7944 -0.3213
 2710TIP3   OH229620   2.980   6.662  14.428  0.3293  0.0104 -0.2163
 2710TIP3    H129621   2.930   6.584  14.451  1.9507 -0.8624  0.5521
 2710TIP3    H229622   3.008   6.647  14.338  0.2843 -0.0979 -0.2124
 2711TIP3   OH229623   2.351   2.307   3.867 -0.7019  0.0934 -0.0807
 2711TIP3    H129624   2.256   2.303   3.868 -0.7051  0.2204  0.2384
 2711TIP3    H229625   2.371   2.399   3.886 -0.5093 -0.0201  0.2668
 2712TIP3   OH229626   5.718   1.859  14.649  0.6437  0.3219  0.4228
 2712TIP3    H129627   5.738   1.903  14.731 -0.5235  0.2024  0.7958
 2712TIP3    H229628   5.703   1.930  14.586 -1.2465  0.5006  1.0232
 2713TIP3   OH229629   3.690   3.628  15.983  0.5516  0.1937 -0.3847
 2713TIP3    H129630   3.754   3.676  15.931  0.8733 -2.1010 -2.2971
 2713TIP3    H229631   3.663   3.556  15.926 -1.5409 -0.5955  1.4828
 2714TIP3   OH229632   0.371   2.009  14.160 -0.0506  0.6317  0.2041
 2714TIP3    H129633   0.349   1.989  14.069  0.8624 -3.8565  0.7524
 2714TIP3    H229634   0.460   2.042  14.156  0.9555 -1.9352 -0.4860
 2715TIP3   OH229635   1.243   3.488   4.012 -0.1163 -0.1581 -0.2054
 2715TIP3    H129636   1.324   3.464   3.968  0.3260  0.1729  0.4151
 2715TIP3    H229637   1.222   3.411   4.066 -0.9350 -0.7715 -1.3513
 2716TIP3   OH229638   5.295   4.301   3.588 -0.1378  0.2412 -0.3047
 2716TIP3    H129639   5.334   4.225   3.630 -2.0404 -0.5461  0.1583
 2716TIP3    H229640   5.305   4.371   3.652  1.0227  0.2261 -0.4517
 2717TIP3   OH229641   2.189   5.190  13.645  0.2404  0.5568 -0.0960
 2717TIP3    H129642   2.189   5.162  13.737  1.0986  0.7104 -0.0401
 2717TIP3    H229643   2.151   5.278  13.647 -2.2037 -0.4345 -0.2391
 2718TIP3   OH229644   6.787   1.482   1.463  0.6401 -0.2428 -0.2278
 2718TIP3    H129645   6.832   1.406   1.427 -0.3370 -0.8203 -0.2881
 2718TIP3    H229646   6.767   1.536   1.387 -0.8005 -1.1233 -0.5243
 2719TIP3   OH229647   3.920   6.000   3.247 -0.1457  0.9757 -0.2307
 2719TIP3    H129648   3.940   6.086   3.283 -0.2012  0.1307  1.9995
 2719TIP3    H229649   3.843   6.014   3.192 -0.6045  2.2384  0.6844
 2720TIP3   OH229650   3.332   4.402  12.829 -0.1212  0.0964 -0.1773
 2720TIP3    H129651   3.373   4.464  12.890 -0.9116 -0.3097  0.7897
 2720TIP3    H229652   3.286   4.458  12.766 -0.2628  0.5158  0.2907
 2721TIP3   OH229653   3.719   6.824  11.990  0.4875  0.1674 -0.1041
 2721TIP3    H129654   3.800   6.869  11.964  0.9604  1.0189  2.5469
 2721TIP3    H229655   3.729   6.735  11.957  1.8110  0.6635 -1.1428
 2722TIP3   OH229656   2.789   5.645  14.040 -0.1724  0.2920 -0.1217
 2722TIP3    H129657   2.793   5.557  14.078 -0.6753 -0.0934 -0.9268
 2722TIP3    H229658   2.697   5.656  14.016 -0.3881  1.5791  1.1747
 2723TIP3   OH229659   1.410   4.416   2.756 -0.3255 -0.0129  0.2559
 2723TIP3    H129660   1.345   4.449   2.695  1.1904  0.9950 -0.8902
 2723TIP3    H229661   1.428   4.327   2.726  1.0819  0.7759 -1.4334
 2724TIP3   OH229662   5.072   2.662   2.542 -0.7178  0.0225 -0.0036
 2724TIP3    H129663   5.023   2.713   2.478 -0.4453 -0.4200 -0.5805
 2724TIP3    H229664   5.105   2.586   2.493 -0.8591 -0.5524  0.7599
 2725TIP3   OH229665   4.296   6.199  15.962 -0.2128 -0.2835  0.1171
 2725TIP3    H129666   4.235   6.220  15.891  1.9124 -1.2683 -2.1667
 2725TIP3    H229667   4.293   6.103  15.969 -0.1191 -0.2247  1.1386
 2726TIP3   OH229668   3.177   1.964  16.237 -0.6180 -0.5202  0.3755
 2726TIP3    H129669   3.174   2.055  16.207 -1.6802 -0.6949 -0.1205
 2726TIP3    H229670   3.097   1.954  16.289 -1.4461 -1.6383 -1.0430
 2727TIP3   OH229671   6.708   5.338  12.824 -0.5577  0.1262  0.0804
 2727TIP3    H129672   6.732   5.247  12.842 -2.8671 -0.3448  1.0659
 2727TIP3    H229673   6.620   5.334  12.788 -0.3459  1.9348 -0.7774
 2728TIP3   OH229674   3.938   0.339   5.556  0.2478 -0.5860  0.4341
 2728TIP3    H129675   3.922   0.399   5.483  0.9022 -0.4018  0.4325
 2728TIP3    H229676   3.898   0.382   5.632 -1.9208 -1.5490 -0.0764
 2729TIP3   OH229677   4.145   3.192   4.625 -0.5111  0.3477  0.7037
 2729TIP3    H129678   4.175   3.102   4.612 -4.1683 -0.8148 -1.0515
 2729TIP3    H229679   4.162   3.235   4.541 -2.4139  0.0185  0.1061
 2730TIP3   OH229680   2.969   3.765  15.463  0.3612  0.5218  0.2725
 2730TIP3    H129681   2.999   3.835  15.405  0.1291  0.3232 -0.0947
 2730TIP3    H229682   2.877   3.787  15.481 -0.7046 -1.2581 -2.3303
 2731TIP3   OH229683   2.046   4.336  11.519 -0.1188  0.2943  0.3559
 2731TIP3    H129684   2.100   4.392  11.575  3.0961 -1.0798 -1.1355
 2731TIP3    H229685   2.046   4.251  11.564 -2.1667  0.5393  0.9237
 2732TIP3   OH229686   5.299   3.222   3.674 -0.5237 -0.1774  0.0308
 2732TIP3    H129687   5.322   3.287   3.608 -0.9286 -0.5619 -0.4906
 2732TIP3    H229688   5.298   3.272   3.757  0.1594  0.2634 -0.2183
 2733TIP3   OH229689   5.580   6.186   1.704  0.4741 -0.3535  0.7073
 2733TIP3    H129690   5.540   6.248   1.765 -1.6813 -0.7728 -0.1672
 2733TIP3    H229691   5.586   6.234   1.622 -0.3846 -0.9969  0.2534
 2734TIP3   OH229692   1.154   3.161   1.060 -0.2244 -0.2601  0.4906
 2734TIP3    H129693   1.141   3.254   1.043  2.6720  0.6442  2.6381
 2734TIP3    H229694   1.178   3.124   0.975 -1.1050  0.9591 -0.3227
 2735TIP3   OH229695   6.857   1.552   4.173  0.4181  0.1718 -0.8595
 2735TIP3    H129696   6.895   1.585   4.092  1.7896  1.1937  0.1653
 2735TIP3    H229697   6.764   1.541   4.153  0.8095 -0.1101 -2.7081
 2736TIP3   OH229698   0.412   4.877  14.886  0.1278  0.0805 -0.0809
 2736TIP3    H129699   0.482   4.828  14.928 -1.5133 -1.6833  0.7763
 2736TIP3    H229700   0.352   4.898  14.958 -1.7858 -1.2900 -1.1626
 2737TIP3   OH229701   1.627   1.288   4.652  0.4460  0.9523  0.2898
 2737TIP3    H129702   1.712   1.271   4.611 -0.2285  0.5221 -0.9767
 2737TIP3    H229703   1.563   1.270   4.583 -0.7142  0.5774  1.4292
 2738TIP3   OH229704   0.909   2.113  16.537  0.1341 -0.5487  0.7536
 2738TIP3    H129705   0.860   2.059  16.475  0.3535 -0.0941  0.1813
 2738TIP3    H229706   0.862   2.102  16.620  0.2173 -1.6805  0.6767
 2739TIP3   OH229707   2.203   2.020   3.486 -0.1011  0.2509  0.4948
 2739TIP3    H129708   2.189   2.084   3.556 -2.2597 -0.3904  0.7057
 2739TIP3    H229709   2.132   2.036   3.425 -0.1129 -1.3122  0.0635
 2740TIP3   OH229710   0.104   0.636  12.856 -0.0965  0.3268 -0.0896
 2740TIP3    H129711   0.171   0.599  12.914 -0.2566  0.6101  0.2787
 2740TIP3    H229712   0.096   0.727  12.883 -1.2524  0.0857  0.4749
 2741TIP3   OH229713   6.329   4.699   5.669 -0.6019  0.1048  0.1688
 2741TIP3    H129714   6.268   4.762   5.707  2.8975  2.5703  2.2548
 2741TIP3    H229715   6.369   4.744   5.595 -0.1431 -0.8302 -0.1781
 2742TIP3   OH229716   6.565   1.031   5.025  0.0293 -0.2170  0.3216
 2742TIP3    H129717   6.494   1.025   4.961 -0.8178  1.2171  1.0750
 2742TIP3    H229718   6.521   1.035   5.110  1.0559 -0.2651  0.8794
 2743TIP3   OH229719   4.225   0.145   2.003  0.1800 -0.2123 -0.0751
 2743TIP3    H129720   4.279   0.173   1.928 -0.2547  0.1844 -0.2377
 2743TIP3    H229721   4.242   0.210   2.071 -0.4021  0.1338 -0.2625
 2744TIP3   OH229722   2.230   0.055  14.959 -0.5967 -0.4156 -0.0993
 2744TIP3    H129723   2.156  -0.005  14.946  0.4937 -1.7422 -0.4359
 2744TIP3    H229724   2.192   0.142  14.950 -2.1876 -1.0506  0.1326
 2745TIP3   OH229725   3.053   6.808  14.779 -0.1482  0.2730  0.0006
 2745TIP3    H129726   3.017   6.895  14.794  1.0982  0.5027  2.0639
 2745TIP3    H229727   3.118   6.820  14.709 -0.4235  0.8599 -0.1539
 2746TIP3   OH229728   5.179   6.752  17.067 -0.0473  0.3770  0.3205
 2746TIP3    H129729   5.271   6.746  17.042 -0.2508 -1.4217 -0.2033
 2746TIP3    H229730   5.154   6.843  17.049  1.9084  1.2363  1.6451
 2747TIP3   OH229731   4.207   0.998  10.544  0.0630  0.3953 -0.3097
 2747TIP3    H129732   4.235   1.069  10.487  1.2751  0.5250  0.4086
 2747TIP3    H229733   4.176   1.042  10.623 -1.9273  0.2375 -0.9583
 2748TIP3   OH229734   0.307   4.465  15.512  0.2812  0.1049 -0.2376
 2748TIP3    H129735   0.328   4.376  15.541  2.7337 -0.8459 -4.1584
 2748TIP3    H229736   0.238   4.453  15.446  0.3663  1.1566 -0.5298
 2749TIP3   OH229737   2.406   3.928   2.831 -0.2778 -0.3712  0.0607
 2749TIP3    H129738   2.391   3.863   2.763 -1.4179  1.0433 -1.0949
 2749TIP3    H229739   2.327   3.982   2.831  0.4872  0.8152  1.2253
 2750TIP3   OH229740   0.999   3.362   1.701  0.9165 -0.0466  0.3783
 2750TIP3    H129741   0.919   3.313   1.719 -0.0487  1.3472  0.0716
 2750TIP3    H229742   1.020   3.341   1.611 -0.6787  1.6189 -0.4535
 2751TIP3   OH229743   4.549   5.211   1.866  0.3232  0.1931  0.3252
 2751TIP3    H129744   4.520   5.154   1.937 -0.4827  0.0230 -0.1252
 2751TIP3    H229745   4.567   5.151   1.793  3.5471  0.0775  1.0590
 2752TIP3   OH229746   4.528   0.913  14.802  0.3741 -0.6501 -0.1102
 2752TIP3    H129747   4.526   0.976  14.730 -1.7210  2.8305  2.6546
 2752TIP3    H229748   4.621   0.895  14.816  1.0118  1.1313 -1.6676
 2753TIP3   OH229749   6.457   0.784  13.635  0.6944  0.3404 -0.3789
 2753TIP3    H129750   6.441   0.744  13.549  0.9214  1.2146 -0.8420
 2753TIP3    H229751   6.420   0.722  13.698  1.2197 -0.6837 -1.0590
 2754TIP3   OH229752   1.626   5.682   4.805  1.0299  0.4482  0.5394
 2754TIP3    H129753   1.631   5.642   4.892  0.1612 -0.2764  0.2663
 2754TIP3    H229754   1.535   5.671   4.779  1.5068 -0.2818 -0.8995
 2755TIP3   OH229755   1.688   0.924  13.268  0.2514  0.2387  0.2871
 2755TIP3    H129756   1.773   0.966  13.253  0.7030 -0.8739 -0.4927
 2755TIP3    H229757   1.628   0.996  13.287  0.4570  1.5694 -3.2562
 2756TIP3   OH229758   6.284   3.518   0.755  0.2235  0.2930  0.5209
 2756TIP3    H129759   6.211   3.495   0.697  1.7718 -1.2309 -0.9219
 2756TIP3    H229760   6.303   3.609   0.735 -2.0511  1.1565  1.8611
 2757TIP3   OH229761   3.893   1.714   4.789 -0.0712 -0.7979 -0.2719
 2757TIP3    H129762   3.847   1.631   4.772 -0.4106 -1.1722  2.1072
 2757TIP3    H229763   3.905   1.753   4.703 -1.5381 -2.4682 -1.2990
 2758TIP3   OH229764   2.026   5.932   0.622 -0.4214 -0.4339 -0.2452
 2758TIP3    H129765   1.982   6.000   0.570 -0.2606  0.4523  0.7398
 2758TIP3    H229766   2.112   5.924   0.582 -0.3309  0.1705 -0.1822
 2759TIP3   OH229767   5.209   1.800  16.778  0.3320 -0.8432  0.1393
 2759TIP3    H129768   5.206   1.841  16.692  1.7561  1.0850  0.9498
 2759TIP3    H229769   5.294   1.824  16.814 -0.3544 -1.3094  2.2303
 2760TIP3   OH229770   0.833   3.797  11.927 -0.0537 -0.3677  0.1122
 2760TIP3    H129771   0.766   3.770  11.864 -0.2400 -1.2040  0.6522
 2760TIP3    H229772   0.901   3.838  11.874 -0.8972  0.3109 -0.4669
 2761TIP3   OH229773   2.874   5.079  11.901  0.1977 -0.1934 -0.0815
 2761TIP3    H129774   2.946   5.115  11.849 -0.6574 -0.1630 -1.2900
 2761TIP3    H229775   2.803   5.142  11.892 -0.2532 -0.6171  0.4208
 2762TIP3   OH229776   0.887   6.255   5.107 -0.7541  0.7611  0.2404
 2762TIP3    H129777   0.839   6.225   5.030  0.4859  0.7059 -0.5357
 2762TIP3    H229778   0.915   6.174   5.151  0.6673  0.7304 -0.6378
 2763TIP3   OH229779   4.072   4.192  17.035  0.6621 -0.3957 -0.4897
 2763TIP3    H129780   4.161   4.191  17.070  0.3432  0.5100  0.3971
 2763TIP3    H229781   4.021   4.241  17.100 -0.0476  1.0244 -2.0592
 2764TIP3   OH229782   2.871   6.136  16.212 -0.1217 -0.3139 -0.0675
 2764TIP3    H129783   2.864   6.211  16.271 -0.5786 -0.6337  0.2943
 2764TIP3    H229784   2.896   6.173  16.128  0.7709  0.1303  0.3752
 2765TIP3   OH229785   0.952   2.919  13.641  0.2750 -0.6208  0.0108
 2765TIP3    H129786   0.950   2.935  13.736 -2.0252 -0.8751  0.0740
 2765TIP3    H229787   0.953   2.824  13.633 -1.9253 -0.6832 -0.1327
 2766TIP3   OH229788   4.838   6.164   0.928 -0.1090 -0.5043 -0.2081
 2766TIP3    H129789   4.915   6.198   0.880 -0.2566 -0.2556 -0.2719
 2766TIP3    H229790   4.869   6.154   1.018  0.4060 -1.7374 -0.5070
 2767TIP3   OH229791   5.221   5.734   3.513 -0.0337  0.4120  0.1626
 2767TIP3    H129792   5.226   5.778   3.598 -1.9130  1.9878 -0.4577
 2767TIP3    H229793   5.209   5.641   3.535  0.2634  0.6965  1.6016
 2768TIP3   OH229794   5.778   5.623  13.188 -0.3442  0.0122  0.4223
 2768TIP3    H129795   5.691   5.661  13.176 -0.5211 -0.2959  0.7102
 2768TIP3    H229796   5.775   5.542  13.137 -0.4874 -0.3848  1.0551
 2769TIP3   OH229797   2.121   6.446  12.719 -0.0387 -0.2228 -0.2355
 2769TIP3    H129798   2.049   6.476  12.775  1.6202  0.5095  1.6116
 2769TIP3    H229799   2.147   6.524  12.670  0.4366 -0.1099  0.1907
 2770TIP3   OH229800   4.009   1.982  10.481 -0.1352 -0.0209  0.3359
 2770TIP3    H129801   4.088   2.035  10.494 -1.2998  2.1488 -0.8073
 2770TIP3    H229802   4.017   1.948  10.392  0.3790 -1.4319  0.8990
 2771TIP3   OH229803   6.678   6.319   4.453 -0.0299 -0.2492  0.2602
 2771TIP3    H129804   6.648   6.358   4.536 -1.1206 -0.8785  0.1810
 2771TIP3    H229805   6.616   6.248   4.437  2.0220 -2.1686  0.4871
 2772TIP3   OH229806   0.892   0.455   0.149  0.4701  0.8412  0.5697
 2772TIP3    H129807   0.922   0.421   0.234  0.7109  1.9151  0.9333
 2772TIP3    H229808   0.804   0.419   0.139  1.2595 -1.1035  0.2108
 2773TIP3   OH229809   5.430   6.759   0.500  0.0018 -0.5148  0.3418
 2773TIP3    H129810   5.451   6.792   0.588 -1.6110 -1.5433  1.1634
 2773TIP3    H229811   5.381   6.679   0.516 -2.4546  0.5024 -1.4262
 2774TIP3   OH229812   0.162   6.420  11.072 -0.2903  0.3821 -0.3390
 2774TIP3    H129813   0.107   6.349  11.106 -1.2589  1.0467 -0.4847
 2774TIP3    H229814   0.188   6.391  10.985 -0.8569  0.2912 -0.4828
 2775TIP3   OH229815   1.223   0.065  13.826 -0.5588  0.3082  0.1389
 2775TIP3    H129816   1.242   0.154  13.796 -0.8640  0.2331 -0.2854
 2775TIP3    H229817   1.203   0.075  13.919 -0.2037  0.6285  0.1837
 2776TIP3   OH229818   1.556   1.741   1.939 -0.2305  0.8197  0.2388
 2776TIP3    H129819   1.569   1.781   1.853 -0.9385 -0.0798 -0.2982
 2776TIP3    H229820   1.633   1.685   1.951 -0.7718 -0.0853 -0.4120
 2777TIP3   OH229821   3.198   4.239   5.229 -0.4626 -0.6105 -0.0201
 2777TIP3    H129822   3.130   4.262   5.292  1.1132 -0.9301  1.9021
 2777TIP3    H229823   3.280   4.249   5.277  1.1057  1.9792 -2.8475
 2778TIP3   OH229824   5.616   3.402  14.483 -0.6014  0.0664 -0.1672
 2778TIP3    H129825   5.640   3.492  14.460 -0.8836 -0.4628 -2.8149
 2778TIP3    H229826   5.685   3.374  14.543  2.0678  0.6394 -2.7161
 2779TIP3   OH229827   5.344   4.337   2.001  0.1882 -0.6471 -0.6151
 2779TIP3    H129828   5.377   4.386   2.076 -0.2471  1.0117 -1.4671
 2779TIP3    H229829   5.317   4.252   2.038  0.8102 -0.2132  0.9242
 2780TIP3   OH229830   5.146   3.304   2.994  0.1718  0.2020 -0.4106
 2780TIP3    H129831   5.222   3.252   3.020  0.2288  0.0873 -0.8148
 2780TIP3    H229832   5.070   3.250   3.019  0.1737  1.0062  1.5103
 2781TIP3   OH229833   4.939   3.833  12.035 -0.2804 -0.4629 -0.3954
 2781TIP3    H129834   5.026   3.794  12.035 -0.0817 -0.0556  0.5136
 2781TIP3    H229835   4.948   3.912  12.088 -0.7840  0.5751 -1.7987
 2782TIP3   OH229836   1.824   5.986   5.806  0.1590  0.1813 -0.1689
 2782TIP3    H129837   1.817   5.901   5.848 -1.0881 -0.1749 -1.0413
 2782TIP3    H229838   1.917   5.999   5.791  0.3387 -1.1381 -0.2372
 2783TIP3   OH229839   6.266   0.583   4.936  0.5640  0.6593  0.0309
 2783TIP3    H129840   6.257   0.518   5.006  2.0505  0.0052 -0.3722
 2783TIP3    H229841   6.311   0.657   4.978 -1.5767  1.7223  0.6294
 2784TIP3   OH229842   2.994   2.871  11.200  0.2171 -0.2729  0.4741
 2784TIP3    H129843   2.899   2.880  11.210  0.1439 -1.4849  1.0398
 2784TIP3    H229844   3.006   2.783  11.162  1.0864  0.1080 -0.1727
 2785TIP3   OH229845   0.681   2.651   5.982  0.2710 -0.0603  0.0834
 2785TIP3    H129846   0.616   2.639   6.051  1.6947 -2.5139  1.1422
 2785TIP3    H229847   0.765   2.653   6.029  1.1232  0.7242 -1.3999
 2786TIP3   OH229848   5.727   5.377   2.499 -0.1624 -0.1452 -0.8442
 2786TIP3    H129849   5.736   5.344   2.588 -0.9120 -0.7450 -0.9802
 2786TIP3    H229850   5.637   5.412   2.495 -0.3631 -0.7147 -1.5515
 2787TIP3   OH229851   0.370   2.264   2.160 -0.2087 -0.3721  0.2162
 2787TIP3    H129852   0.294   2.253   2.103 -0.8060 -5.0779  1.5008
 2787TIP3    H229853   0.422   2.332   2.118 -1.6732 -1.9036 -4.7173
 2788TIP3   OH229854   4.246   2.750   3.048  0.5048 -0.0713  0.4212
 2788TIP3    H129855   4.284   2.662   3.049  2.2846  0.6388 -0.7690
 2788TIP3    H229856   4.205   2.757   2.962 -1.0362 -0.2562  1.1044
 2789TIP3   OH229857   6.328   3.510   1.039  0.3481 -0.4347 -0.0458
 2789TIP3    H129858   6.307   3.432   1.092  1.3290 -0.2083  0.7137
 2789TIP3    H229859   6.326   3.478   0.949 -1.0617 -0.9052  0.1242
 2790TIP3   OH229860   0.869   4.961   1.405 -0.1024 -0.1190  0.0105
 2790TIP3    H129861   0.773   4.967   1.409 -0.0400  0.9376  0.3232
 2790TIP3    H229862   0.890   4.975   1.313 -0.3032 -1.6428 -0.2927
 2791TIP3   OH229863   3.165   3.068  11.665  0.0862 -0.3975  0.0533
 2791TIP3    H129864   3.253   3.060  11.629  0.0917  0.1475 -0.0548
 2791TIP3    H229865   3.175   3.126  11.741 -0.5960  1.8498 -1.4873
 2792TIP3   OH229866   5.890   2.441   0.056 -0.1034  0.4591 -0.3335
 2792TIP3    H129867   5.861   2.472  -0.030 -0.5269  2.2653  0.4109
 2792TIP3    H229868   5.813   2.396   0.092  0.1871 -0.6109 -1.0147
 2793TIP3   OH229869   1.335   3.208   5.716  0.7092  0.4687 -0.2378
 2793TIP3    H129870   1.239   3.215   5.715  0.6712  0.4418  1.0662
 2793TIP3    H229871   1.357   3.168   5.632 -0.6051 -1.5398  0.2948
 2794TIP3   OH229872   3.306   5.726   0.700  0.0493  0.1580 -0.6213
 2794TIP3    H129873   3.325   5.691   0.613 -0.4696  1.8986 -1.4967
 2794TIP3    H229874   3.391   5.758   0.732  0.8803 -3.1439  0.8997
 2795TIP3   OH229875   2.945   0.216  16.080 -0.5581  0.8901  0.3153
 2795TIP3    H129876   2.977   0.295  16.124 -0.8050  0.2465  1.7075
 2795TIP3    H229877   3.023   0.175  16.044 -0.1107  0.6051  1.5554
 2796TIP3   OH229878   1.941   1.920   4.089 -0.4487 -0.4052  0.1005
 2796TIP3    H129879   2.013   1.857   4.089  0.5248  0.6748  0.5599
 2796TIP3    H229880   1.871   1.877   4.040  1.1433 -0.7984 -1.9623
 2797TIP3   OH229881   4.108   0.804  12.424  0.0309  0.5102 -0.5945
 2797TIP3    H129882   4.158   0.836  12.499  0.2362  1.0315 -0.9436
 2797TIP3    H229883   4.156   0.727  12.394  0.6344  0.9956 -0.9149
 2798TIP3   OH229884   2.949   6.614  14.962  0.7029 -0.1734 -0.1467
 2798TIP3    H129885   2.982   6.683  14.904  1.7865  0.1631  0.8247
 2798TIP3    H229886   2.864   6.647  14.992  1.0870  0.6338  0.0983
 2799TIP3   OH229887   6.427   5.283  12.490  0.3951  0.0989  0.2964
 2799TIP3    H129888   6.505   5.245  12.451  0.7248  0.0186  1.0159
 2799TIP3    H229889   6.357   5.222  12.469  0.7854 -0.5396  0.8384
 2800TIP3   OH229890   1.326   1.286  10.627  0.3185  0.6198 -0.1461
 2800TIP3    H129891   1.252   1.312  10.572 -0.2046  0.2739  0.3749
 2800TIP3    H229892   1.402   1.292  10.570 -0.4789 -2.1143 -1.7062
 2801TIP3   OH229893   2.444   5.026   2.952 -0.3941 -0.5373  0.2351
 2801TIP3    H129894   2.487   5.035   3.037  0.2433  1.4204 -0.2408
 2801TIP3    H229895   2.370   4.967   2.968  0.7406 -1.6204  1.7278
 2802TIP3   OH229896   4.182   6.764  15.182 -0.1187  0.1407  0.1783
 2802TIP3    H129897   4.236   6.835  15.216 -1.0254  0.9928 -0.1286
 2802TIP3    H229898   4.239   6.719  15.119  0.6520  0.2333  0.7883
 2803TIP3   OH229899   0.935   4.962  14.857  0.2719  0.5124  0.0811
 2803TIP3    H129900   0.879   4.995  14.927  1.0912  0.4876  0.7571
 2803TIP3    H229901   0.910   5.013  14.780 -2.1322 -0.8762 -0.1723
 2804TIP3   OH229902   0.813   1.296   3.235 -0.0341  0.4481 -0.0876
 2804TIP3    H129903   0.813   1.338   3.149 -0.6055  0.5488 -0.0395
 2804TIP3    H229904   0.723   1.269   3.249  0.1466  0.0337  0.2906
 2805TIP3   OH229905   1.388   1.143   4.743 -0.1022  0.2765 -0.2032
 2805TIP3    H129906   1.397   1.095   4.825 -1.9546  1.9307  1.0722
 2805TIP3    H229907   1.476   1.176   4.725  0.5365 -0.9239  0.5697
 2806TIP3   OH229908   3.505   6.466  11.726 -0.6569  0.8520 -0.0538
 2806TIP3    H129909   3.430   6.407  11.724  0.0383 -0.0452 -0.1593
 2806TIP3    H229910   3.530   6.475  11.634 -1.2445  1.9671 -0.1224
 2807TIP3   OH229911   4.628   0.278   0.718  0.3657  0.1183 -0.4279
 2807TIP3    H129912   4.717   0.298   0.690  0.3403  1.3769  0.3244
 2807TIP3    H229913   4.573   0.309   0.645  0.4183  1.5881  0.1253
 2808TIP3   OH229914   0.010   4.913  13.792  0.7921  0.1817 -0.3413
 2808TIP3    H129915  -0.044   4.951  13.722 -1.6245  0.9515  1.8057
 2808TIP3    H229916  -0.034   4.832  13.815  1.4208  0.0572  0.4573
 2809TIP3   OH229917   4.111   2.099  15.593 -0.2581 -0.0175 -0.0684
 2809TIP3    H129918   4.118   2.164  15.663  0.6048 -1.3091  1.1108
 2809TIP3    H229919   4.155   2.140  15.519  2.7972 -0.2210  1.4503
 2810TIP3   OH229920   6.261   6.734  14.197 -0.2670 -0.2037  0.0904
 2810TIP3    H129921   6.235   6.737  14.290  0.2153 -0.0311  0.2204
 2810TIP3    H229922   6.260   6.825  14.169  1.1121 -0.0854  0.3542
 2811TIP3   OH229923   0.853   4.971  11.664  0.4238 -0.2335  0.1311
 2811TIP3    H129924   0.848   5.006  11.575  0.4878  1.5145  0.7876
 2811TIP3    H229925   0.838   4.877  11.653 -0.6300  0.0909 -1.6119
 2812TIP3   OH229926   6.705   0.778  16.114  0.1535 -0.1532 -0.7326
 2812TIP3    H129927   6.708   0.770  16.209 -0.6084 -0.4756 -0.7250
 2812TIP3    H229928   6.679   0.691  16.084 -4.4810  1.0157 -0.9115
 2813TIP3   OH229929   1.539   1.803   3.529  0.1219 -0.0712 -0.0943
 2813TIP3    H129930   1.563   1.847   3.610 -0.2388  0.6411 -0.3681
 2813TIP3    H229931   1.478   1.863   3.486  0.7469 -0.1852 -1.1643
 2814TIP3   OH229932   3.676   4.452   3.639  0.2052 -0.6594  0.4096
 2814TIP3    H129933   3.714   4.427   3.555  0.1257 -1.3500  0.5746
 2814TIP3    H229934   3.587   4.418   3.637  0.4502 -1.3803  1.0737
 2815TIP3   OH229935   5.738   2.917  13.637 -0.1146 -0.2093 -0.3103
 2815TIP3    H129936   5.658   2.906  13.586  1.7673 -0.2496 -3.5224
 2815TIP3    H229937   5.771   3.003  13.612  0.7921 -0.1110  1.0770
 2816TIP3   OH229938   4.501   0.230   2.432 -0.3735 -0.0856  0.1754
 2816TIP3    H129939   4.525   0.317   2.400  1.2967 -0.1510  1.1359
 2816TIP3    H229940   4.491   0.177   2.352  3.1381 -0.1147 -0.3989
 2817TIP3   OH229941   1.069   2.937  16.115 -0.0994  0.5047 -0.2933
 2817TIP3    H129942   1.111   2.987  16.185  0.8079 -1.5257  0.6949
 2817TIP3    H229943   1.139   2.881  16.081 -1.1851 -0.4679 -0.9715
 2818TIP3   OH229944   6.393   0.621   4.707  0.2219  0.2489 -0.2856
 2818TIP3    H129945   6.465   0.660   4.757  0.0502  0.3299 -0.0977
 2818TIP3    H229946   6.325   0.606   4.773 -0.4313  1.3855 -0.6917
 2819TIP3   OH229947   1.566   5.516  13.893  0.5188 -0.3187  0.1796
 2819TIP3    H129948   1.569   5.422  13.916  4.6759 -0.1621  1.2096
 2819TIP3    H229949   1.562   5.517  13.798 -0.2742 -1.4850  0.1684
 2820TIP3   OH229950   2.919   2.559   2.802  0.2130 -0.0188  0.0217
 2820TIP3    H129951   2.847   2.504   2.831  0.3203  0.1876  0.7126
 2820TIP3    H229952   2.948   2.521   2.719 -0.5674 -0.2081 -0.1689
 2821TIP3   OH229953   5.727   5.904  11.758 -0.1923 -0.1750  0.3999
 2821TIP3    H129954   5.680   5.837  11.807 -0.3773 -2.1948 -2.3282
 2821TIP3    H229955   5.820   5.882  11.769 -0.2597 -1.0017 -0.6189
 2822TIP3   OH229956   4.023   0.477   2.551  0.2841  0.1038  0.1723
 2822TIP3    H129957   3.982   0.397   2.519 -0.1552  0.0686  0.8021
 2822TIP3    H229958   3.987   0.488   2.639  0.4191  0.9412  0.1240
 2823TIP3   OH229959   1.846   0.527  12.845  0.4648 -0.7229 -0.1577
 2823TIP3    H129960   1.815   0.603  12.894  0.5009  0.2634 -1.5809
 2823TIP3    H229961   1.803   0.452  12.886  2.0014 -0.2078  2.5941
 2824TIP3   OH229962   6.578   0.855  10.733 -0.1067 -0.4775  0.6442
 2824TIP3    H129963   6.669   0.827  10.746 -0.3357 -1.0225  1.1358
 2824TIP3    H229964   6.558   0.832  10.643  0.4064  0.1352  0.3632
 2825TIP3   OH229965   3.616   3.102  11.110  0.2504 -0.4809  0.0457
 2825TIP3    H129966   3.630   3.098  11.204 -1.4228 -2.3075  0.2791
 2825TIP3    H229967   3.608   3.196  11.091 -2.4190 -0.1246  2.2720
 2826TIP3   OH229968   4.746   5.988  15.044  0.1610 -0.1319 -0.3556
 2826TIP3    H129969   4.670   5.932  15.060 -0.9738  1.2717 -0.6385
 2826TIP3    H229970   4.782   6.003  15.131 -0.8650  0.4922 -0.0181
 2827TIP3   OH229971   6.612   1.105   3.524  0.0584 -0.0946 -0.1276
 2827TIP3    H129972   6.558   1.183   3.512  0.5870  0.2061 -0.6263
 2827TIP3    H229973   6.701   1.135   3.506  0.5922 -0.2645  1.9921
 2828TIP3   OH229974   5.148   2.156  12.829 -0.0308  0.3906 -0.2142
 2828TIP3    H129975   5.223   2.114  12.870  0.9509  0.5121 -1.7972
 2828TIP3    H229976   5.137   2.239  12.876  1.2267  0.6578 -0.3646
 2829TIP3   OH229977   5.238   4.792   1.500  0.3574 -0.3465 -0.3765
 2829TIP3    H129978   5.292   4.864   1.468  1.1702 -0.1108  1.3799
 2829TIP3    H229979   5.161   4.835   1.537 -0.5837 -0.6131 -1.9843
 2830TIP3   OH229980   5.028   4.637   1.003 -0.6369  0.3832  0.5204
 2830TIP3    H129981   5.113   4.646   1.046 -0.0785 -0.2693 -0.4001
 2830TIP3    H229982   5.040   4.681   0.918 -0.6602 -1.1569 -0.3194
 2831TIP3   OH229983   3.913   2.633   5.150  0.6331 -0.4210  0.3087
 2831TIP3    H129984   3.823   2.655   5.127 -0.0063 -0.8772  2.1667
 2831TIP3    H229985   3.958   2.718   5.155 -0.4575  0.1079  2.1880
 2832TIP3   OH229986   4.827   3.567   2.029 -0.1907 -0.2530 -0.4621
 2832TIP3    H129987   4.851   3.650   1.988  0.9487 -0.5873 -0.5169
 2832TIP3    H229988   4.759   3.590   2.092  1.4069  1.0458  0.8720
 2833TIP3   OH229989   0.574   3.435   2.217  0.5217  0.4008 -0.2492
 2833TIP3    H129990   0.613   3.467   2.136  0.3493  0.4685 -0.3059
 2833TIP3    H229991   0.564   3.513   2.272 -0.1945  0.5057 -0.5097
 2834TIP3   OH229992   4.068   6.052  11.878  0.0598 -0.5144  0.1151
 2834TIP3    H129993   4.023   6.003  11.947  0.7232 -0.3861  0.6496
 2834TIP3    H229994   4.005   6.119  11.852  0.2775  0.3013  1.5510
 2835TIP3   OH229995   3.341   6.634  14.002  0.2710  0.0736  0.6841
 2835TIP3    H129996   3.411   6.569  14.014 -0.2276 -0.5156  0.4306
 2835TIP3    H229997   3.343   6.686  14.082  1.2442  0.3013  0.5295
 2836TIP3   OH229998   6.182   6.454  15.780  0.4449 -0.2888 -0.1917
 2836TIP3    H129999   6.128   6.380  15.808  2.8627 -1.7288  1.0129
 2836TIP3    H230000   6.271   6.419  15.776  1.4791  2.1822 -1.1750
 2837TIP3   OH230001   2.171   0.454   2.175  0.4937  0.3100  0.2835
 2837TIP3    H130002   2.125   0.439   2.092  0.5328 -1.3940  0.5275
 2837TIP3    H230003   2.111   0.508   2.226 -0.1927  0.1177 -0.2957
 2838TIP3   OH230004   3.053   6.513  14.720 -0.0462  0.1446 -0.3474
 2838TIP3    H130005   3.040   6.597  14.676 -2.2256  0.0442 -0.0079
 2838TIP3    H230006   3.050   6.534  14.813  1.4562 -0.0589 -0.2322
 2839TIP3   OH230007   4.878   1.695  14.982 -0.7998 -0.0189  0.0904
 2839TIP3    H130008   4.794   1.705  15.027  0.4695 -0.5554  2.7905
 2839TIP3    H230009   4.943   1.730  15.043  1.1159 -1.0851 -1.2021
 2840TIP3   OH230010   2.773   1.506   2.539 -0.1355 -0.6898 -0.5363
 2840TIP3    H130011   2.713   1.470   2.474 -1.5955  3.7478 -1.9740
 2840TIP3    H230012   2.717   1.537   2.610  0.9878 -0.9583  0.5098
 2841TIP3   OH230013   2.828   6.410  10.912 -0.0169 -0.4591  0.1430
 2841TIP3    H130014   2.850   6.502  10.925  0.7022 -0.4478 -1.0203
 2841TIP3    H230015   2.856   6.391  10.823 -3.8240 -0.7125 -1.1881
 2842TIP3   OH230016   6.345   2.628  16.879 -0.0557 -0.1128  0.1469
 2842TIP3    H130017   6.425   2.656  16.923 -0.7099 -0.4757  1.6365
 2842TIP3    H230018   6.346   2.532  16.886 -0.0801 -0.1989 -0.8320
 2843TIP3   OH230019   1.767   4.449  15.327 -0.1863  0.3116  0.4321
 2843TIP3    H130020   1.684   4.457  15.372 -0.1103 -0.1416  0.6589
 2843TIP3    H230021   1.788   4.355  15.331  1.5568  0.7014  2.6193
 2844TIP3   OH230022   1.539   1.825  12.522  0.0474 -0.1588  0.3913
 2844TIP3    H130023   1.470   1.885  12.550 -0.2152 -0.4606  0.3931
 2844TIP3    H230024   1.612   1.882  12.497 -0.5552  0.2194 -0.5887
 2845TIP3   OH230025   4.060   3.460  16.453  0.6487  0.0186 -0.8845
 2845TIP3    H130026   4.011   3.441  16.374 -1.0125  0.7589 -0.0808
 2845TIP3    H230027   4.037   3.390  16.514 -0.3463  0.9472 -0.1353
 2846TIP3   OH230028   1.836   2.798  15.108 -0.0267  0.3569  0.5436
 2846TIP3    H130029   1.894   2.727  15.135 -0.0698 -0.1577 -0.6837
 2846TIP3    H230030   1.814   2.842  15.190  2.9009  1.2223  0.9936
 2847TIP3   OH230031   0.805   6.301  16.314  0.1370  0.4639 -0.0799
 2847TIP3    H130032   0.818   6.310  16.408  1.7779  0.1192 -0.2423
 2847TIP3    H230033   0.892   6.281  16.279 -0.1891  1.7580 -1.8131
 2848TIP3   OH230034   6.223   6.300   6.440 -0.2001 -0.4506 -0.2116
 2848TIP3    H130035   6.240   6.228   6.379 -0.7721 -2.0332  1.4054
 2848TIP3    H230036   6.297   6.360   6.426  0.0207 -1.0541 -1.9807
 2849TIP3   OH230037   3.298   5.781  14.328 -0.1275 -0.6124 -0.1390
 2849TIP3    H130038   3.239   5.802  14.255 -0.7068 -1.3054  0.1239
 2849TIP3    H230039   3.240   5.751  14.398  0.5521 -1.5609  0.0368
 2850TIP3   OH230040   5.549   0.211  16.612 -0.3661 -0.0500  0.0935
 2850TIP3    H130041   5.604   0.211  16.690 -0.6154  0.9850  0.2805
 2850TIP3    H230042   5.543   0.119  16.587 -1.4175 -0.5510  2.0616
 2851TIP3   OH230043   1.571   1.690   0.700 -0.3236  0.0351  0.2101
 2851TIP3    H130044   1.635   1.760   0.685 -0.4542  0.0777 -0.1596
 2851TIP3    H230045   1.622   1.610   0.693 -0.1673  0.0934  0.6656
 2852TIP3   OH230046   0.632   3.398  15.965  0.0499  0.4869  0.0086
 2852TIP3    H130047   0.607   3.312  15.931  0.1591 -0.1563  1.4865
 2852TIP3    H230048   0.580   3.408  16.045 -0.3851  2.0566 -0.4283
 2853TIP3   OH230049   6.219   6.295  12.246  0.0815 -0.0317  0.2913
 2853TIP3    H130050   6.280   6.367  12.235  1.0974 -0.5591  2.0374
 2853TIP3    H230051   6.142   6.320  12.195  2.0452  0.2518 -2.7293
 2854TIP3   OH230052   6.512   0.476  12.082  0.0823 -1.1520 -0.3511
 2854TIP3    H130053   6.556   0.544  12.031  0.5357 -2.6069 -2.0243
 2854TIP3    H230054   6.422   0.507  12.091  0.5647  0.2163  0.0165
 2855TIP3   OH230055   1.563   0.629  11.340 -0.0348  0.2292  0.2813
 2855TIP3    H130056   1.651   0.600  11.316 -0.3954 -1.8778  1.2638
 2855TIP3    H230057   1.523   0.656  11.258  0.5674 -1.6031 -0.6659
 2856TIP3   OH230058   0.984   2.477  15.660 -0.6242 -1.0988 -0.2333
 2856TIP3    H130059   0.989   2.381  15.654  1.2311 -1.0840  0.3297
 2856TIP3    H230060   1.014   2.508  15.574  0.4002 -1.0385  0.1308
 2857TIP3   OH230061   5.441   3.721   3.101  0.2013 -0.1524 -0.0988
 2857TIP3    H130062   5.388   3.641   3.106 -2.4867  1.5566  1.3541
 2857TIP3    H230063   5.474   3.735   3.189  0.0492  0.6928 -0.1625
 2858TIP3   OH230064   4.894   5.535   4.781  0.6706  1.0678  0.8482
 2858TIP3    H130065   4.975   5.584   4.793  1.7249 -0.5929  0.8908
 2858TIP3    H230066   4.914   5.472   4.711  0.3776 -1.2390  2.7027
 2859TIP3   OH230067   2.173   6.477   3.741  0.3841 -0.0907  0.7012
 2859TIP3    H130068   2.256   6.519   3.718  2.9117 -3.2907  3.0513
 2859TIP3    H230069   2.167   6.487   3.836 -2.5348  0.8484  0.5219
 2860TIP3   OH230070   3.132   5.536  11.164 -0.0139 -0.1510 -0.1702
 2860TIP3    H130071   3.138   5.607  11.101 -0.6051 -0.0706 -0.1420
 2860TIP3    H230072   3.159   5.458  11.115  1.7927  0.2401  0.1096
 2861TIP3   OH230073   2.276   4.889   0.823  0.2720 -0.0230 -0.0536
 2861TIP3    H130074   2.300   4.955   0.758  1.1489 -0.2199  0.0641
 2861TIP3    H230075   2.344   4.822   0.816 -1.4193 -1.7288 -1.2833
 2862TIP3   OH230076   4.898   1.664   1.347  0.0306  0.7295  0.0958
 2862TIP3    H130077   4.832   1.690   1.283  0.2429 -0.9335 -0.8425
 2862TIP3    H230078   4.875   1.574   1.370  0.7961  0.8162  1.2994
 2863TIP3   OH230079   0.944   1.323  12.013 -0.4967  0.3140  0.3271
 2863TIP3    H130080   1.020   1.378  11.994 -0.2427  0.3369  1.3307
 2863TIP3    H230081   0.869   1.374  11.983 -0.1544  0.5030 -0.2236
 2864TIP3   OH230082   5.822   0.645   3.482  0.2228 -0.1288 -0.1607
 2864TIP3    H130083   5.780   0.576   3.431  0.6149 -2.0906  2.0070
 2864TIP3    H230084   5.770   0.650   3.563 -0.3179  2.7823 -0.5968
 2865TIP3   OH230085   5.007   6.439   0.351 -0.5271  0.0819 -0.0598
 2865TIP3    H130086   5.070   6.379   0.310 -0.3527 -0.2075  0.6262
 2865TIP3    H230087   4.967   6.387   0.420 -1.1351  0.4382 -0.1429
 2866TIP3   OH230088   5.681   5.689  10.540  0.1523 -0.1915  0.3320
 2866TIP3    H130089   5.720   5.776  10.544 -0.5297  0.1580 -0.3189
 2866TIP3    H230090   5.730   5.637  10.604  0.4448  0.7153  0.8554
 2867TIP3   OH230091   4.803   0.633   4.984  0.1692  0.4566 -0.5528
 2867TIP3    H130092   4.727   0.575   4.977 -1.8850  2.4274  2.7357
 2867TIP3    H230093   4.786   0.703   4.922 -0.0999  0.3110 -0.6457
 2868TIP3   OH230094   5.294   4.591   2.578 -0.3550 -0.6520 -0.3649
 2868TIP3    H130095   5.211   4.555   2.546 -0.7277  0.7613 -1.1079
 2868TIP3    H230096   5.293   4.682   2.548  1.4481 -0.5883 -0.3341
 2869TIP3   OH230097   2.311   5.343  15.491  0.2958  0.3609 -0.5491
 2869TIP3    H130098   2.255   5.410  15.530  3.6728  1.0502  3.9180
 2869TIP3    H230099   2.398   5.381  15.491  2.1952 -3.4624  1.0804
 2870TIP3   OH230100   2.218   5.073  17.054 -0.2189  0.8961  0.1444
 2870TIP3    H130101   2.210   5.155  17.102  0.5356  1.6183 -0.9143
 2870TIP3    H230102   2.239   5.100  16.964 -2.4193 -0.3581 -0.8235
 2871TIP3   OH230103   6.793   2.171  16.641  0.0139  0.2259 -0.5996
 2871TIP3    H130104   6.793   2.160  16.736 -1.5460  1.0375 -0.4659
 2871TIP3    H230105   6.806   2.265  16.628 -0.0894  0.1649 -1.1759
 2872TIP3   OH230106   5.628   4.890   0.268  0.1592 -0.0103  0.3978
 2872TIP3    H130107   5.709   4.858   0.308  1.4539  1.5238 -0.8943
 2872TIP3    H230108   5.580   4.810   0.244  2.0763 -0.9994 -0.3648
 2873TIP3   OH230109   6.772   0.262   0.705  0.8700  0.5226  0.3389
 2873TIP3    H130110   6.726   0.338   0.669 -0.8136 -0.9787 -0.8937
 2873TIP3    H230111   6.752   0.264   0.798 -1.9012 -0.0917 -0.1549
 2874TIP3   OH230112   0.173   5.340  11.459  0.1228  0.3295 -0.1107
 2874TIP3    H130113   0.177   5.248  11.484 -0.0423 -0.5271 -2.8821
 2874TIP3    H230114   0.140   5.385  11.537  0.3490 -1.9066  1.3597
 2875TIP3   OH230115   6.584   4.431  11.869  1.2021 -0.3596  0.1007
 2875TIP3    H130116   6.640   4.429  11.791  0.7138 -1.0916 -0.2423
 2875TIP3    H230117   6.624   4.498  11.925  2.7861 -1.2830  0.1444
 2876TIP3   OH230118   5.358   1.398   0.994  0.1031  0.0864  0.1955
 2876TIP3    H130119   5.442   1.427   1.027  0.6880 -1.6331  0.3232
 2876TIP3    H230120   5.378   1.354   0.911 -0.5726 -0.7999  0.4740
 2877TIP3   OH230121   1.488   0.176   2.266 -0.4339 -0.0953  0.5475
 2877TIP3    H130122   1.428   0.166   2.192  0.7653 -0.5620 -0.4027
 2877TIP3    H230123   1.496   0.087   2.302  1.4476 -0.5429 -0.8047
 2878TIP3   OH230124   2.779   2.117   2.456 -0.1488  0.0546  0.0538
 2878TIP3    H130125   2.745   2.079   2.537 -0.1448  1.3117  0.6536
 2878TIP3    H230126   2.864   2.075   2.443  0.9044  1.4890  1.9470
 2879TIP3   OH230127   5.043   5.664  16.577 -0.3766  0.4317 -0.1556
 2879TIP3    H130128   5.100   5.691  16.649  0.3212 -1.9104  0.2225
 2879TIP3    H230129   5.101   5.662  16.501 -0.5397  0.4373 -0.2805
 2880TIP3   OH230130   6.588   6.766  15.809  0.0431  0.1454  0.4221
 2880TIP3    H130131   6.647   6.731  15.876 -0.8883 -2.1224  0.1467
 2880TIP3    H230132   6.645   6.791  15.736  0.8345  0.2652  1.0728
 2881TIP3   OH230133   4.579   2.909   3.551 -0.0883 -0.2598  0.4765
 2881TIP3    H130134   4.653   2.928   3.494 -0.4198  0.6943  0.3397
 2881TIP3    H230135   4.567   2.989   3.603 -0.8256 -0.5050  0.7010
 2882TIP3   OH230136   2.385   4.962   1.535 -0.2249  0.6215 -0.0938
 2882TIP3    H130137   2.333   5.039   1.511 -2.1791 -0.4362  0.5274
 2882TIP3    H230138   2.403   4.973   1.628 -0.2074  0.4846 -0.0810
 2883TIP3   OH230139   0.317   1.717  14.189  0.3692 -0.6947 -0.2604
 2883TIP3    H130140   0.367   1.792  14.222 -2.2397  0.9345  0.2713
 2883TIP3    H230141   0.356   1.698  14.103  1.4909  0.8642 -0.1335
 2884TIP3   OH230142   3.376   0.501   2.150 -0.4498  0.0408  1.1795
 2884TIP3    H130143   3.319   0.538   2.217  0.2249  1.8140  0.8328
 2884TIP3    H230144   3.461   0.493   2.192 -0.2301  0.3474  0.8097
 2885TIP3   OH230145   2.252   1.968  16.643  0.1087 -0.1331 -0.1377
 2885TIP3    H130146   2.320   2.036  16.642  0.4713 -0.4461  1.2628
 2885TIP3    H230147   2.298   1.888  16.618 -0.0333 -0.1089 -0.4808
 2886TIP3   OH230148   6.227   4.904  14.974 -0.1358 -0.1850  0.1792
 2886TIP3    H130149   6.149   4.889  15.027  0.3680 -1.3689  0.6274
 2886TIP3    H230150   6.298   4.865  15.025  1.1512  2.7650  0.8393
 2887TIP3   OH230151   4.245   6.430  13.193  0.4049 -0.7958 -0.0479
 2887TIP3    H130152   4.266   6.419  13.101  0.8165 -2.7368  0.2198
 2887TIP3    H230153   4.324   6.399  13.239  0.3633  0.5306  0.9579
 2888TIP3   OH230154   5.492   0.151  12.740  0.1635 -0.0477  0.5687
 2888TIP3    H130155   5.582   0.132  12.765 -0.0680  1.4136  2.8290
 2888TIP3    H230156   5.440   0.129  12.818 -1.3315  0.0430 -0.3467
 2889TIP3   OH230157   1.973   4.440   5.689 -0.2737 -0.1940 -0.2039
 2889TIP3    H130158   1.889   4.445   5.734  1.1676 -0.0812  2.7756
 2889TIP3    H230159   1.997   4.532   5.673 -0.0656 -0.1448  0.3574
 2890TIP3   OH230160   4.577   4.753   1.524 -1.0552 -0.1939 -0.4936
 2890TIP3    H130161   4.615   4.703   1.451  1.7569  0.4510  0.3970
 2890TIP3    H230162   4.589   4.844   1.499  1.9515  0.1054  1.5347
 2891TIP3   OH230163   3.340   0.723  13.253  0.7088 -0.1291 -0.1625
 2891TIP3    H130164   3.308   0.808  13.284 -1.1848 -0.2286 -1.7087
 2891TIP3    H230165   3.271   0.661  13.276  2.0990 -1.3378  1.0222
 2892TIP3   OH230166   0.802   4.692  16.558  0.6673  0.0674  0.6126
 2892TIP3    H130167   0.851   4.679  16.639  0.6850  0.6407  0.7007
 2892TIP3    H230168   0.726   4.743  16.584 -0.0956 -0.9802  0.5108
 2893TIP3   OH230169   1.802   6.087  15.387  0.6057  0.1860  0.5571
 2893TIP3    H130170   1.811   6.169  15.435 -0.0947 -0.0341  1.0746
 2893TIP3    H230171   1.719   6.050  15.417 -0.6894  0.8060 -2.0085
 2894TIP3   OH230172   0.520   5.603  12.405  0.0533  0.2156  0.2708
 2894TIP3    H130173   0.540   5.694  12.382 -0.0633  0.3834  0.8073
 2894TIP3    H230174   0.603   5.568  12.438  0.5627 -0.4231 -1.5838
 2895TIP3   OH230175   6.760   6.018   2.323  0.2750  0.1210  0.1787
 2895TIP3    H130176   6.686   5.973   2.283  0.6723  0.0958 -0.5467
 2895TIP3    H230177   6.737   6.111   2.317 -0.0281  0.0771  0.6312
 2896TIP3   OH230178   4.179   4.235   3.230  0.0961  0.3102 -0.1105
 2896TIP3    H130179   4.100   4.280   3.198 -0.3032  0.2720  0.8088
 2896TIP3    H230180   4.245   4.305   3.235 -0.9896  1.2892  3.0091
 2897TIP3   OH230181   6.209   0.320  11.035  0.5458 -0.9060 -0.3770
 2897TIP3    H130182   6.164   0.377  11.096  2.6192 -0.3242  0.7031
 2897TIP3    H230183   6.214   0.235  11.080 -0.7756 -1.4171 -1.1447
 2898TIP3   OH230184   3.824   1.331  12.050 -0.2413 -0.7527  0.0637
 2898TIP3    H130185   3.790   1.346  12.138 -2.3387 -0.5562 -0.7235
 2898TIP3    H230186   3.855   1.241  12.051 -0.4959 -0.8367  0.9209
 2899TIP3   OH230187   4.814   3.424  12.791  0.0767 -0.8611  0.0648
 2899TIP3    H130188   4.746   3.455  12.851 -0.5625  0.7631 -1.4157
 2899TIP3    H230189   4.892   3.472  12.816  0.0375 -0.8496  0.1644
 2900TIP3   OH230190   0.766   1.677  12.349 -0.5478 -0.4931  0.1273
 2900TIP3    H130191   0.813   1.642  12.424  0.1129 -0.5698 -0.3085
 2900TIP3    H230192   0.708   1.744  12.385  0.4581  0.1439  0.5950
 2901TIP3   OH230193   5.990   5.116  13.418 -0.4144  0.0450 -0.3695
 2901TIP3    H130194   6.006   5.138  13.326  2.5291 -0.5003 -0.0967
 2901TIP3    H230195   5.989   5.201  13.463 -0.2248  0.2249 -0.7028
 2902TIP3   OH230196   0.400   5.087   2.284 -0.4915 -0.3982  0.0766
 2902TIP3    H130197   0.442   5.172   2.299  1.0450 -1.4710  2.4332
 2902TIP3    H230198   0.327   5.085   2.347 -1.5115 -0.2355 -1.0692
 2903TIP3   OH230199   5.210   6.740  10.848 -0.0128  0.3288  0.1160
 2903TIP3    H130200   5.284   6.799  10.859  1.3302 -0.5886 -2.9420
 2903TIP3    H230201   5.151   6.786  10.789 -0.9672  0.2451  0.9812
 2904TIP3   OH230202   5.464   0.988   5.110 -0.5328  0.7050 -0.2037
 2904TIP3    H130203   5.559   0.994   5.111 -0.4806  0.3494 -1.4917
 2904TIP3    H230204   5.434   1.076   5.134  0.1561  1.6618 -2.5420
 2905TIP3   OH230205   6.023   1.254  11.348 -0.5803 -0.3102 -0.4210
 2905TIP3    H130206   6.032   1.160  11.328  1.1686 -0.6710  1.6363
 2905TIP3    H230207   5.953   1.258  11.412 -0.2471 -0.2997 -0.0551
 2906TIP3   OH230208   4.533   5.066  13.799 -0.2458  0.5642 -0.0105
 2906TIP3    H130209   4.553   5.066  13.892  1.8297  1.2792 -0.4101
 2906TIP3    H230210   4.537   5.158  13.773  0.1799  0.2909 -0.9786
 2907TIP3   OH230211   1.985   3.258   5.752  0.5517  0.2136 -0.2452
 2907TIP3    H130212   1.989   3.245   5.658  1.4857  0.3144 -0.2307
 2907TIP3    H230213   2.075   3.278   5.777  0.5258 -0.8997  0.8287
 2908TIP3   OH230214   2.424   1.776  11.524  0.0384 -0.4439 -0.4261
 2908TIP3    H130215   2.496   1.721  11.495  1.5231  0.2943  1.6424
 2908TIP3    H230216   2.459   1.866  11.521 -1.0488  0.0107 -0.0808
 2909TIP3   OH230217   5.121   0.604   5.959  0.3119  0.2901  0.1809
 2909TIP3    H130218   5.091   0.516   5.980 -0.3360  0.6570  0.8272
 2909TIP3    H230219   5.049   0.644   5.911 -0.1203  1.0483  1.4162
 2910TIP3   OH230220   0.897   0.898  10.967 -0.0091  0.8396 -0.2959
 2910TIP3    H130221   0.973   0.949  10.995  0.2902  1.3416 -1.9084
 2910TIP3    H230222   0.863   0.945  10.891 -0.5609 -0.6204 -0.9946
 2911TIP3   OH230223   0.735   4.471  15.322  0.1083 -0.1949  0.0494
 2911TIP3    H130224   0.722   4.523  15.243  0.1448  3.0553  1.9990
 2911TIP3    H230225   0.823   4.435  15.313 -0.2211 -0.6467 -1.7496
 2912TIP3   OH230226   5.924   5.980  15.888  0.6221  0.0370 -0.6427
 2912TIP3    H130227   5.975   6.035  15.828  1.8730  0.7904  1.0462
 2912TIP3    H230228   5.886   6.041  15.951 -0.5509 -0.7500 -0.5467
 2913TIP3   OH230229   2.230   0.416  11.165 -0.4252  0.3800  0.6546
 2913TIP3    H130230   2.195   0.505  11.163  0.2714  0.7806  3.1892
 2913TIP3    H230231   2.205   0.379  11.080  0.6653  3.4738 -1.1925
 2914TIP3   OH230232   0.182   3.690  17.050  0.6135 -0.4894  0.2810
 2914TIP3    H130233   0.112   3.626  17.045  0.6497 -0.5096  0.0353
 2914TIP3    H230234   0.154   3.762  16.994  0.0224  0.2466  1.4617
 2915TIP3   OH230235   0.533   5.583   6.504 -0.0713 -0.2974  0.0940
 2915TIP3    H130236   0.506   5.567   6.595 -0.7457  3.3560  0.6890
 2915TIP3    H230237   0.626   5.603   6.510 -0.0995 -0.1307 -0.0326
 2916TIP3   OH230238   6.322   2.355   1.428  0.2267  0.6675 -0.0375
 2916TIP3    H130239   6.396   2.416   1.426 -0.4169  1.4816  0.0235
 2916TIP3    H230240   6.245   2.412   1.433 -0.3343 -0.1745  1.8391
 2917TIP3   OH230241   5.717   2.871   6.397 -0.6641 -0.2820 -0.4463
 2917TIP3    H130242   5.746   2.962   6.408  4.0480 -1.1609 -2.9773
 2917TIP3    H230243   5.656   2.874   6.322 -1.4504  0.8343  0.2051
 2918TIP3   OH230244   2.423   1.979  11.830 -0.1225 -0.5001 -0.1576
 2918TIP3    H130245   2.371   1.899  11.823 -3.7504  1.5631  0.3776
 2918TIP3    H230246   2.423   2.016  11.742  1.1394 -0.8231 -0.3069
 2919TIP3   OH230247   5.744   5.933   1.284 -0.6925  0.1236 -0.2761
 2919TIP3    H130248   5.695   5.856   1.314  0.0693 -0.6121 -0.8607
 2919TIP3    H230249   5.831   5.921   1.321  0.6628 -1.4131 -3.5551
 2920TIP3   OH230250   5.936   0.286  10.655  0.3910 -0.3756  0.3716
 2920TIP3    H130251   5.976   0.214  10.705 -0.4719 -0.2098  1.3339
 2920TIP3    H230252   5.976   0.365  10.691 -1.0171 -0.1784  1.6247
 2921TIP3   OH230253   5.071   5.897  16.150  0.4869 -0.2889 -0.3935
 2921TIP3    H130254   5.165   5.901  16.167  0.4802 -1.9760  0.1844
 2921TIP3    H230255   5.032   5.879  16.236 -0.4894  1.3560 -0.4338
 2922TIP3   OH230256   6.296   3.937  16.021  0.3574  0.0729 -0.2333
 2922TIP3    H130257   6.261   4.025  16.040 -2.9242 -1.3301  1.0351
 2922TIP3    H230258   6.281   3.926  15.927  1.6056  1.1245 -0.5889
 2923TIP3   OH230259   3.489   2.950  14.724 -0.3040 -0.2485 -0.5285
 2923TIP3    H130260   3.546   2.990  14.790 -0.7716 -1.6364  0.7549
 2923TIP3    H230261   3.472   3.020  14.662 -0.0784  1.1777  0.9670
 2924TIP3   OH230262   2.626   5.337   5.002 -0.3109 -0.2186 -0.1262
 2924TIP3    H130263   2.587   5.424   4.993 -1.6538 -0.4874  2.2003
 2924TIP3    H230264   2.654   5.334   5.094 -0.7844 -2.4271 -0.0220
 2925TIP3   OH230265   6.375   5.588   3.863  0.4546  0.1019 -0.2692
 2925TIP3    H130266   6.297   5.533   3.862 -1.0303  2.1207 -1.2189
 2925TIP3    H230267   6.445   5.528   3.891 -1.2208 -1.9939 -0.2441
 2926TIP3   OH230268   3.325   5.842   2.625 -0.2150 -0.1955 -0.2076
 2926TIP3    H130269   3.278   5.878   2.550 -0.5169 -1.2416 -0.5495
 2926TIP3    H230270   3.268   5.772   2.657 -0.0069  0.1358  0.8998
 2927TIP3   OH230271   5.105   3.784   2.999 -0.0599 -0.3687 -0.3855
 2927TIP3    H130272   5.178   3.810   3.055 -1.3842 -0.2948  1.4040
 2927TIP3    H230273   5.146   3.741   2.924  1.8022 -0.7762  0.7935
 2928TIP3   OH230274   6.610   1.336  10.456  0.1817  0.8364 -0.2085
 2928TIP3    H130275   6.705   1.333  10.469  0.1769  1.9614  0.2396
 2928TIP3    H230276   6.597   1.414  10.401 -0.4847  0.7142 -0.2216
 2929TIP3   OH230277   3.314   5.896   3.183  0.3427 -0.1242 -0.0239
 2929TIP3    H130278   3.261   5.935   3.253  1.4035 -0.3701  0.9438
 2929TIP3    H230279   3.274   5.928   3.102 -1.4983 -0.5807  0.6463
 2930TIP3   OH230280   3.325   0.661   4.657 -0.0958  0.5506 -0.0452
 2930TIP3    H130281   3.326   0.755   4.642  2.1725  0.1456 -3.4478
 2930TIP3    H230282   3.352   0.651   4.748  0.0117  3.1549  0.2702
 2931TIP3   OH230283   5.481   3.301   1.821  0.5315  0.1102  0.0961
 2931TIP3    H130284   5.532   3.341   1.891  1.5095 -2.8699  1.2586
 2931TIP3    H230285   5.390   3.321   1.843  0.8503 -0.2485  1.9459
 2932TIP3   OH230286   4.538   0.864   0.576  0.2838  0.5820 -0.4984
 2932TIP3    H130287   4.588   0.813   0.513  0.5839  0.9709 -0.5785
 2932TIP3    H230288   4.484   0.922   0.522  0.0861  0.4866 -0.4054
 2933TIP3   OH230289   3.409   4.388   3.875 -1.0970  0.2952 -0.2478
 2933TIP3    H130290   3.445   4.336   3.946 -0.1329  0.1208 -0.8450
 2933TIP3    H230291   3.446   4.349   3.795 -0.7483  1.5513 -0.7341
 2934TIP3   OH230292   0.989   3.897   2.139  0.1174 -0.5299 -0.4740
 2934TIP3    H130293   1.027   3.917   2.053 -1.0557 -0.0490 -0.8990
 2934TIP3    H230294   1.052   3.933   2.201  0.9885 -0.8866 -1.1233
 2935TIP3   OH230295   4.740   0.221  14.116  0.5590  0.2713  0.0193
 2935TIP3    H130296   4.793   0.151  14.077 -2.9096 -2.1110 -0.8855
 2935TIP3    H230297   4.724   0.191  14.206 -0.6988 -0.0215 -0.2845
 2936TIP3   OH230298   4.991   5.424   5.810  0.4531  0.0938 -0.2352
 2936TIP3    H130299   5.049   5.446   5.736  0.5765  0.2986 -0.0797
 2936TIP3    H230300   5.019   5.483   5.880  1.4805 -1.2234  0.5254
 2937TIP3   OH230301   4.489   4.615   0.407 -0.0409  0.3832 -0.3148
 2937TIP3    H130302   4.481   4.703   0.445  1.4354  0.2518  0.3639
 2937TIP3    H230303   4.519   4.561   0.480 -2.0286 -0.9713 -0.4140
 2938TIP3   OH230304   0.003   2.659  12.933  0.2789  0.4309 -0.5300
 2938TIP3    H130305   0.047   2.743  12.947  0.0265  0.5731 -0.5829
 2938TIP3    H230306  -0.056   2.675  12.860  0.1609  0.2315 -0.4784
 2939TIP3   OH230307   0.058   6.381   2.132 -0.7102  0.3953  0.3585
 2939TIP3    H130308   0.077   6.298   2.089 -1.7873  0.7022 -0.7770
 2939TIP3    H230309  -0.037   6.379   2.146 -0.8776  1.7571 -0.4316
 2940TIP3   OH230310   0.719   5.262   2.244  1.0280 -0.3242 -0.1643
 2940TIP3    H130311   0.760   5.239   2.327 -0.2516 -0.9792  0.3200
 2940TIP3    H230312   0.634   5.298   2.268  0.2190 -1.4492 -1.1991
 2941TIP3   OH230313   1.123   2.812  16.886  0.0866  0.6646 -0.2341
 2941TIP3    H130314   1.201   2.757  16.881 -1.4464 -2.1122  2.5813
 2941TIP3    H230315   1.062   2.772  16.823  0.0031  1.1723 -0.4814
 2942TIP3   OH230316   0.733   5.102   0.288 -0.8869 -0.7946 -0.2481
 2942TIP3    H130317   0.657   5.045   0.280 -1.7049  0.4383 -1.8030
 2942TIP3    H230318   0.707   5.167   0.354 -1.4970  0.0188 -1.2495
 2943TIP3   OH230319   0.899   4.385  12.072  0.7070  0.6859 -0.1161
 2943TIP3    H130320   0.959   4.337  12.129  1.7512  1.5733 -0.4415
 2943TIP3    H230321   0.889   4.330  11.995  1.1643  0.5608 -0.0886
 2944TIP3   OH230322   5.365   4.457  15.648  0.4631  0.0445  0.4727
 2944TIP3    H130323   5.373   4.463  15.553 -0.9387 -0.0145  0.3267
 2944TIP3    H230324   5.450   4.486  15.681  0.0828  2.8169 -0.7272
 2945TIP3   OH230325   0.955   3.147  14.033  0.1687 -0.3375  0.0202
 2945TIP3    H130326   0.897   3.098  13.973 -0.1843  0.2518 -0.1232
 2945TIP3    H230327   0.928   3.119  14.120  1.5240 -2.1672 -0.0898
 2946TIP3   OH230328   0.122   6.727  15.656  0.6067 -0.5257 -0.1546
 2946TIP3    H130329   0.196   6.787  15.660 -0.5268  0.8975  0.6505
 2946TIP3    H230330   0.046   6.784  15.646 -0.6051 -1.7279  1.5335
 2947TIP3   OH230331   3.618   6.440   3.407 -0.3558 -0.1264  0.0566
 2947TIP3    H130332   3.682   6.512   3.405  0.9066 -0.9581  3.3079
 2947TIP3    H230333   3.657   6.371   3.353  0.2524  0.2991 -0.0585
 2948TIP3   OH230334   0.522   6.385  14.418  0.1030 -0.0226  0.4586
 2948TIP3    H130335   0.459   6.317  14.395  0.3270  0.1784 -0.8040
 2948TIP3    H230336   0.469   6.462  14.436 -0.0288  0.1384 -0.5694
 2949TIP3   OH230337   2.290   6.566  13.683  0.4954  0.0444 -0.4086
 2949TIP3    H130338   2.298   6.593  13.774  1.7364 -0.5853 -0.3069
 2949TIP3    H230339   2.345   6.629  13.635  1.6604 -0.9362 -0.4233
 2950TIP3   OH230340   6.735   1.575  12.070  0.2347 -0.3876 -0.1602
 2950TIP3    H130341   6.731   1.668  12.095 -1.9143 -0.2101 -0.8994
 2950TIP3    H230342   6.659   1.536  12.113  0.1480 -1.4227 -1.2207
 2951TIP3   OH230343   2.919   4.407  17.059 -0.0105 -0.4282 -0.1329
 2951TIP3    H130344   2.907   4.501  17.041  0.3123 -0.2177  0.7089
 2951TIP3    H230345   2.892   4.397  17.150  1.5653 -0.8391  0.3077
 2952TIP3   OH230346   4.955   0.778   4.553  0.0021 -0.2231  0.3610
 2952TIP3    H130347   4.898   0.797   4.628 -1.6897  2.1343 -1.3708
 2952TIP3    H230348   4.899   0.729   4.493  0.7834 -0.5219 -0.1325
 2953TIP3   OH230349   5.011   6.831  14.155  0.4039 -0.4749  0.3476
 2953TIP3    H130350   4.948   6.812  14.225 -0.4346 -1.8767 -0.7380
 2953TIP3    H230351   4.958   6.840  14.076  1.5486 -2.4363 -0.7397
 2954TIP3   OH230352   4.220   6.662   3.344  0.3020  0.2238 -0.4559
 2954TIP3    H130353   4.226   6.567   3.335  1.3757  0.0491  1.5514
 2954TIP3    H230354   4.165   6.689   3.271  0.6908 -1.8346 -1.5975
 2955TIP3   OH230355   3.860   6.228   4.101  0.4728  0.6241  0.1038
 2955TIP3    H130356   3.820   6.160   4.157  1.1626 -0.3324 -0.5399
 2955TIP3    H230357   3.861   6.189   4.014  0.0692  1.8282 -0.4574
 2956TIP3   OH230358   4.895   5.190   4.849  0.4061 -0.0171 -0.6368
 2956TIP3    H130359   4.918   5.246   4.923 -1.5225 -0.2826  0.2136
 2956TIP3    H230360   4.899   5.248   4.773  0.0402  0.8736  0.0054
 2957TIP3   OH230361   3.929   2.636   2.649 -0.2477  0.2151 -0.3176
 2957TIP3    H130362   3.934   2.715   2.595  0.3617 -0.6470 -1.5680
 2957TIP3    H230363   4.018   2.623   2.681  0.4642 -1.6985 -2.7611
 2958TIP3   OH230364   3.439   5.450   5.314  0.5129 -0.2106  0.0652
 2958TIP3    H130365   3.461   5.446   5.407  0.1160  1.3143  0.2496
 2958TIP3    H230366   3.374   5.381   5.302  0.3748 -0.2520  0.9781
 2959TIP3   OH230367   0.861   1.161   3.886  0.4332 -0.5352 -0.0701
 2959TIP3    H130368   0.867   1.114   3.802  1.3254  0.2261 -0.4505
 2959TIP3    H230369   0.927   1.119   3.941  1.6044  0.5575 -0.5805
 2960TIP3   OH230370   5.894   2.202   2.199 -0.0689  0.5810 -0.4981
 2960TIP3    H130371   5.923   2.281   2.245 -0.9879  1.1885 -0.9421
 2960TIP3    H230372   5.858   2.146   2.268  0.6746  0.4936 -0.1702
 2961TIP3   OH230373   1.969   3.641   2.429 -0.1531  0.5211 -1.2528
 2961TIP3    H130374   2.053   3.639   2.385 -0.7030  0.5431 -2.3241
 2961TIP3    H230375   1.915   3.577   2.383 -0.3259 -0.5001  0.2824
 2962TIP3   OH230376   3.139   0.858   0.082 -0.2768  0.6053  0.7241
 2962TIP3    H130377   3.098   0.772   0.086  0.5836  0.0141 -1.5419
 2962TIP3    H230378   3.067   0.918   0.060 -0.5637  0.1757  0.4833
 2963TIP3   OH230379   3.597   0.017   4.200  0.2578 -0.3753 -0.5384
 2963TIP3    H130380   3.556  -0.011   4.282  0.4017  0.6733 -0.1009
 2963TIP3    H230381   3.643   0.098   4.222 -0.8123  0.6579 -1.9441
 2964TIP3   OH230382   1.229   3.241  13.996  0.0672  0.1371  1.1134
 2964TIP3    H130383   1.142   3.219  14.029  0.1027  1.1343  1.9405
 2964TIP3    H230384   1.213   3.282  13.911 -0.0492 -2.1794 -0.0587
 2965TIP3   OH230385   1.173   6.660   4.441  0.2898  0.2633  0.0418
 2965TIP3    H130386   1.209   6.573   4.427  0.6938  0.6999 -1.8353
 2965TIP3    H230387   1.096   6.645   4.496 -0.1663 -1.3881 -0.9824
 2966TIP3   OH230388   0.745   3.565  11.036  0.5715  0.1275  0.2997
 2966TIP3    H130389   0.771   3.608  10.955 -2.6259  3.2444  0.6959
 2966TIP3    H230390   0.725   3.637  11.096 -1.3251 -2.0075  2.4295
 2967TIP3   OH230391   0.484   3.398  16.220  0.0338  0.3338  0.2843
 2967TIP3    H130392   0.469   3.471  16.280 -1.0270  1.0098 -0.7744
 2967TIP3    H230393   0.408   3.341  16.231  0.1832  0.0922  0.0905
 2968TIP3   OH230394   2.325   4.458  14.336 -0.6744 -0.5439 -0.0934
 2968TIP3    H130395   2.333   4.524  14.267 -0.6636 -0.5430 -0.0913
 2968TIP3    H230396   2.415   4.432  14.355 -0.3427  1.7612  2.1393
 2969TIP3   OH230397   2.167   3.880   2.541  0.3513  0.3477  0.7723
 2969TIP3    H130398   2.155   3.817   2.470  1.0743 -0.2730  1.1888
 2969TIP3    H230399   2.211   3.954   2.500  1.4928 -0.3389  0.7147
 2970TIP3   OH230400   0.765   6.452   4.442  0.2450  0.3858  0.4858
 2970TIP3    H130401   0.854   6.437   4.410 -0.0048 -0.4752  0.1588
 2970TIP3    H230402   0.765   6.417   4.531  0.5053  1.3438  0.8823
 2971TIP3   OH230403   2.135   3.687   6.009  0.0037  0.6438 -0.0896
 2971TIP3    H130404   2.120   3.765   6.062 -1.0553  0.4787 -0.1208
 2971TIP3    H230405   2.140   3.616   6.072 -0.1031  0.5985 -0.1325
 2972TIP3   OH230406   4.708   6.438   6.243  0.0263  0.0747  0.5872
 2972TIP3    H130407   4.628   6.488   6.260  0.6919  0.9130  1.3620
 2972TIP3    H230408   4.746   6.423   6.329  0.4327 -0.7894  0.2685
 2973TIP3   OH230409   2.591   4.352   2.735 -0.0193 -0.1517 -0.1977
 2973TIP3    H130410   2.630   4.434   2.765  2.0088 -0.9179 -0.5870
 2973TIP3    H230411   2.557   4.311   2.814 -1.0803  1.0227  0.0017
 2974TIP3   OH230412   1.117   0.312  16.289  0.2264 -0.4965  0.3560
 2974TIP3    H130413   1.145   0.276  16.374  0.5781 -1.3399 -0.1066
 2974TIP3    H230414   1.191   0.296  16.231 -0.6543 -1.4315 -0.5282
 2975TIP3   OH230415   3.287   1.297   6.536 -0.5242  0.5126  0.3222
 2975TIP3    H130416   3.256   1.320   6.448 -2.0180 -1.3913  0.2717
 2975TIP3    H230417   3.213   1.250   6.575  1.1885 -1.4366  1.4318
 2976TIP3   OH230418   4.054   0.705  15.949  0.6452  0.7290 -0.4346
 2976TIP3    H130419   4.002   0.715  15.869 -0.7225  0.0090  0.3080
 2976TIP3    H230420   4.027   0.778  16.004  0.4652  0.3961 -0.0731
 2977TIP3   OH230421   1.515   4.083  16.966  0.2792 -0.3300 -0.6308
 2977TIP3    H130422   1.480   4.166  16.997  0.6909 -0.7639  1.1133
 2977TIP3    H230423   1.609   4.089  16.982  0.3574 -1.0066 -0.8009
 2978TIP3   OH230424   3.212   0.127   0.520  0.6209  0.3261 -0.0333
 2978TIP3    H130425   3.137   0.089   0.566  0.4428  0.8072  0.0831
 2978TIP3    H230426   3.276   0.144   0.589  0.8541 -0.1136 -0.1369
 2979TIP3   OH230427   0.149   5.160  14.012 -0.1070  0.1579  0.4544
 2979TIP3    H130428   0.081   5.222  14.038  0.9169  0.5686  2.3913
 2979TIP3    H230429   0.218   5.172  14.077  0.9337 -1.7044 -0.2216
 2980TIP3   OH230430   6.235   4.838   4.309 -0.5549 -0.2189 -0.2589
 2980TIP3    H130431   6.166   4.772   4.315 -0.8613  0.0069 -1.2273
 2980TIP3    H230432   6.195   4.918   4.343  0.0447 -0.6639  1.6311
 2981TIP3   OH230433   2.101   5.086  11.699 -0.1566 -0.2781  0.1649
 2981TIP3    H130434   2.164   5.054  11.763 -0.3343 -0.8819  0.0477
 2981TIP3    H230435   2.130   5.050  11.615  0.5284  1.1667 -0.2374
 2982TIP3   OH230436   4.132   5.994   2.743 -0.1246 -0.2220 -0.6509
 2982TIP3    H130437   4.187   6.033   2.675 -0.3942  0.1046 -0.6855
 2982TIP3    H230438   4.071   5.938   2.695 -0.3544  0.0554 -0.6870
 2983TIP3   OH230439   3.193   0.310  10.856 -0.5073  0.1851  0.4790
 2983TIP3    H130440   3.199   0.380  10.791  2.0305  1.2576  1.7326
 2983TIP3    H230441   3.270   0.256  10.840  0.8905  1.1791  3.2258
 2984TIP3   OH230442   6.514   3.930   1.392  0.0046 -0.1038 -0.4208
 2984TIP3    H130443   6.568   3.855   1.413  0.4103  0.8358  2.2522
 2984TIP3    H230444   6.536   3.996   1.458 -2.6340  1.1937 -0.6729
 2985TIP3   OH230445   4.335   3.042   2.721 -0.0947 -0.2530  0.3853
 2985TIP3    H130446   4.418   3.091   2.718 -0.0336 -0.3666 -2.3605
 2985TIP3    H230447   4.269   3.106   2.694 -0.3383 -1.0604 -1.0228
 2986TIP3   OH230448   0.360   2.621   3.101 -0.1915  0.1984 -0.1082
 2986TIP3    H130449   0.435   2.620   3.161 -0.6504  0.1921  0.4849
 2986TIP3    H230450   0.390   2.669   3.024  0.2767  0.5854  0.3117
 2987TIP3   OH230451   6.511   3.919   5.961  0.0549 -0.1967  0.6178
 2987TIP3    H130452   6.421   3.917   5.929 -0.0218  0.9171  0.7173
 2987TIP3    H230453   6.507   3.875   6.046 -0.0166 -1.8480 -0.1974
 2988TIP3   OH230454   1.300   0.979   5.596  0.3976 -0.1820 -0.3810
 2988TIP3    H130455   1.364   0.990   5.667 -0.3168  0.1377  0.2268
 2988TIP3    H230456   1.338   0.911   5.540  1.2700  0.0013 -0.0352
 2989TIP3   OH230457   1.457   3.284   3.960  0.2311 -0.4970 -0.1267
 2989TIP3    H130458   1.498   3.301   3.875  1.9839 -3.0783  0.0894
 2989TIP3    H230459   1.517   3.323   4.023  0.0053 -0.3762  0.0126
 2990TIP3   OH230460   0.470   4.936  11.209  0.1060 -0.3149  0.2806
 2990TIP3    H130461   0.407   5.007  11.194  0.2895 -0.1945  0.0738
 2990TIP3    H230462   0.451   4.873  11.139 -0.1025 -0.5051  0.5047
 2991TIP3   OH230463   5.203   2.624  13.229 -0.0450 -0.2622 -0.2601
 2991TIP3    H130464   5.218   2.577  13.312  0.9902 -1.1884 -0.9426
 2991TIP3    H230465   5.283   2.610  13.179 -0.5702  0.4700 -1.3428
 2992TIP3   OH230466   2.951   1.907   5.514 -0.3008 -0.1632  0.1023
 2992TIP3    H130467   2.921   1.914   5.605  1.9002  0.0675  0.8551
 2992TIP3    H230468   2.882   1.855   5.471 -2.0059  0.7645  1.5630
 2993TIP3   OH230469   2.426   1.901   0.271 -0.2798  0.0998 -0.1358
 2993TIP3    H130470   2.350   1.845   0.255 -0.3323 -0.7846  2.5906
 2993TIP3    H230471   2.388   1.985   0.299 -0.1850  1.0778 -2.6600
 2994TIP3   OH230472   1.999   1.673  13.625  0.4300  0.7239 -0.4861
 2994TIP3    H130473   1.910   1.649  13.650  0.9886 -2.0723 -0.7796
 2994TIP3    H230474   1.989   1.715  13.539 -0.5831  0.0287 -0.7297
 2995TIP3   OH230475   2.059   4.469   0.179 -0.6815  0.1452  0.3788
 2995TIP3    H130476   2.082   4.419   0.100  1.4448 -0.7873  1.5067
 2995TIP3    H230477   2.104   4.553   0.168 -0.3880  0.0164  0.5967
 2996TIP3   OH230478   3.189   0.375   1.126 -0.3408 -0.1488 -0.2673
 2996TIP3    H130479   3.222   0.436   1.060 -0.3542  1.2746  1.0057
 2996TIP3    H230480   3.264   0.357   1.182 -0.5375 -0.7038 -0.1738
 2997TIP3   OH230481   0.839   3.151   5.374 -0.2143 -0.0854  0.0988
 2997TIP3    H130482   0.930   3.179   5.381 -0.9223  2.4051  0.1753
 2997TIP3    H230483   0.827   3.133   5.280 -0.1227  1.5218 -0.2507
 2998TIP3   OH230484   0.851   1.018  12.796  0.5058  0.0043 -0.0820
 2998TIP3    H130485   0.884   1.107  12.785  1.3428 -0.2748  0.1203
 2998TIP3    H230486   0.922   0.970  12.838 -1.1150  0.0346  2.9817
 2999TIP3   OH230487   1.658   1.851  15.951 -0.0531 -0.1378 -0.0673
 2999TIP3    H130488   1.569   1.885  15.963 -0.4640 -1.0533 -0.4547
 2999TIP3    H230489   1.706   1.924  15.911 -0.8842  0.0428 -0.7744
 3000TIP3   OH230490   5.478   6.290  12.210  0.0502  0.7242  0.2937
 3000TIP3    H130491   5.486   6.363  12.148 -0.9235  0.5690 -0.0236
 3000TIP3    H230492   5.465   6.213  12.155  4.2781 -0.3263  0.3995
 3001TIP3   OH230493   5.811   1.623  14.521 -0.6275  0.7061  0.5585
 3001TIP3    H130494   5.765   1.704  14.541  1.7543  1.7460  2.3528
 3001TIP3    H230495   5.830   1.584  14.607  2.4369  0.7810  0.0208
 3002TIP3   OH230496   2.229   1.016   0.762 -0.2428  0.1119 -0.3304
 3002TIP3    H130497   2.294   1.038   0.695 -0.0341  0.1602 -0.1112
 3002TIP3    H230498   2.147   1.008   0.713  0.0444 -0.6224 -0.7112
 3003TIP3   OH230499   5.889   2.724   0.420  0.1195  0.4238 -0.0560
 3003TIP3    H130500   5.906   2.814   0.448  2.4399  0.5966 -1.8435
 3003TIP3    H230501   5.842   2.733   0.337  1.3042  0.0282 -0.7853
 3004TIP3   OH230502   5.607   3.596  11.607 -0.4766  0.4797 -0.0628
 3004TIP3    H130503   5.681   3.654  11.591 -0.5393  0.9151  1.1153
 3004TIP3    H230504   5.631   3.548  11.687  0.5441 -2.7471 -2.1081
 3005TIP3   OH230505   4.446   4.111  12.389  0.2843  0.7559  0.4245
 3005TIP3    H130506   4.503   4.167  12.442  2.3940 -0.7603 -0.1250
 3005TIP3    H230507   4.415   4.169  12.319  0.1664  1.9096  1.3931
 3006TIP3   OH230508   1.571   3.961  14.398 -0.0868 -0.5077  0.2145
 3006TIP3    H130509   1.519   3.892  14.440  1.2226 -1.8657 -0.3009
 3006TIP3    H230510   1.648   3.970  14.454  0.7034 -0.8988 -0.7739
 3007TIP3   OH230511   0.312   0.306  12.567 -0.1832  0.3130 -0.3744
 3007TIP3    H130512   0.295   0.297  12.661 -0.9490 -1.7594 -0.6554
 3007TIP3    H230513   0.402   0.339  12.562  0.0389  0.0166  1.0854
 3008TIP3   OH230514   3.603   0.344   3.330  0.6837  0.7091 -0.5368
 3008TIP3    H130515   3.631   0.259   3.296 -0.6299 -1.1928  2.7158
 3008TIP3    H230516   3.685   0.389   3.351  1.4692 -1.2072  0.8310
 3009TIP3   OH230517   5.649   5.940   0.712 -0.4916 -0.1287 -0.7508
 3009TIP3    H130518   5.587   5.973   0.776  0.4133 -0.9562  0.5926
 3009TIP3    H230519   5.709   5.885   0.762  1.5259  0.8742 -1.9354
 3010TIP3   OH230520   0.347   0.353  16.349 -0.2582  0.3282 -0.3385
 3010TIP3    H130521   0.438   0.363  16.320 -0.1016  2.6544  0.7482
 3010TIP3    H230522   0.295   0.381  16.274 -0.0879 -0.6116 -0.8202
 3011TIP3   OH230523   0.886   1.368   6.101  0.1000 -0.0902  0.0818
 3011TIP3    H130524   0.858   1.432   6.167 -1.3271 -1.0994  0.5135
 3011TIP3    H230525   0.902   1.288   6.151  1.7227 -0.1364 -0.4666
 3012TIP3   OH230526   6.312   1.764  11.481  0.0909  0.1377 -0.0077
 3012TIP3    H130527   6.269   1.782  11.564 -3.9928 -2.0140 -1.3797
 3012TIP3    H230528   6.323   1.668  11.479  0.3532  0.1627 -1.8095
 3013TIP3   OH230529   5.948   2.550   3.270  0.9195 -0.1024 -0.4250
 3013TIP3    H130530   5.947   2.645   3.283 -0.1211 -0.1643  0.0146
 3013TIP3    H230531   5.870   2.518   3.316  0.1286 -0.9487 -2.2769
 3014TIP3   OH230532   5.357   3.284   2.313 -0.3861  0.6823  0.7373
 3014TIP3    H130533   5.368   3.361   2.370 -1.3810  1.2835  0.1538
 3014TIP3    H230534   5.326   3.321   2.230 -0.9487 -0.3618  0.4708
 3015TIP3   OH230535   2.618   1.069  13.846 -0.2136 -0.0910  0.6133
 3015TIP3    H130536   2.560   1.045  13.918  0.2118 -1.1027  0.6286
 3015TIP3    H230537   2.705   1.043  13.875 -0.1797 -1.6630 -0.7526
 3016TIP3   OH230538   6.138   1.967  11.305 -0.4073 -0.3299  0.3312
 3016TIP3    H130539   6.048   1.949  11.330 -0.1074 -0.6281  1.2118
 3016TIP3    H230540   6.187   1.965  11.387  0.1624  1.3815  0.0827
 3017TIP3   OH230541   6.846   3.170  12.283  0.3055 -0.1238 -0.7081
 3017TIP3    H130542   6.865   3.124  12.202 -0.4591  0.5194 -1.2670
 3017TIP3    H230543   6.932   3.189  12.321  0.8422  1.8511 -2.6667
 3018TIP3   OH230544   5.864   5.389   5.300 -0.3773 -0.0059 -0.1666
 3018TIP3    H130545   5.953   5.378   5.265 -0.7480 -0.2377 -1.0548
 3018TIP3    H230546   5.828   5.463   5.252 -0.6454  0.1361  0.2489
 3019TIP3   OH230547   0.577   1.036  16.253 -0.1332 -0.5075 -0.1518
 3019TIP3    H130548   0.524   1.042  16.174 -0.2842 -0.0329 -0.0109
 3019TIP3    H230549   0.633   0.959  16.238  0.8950  0.4277 -1.3721
 3020TIP3   OH230550   3.457   4.454   2.112 -0.0933 -0.1427 -0.1243
 3020TIP3    H130551   3.526   4.511   2.147 -0.3968 -0.6645  1.3635
 3020TIP3    H230552   3.376   4.499   2.134 -0.2699  0.4977 -1.9228
 3021TIP3   OH230553   5.771   5.374  10.557  0.2266 -0.4939 -0.6302
 3021TIP3    H130554   5.789   5.457  10.601  1.4649 -0.8811 -0.3409
 3021TIP3    H230555   5.854   5.351  10.515 -0.0758 -1.6055 -0.6546
 3022TIP3   OH230556   5.653   3.235   4.627 -0.2279 -0.0401 -0.2094
 3022TIP3    H130557   5.683   3.313   4.672  1.1101 -0.8647  0.3867
 3022TIP3    H230558   5.686   3.244   4.537  2.2012 -1.0704  0.5086
 3023TIP3   OH230559   5.333   3.306  15.934  0.4724 -0.0317 -0.1804
 3023TIP3    H130560   5.376   3.353  15.862  0.0850 -1.0169 -1.0745
 3023TIP3    H230561   5.345   3.363  16.009  3.2475 -0.1936 -0.3943
 3024TIP3   OH230562   6.255   2.142   3.568 -0.5122  0.2129  0.3923
 3024TIP3    H130563   6.163   2.164   3.551 -0.5331  1.2868  1.7156
 3024TIP3    H230564   6.293   2.222   3.605  0.8754 -0.3166  0.1881
 3025TIP3   OH230565   6.388   4.719   1.000 -0.6723  0.3650 -0.2596
 3025TIP3    H130566   6.414   4.627   0.999  2.8256  1.2352 -0.4412
 3025TIP3    H230567   6.352   4.732   1.088 -0.6656 -1.0085 -0.0254
 3026TIP3   OH230568   1.572   5.233   0.751  0.5002  0.4612  0.0260
 3026TIP3    H130569   1.585   5.173   0.677 -1.7429  0.9770 -0.8646
 3026TIP3    H230570   1.523   5.182   0.815  2.9719 -0.1870  1.5390
 3027TIP3   OH230571   3.959   2.294   1.904  0.5341  0.5435  0.6647
 3027TIP3    H130572   4.017   2.223   1.876 -0.5197 -0.3753  0.7502
 3027TIP3    H230573   3.910   2.317   1.825 -1.0571 -0.7183  1.2309
 3028TIP3   OH230574   3.456   6.328  16.633  0.2526  0.2590  0.7063
 3028TIP3    H130575   3.490   6.240  16.643  3.0277  1.0077 -1.1210
 3028TIP3    H230576   3.397   6.323  16.557 -0.2222 -0.1419  1.0927
 3029TIP3   OH230577   6.117   2.534   1.363  0.3548 -0.6676  0.4650
 3029TIP3    H130578   6.102   2.628   1.367  1.3897 -0.4636 -0.2788
 3029TIP3    H230579   6.044   2.497   1.413 -1.3941  0.3970 -1.1518
 3030TIP3   OH230580   3.327   5.769  14.788  0.3310  0.5275 -0.4726
 3030TIP3    H130581   3.254   5.811  14.834 -0.6937 -1.1775 -0.4812
 3030TIP3    H230582   3.391   5.750  14.856 -0.1848  0.0816 -0.1050
 3031TIP3   OH230583   3.848   3.149   5.906 -0.1937  0.2204  0.3775
 3031TIP3    H130584   3.830   3.062   5.942 -2.5208  0.2957 -0.4539
 3031TIP3    H230585   3.762   3.186   5.887  0.7750  2.2752 -0.3518
 3032TIP3   OH230586   3.212   5.689   1.009 -0.4127  0.1768  0.3162
 3032TIP3    H130587   3.272   5.740   1.064 -0.7457  0.9519 -0.0266
 3032TIP3    H230588   3.240   5.708   0.920 -1.2264  0.6207  0.1505
 3033TIP3   OH230589   0.972   6.502  11.848  0.4538 -0.0834  0.3435
 3033TIP3    H130590   0.883   6.535  11.833  0.0352 -1.6049 -0.7269
 3033TIP3    H230591   1.029   6.574  11.821 -0.4388  0.5716  0.1584
 3034TIP3   OH230592   5.531   0.146   4.342 -0.2213  0.3725 -0.2246
 3034TIP3    H130593   5.613   0.187   4.370 -0.9723  1.4768  0.4547
 3034TIP3    H230594   5.504   0.091   4.416  0.3964 -0.7980 -0.8408
 3035TIP3   OH230595   1.362   5.683  10.692  0.2551 -0.1798  0.0632
 3035TIP3    H130596   1.373   5.708  10.600 -1.1263  0.4479  0.0445
 3035TIP3    H230597   1.323   5.760  10.733 -0.7082 -1.0378  0.8036
 3036TIP3   OH230598   0.933   5.005   1.127  0.0559  0.0942  0.5153
 3036TIP3    H130599   0.893   5.057   1.058  0.7088  0.5279  0.4496
 3036TIP3    H230600   1.016   4.974   1.089 -1.2663 -2.8326 -0.2240
 3037TIP3   OH230601   0.967   0.200   3.420  0.9616  0.5265 -0.5293
 3037TIP3    H130602   0.972   0.223   3.513 -1.1932  0.5288 -0.3681
 3037TIP3    H230603   0.989   0.106   3.418  0.2439  0.3263  0.1190
 3038TIP3   OH230604   3.222   1.310  12.513  0.3094  0.1922  0.6827
 3038TIP3    H130605   3.223   1.224  12.554 -1.3563 -0.2683 -0.1595
 3038TIP3    H230606   3.136   1.346  12.535 -0.9074 -0.2763 -2.6523
 3039TIP3   OH230607   6.289   4.605  16.261 -0.6370 -0.4918  0.0558
 3039TIP3    H130608   6.312   4.697  16.256  2.3051 -1.2070 -2.1565
 3039TIP3    H230609   6.237   4.588  16.183  0.3029 -0.9966 -0.4865
 3040TIP3   OH230610   1.461   5.853   0.410 -0.0974 -0.3996  0.1748
 3040TIP3    H130611   1.467   5.806   0.493 -0.7706  1.3660  1.2889
 3040TIP3    H230612   1.525   5.811   0.353  0.2869 -1.7372  1.5469
 3041TIP3   OH230613   2.993   0.813  16.810  0.4010 -0.9991  0.1378
 3041TIP3    H130614   2.907   0.823  16.851  2.0896 -0.1232  3.9303
 3041TIP3    H230615   3.023   0.727  16.840  2.0317  0.0208  1.6808
 3042TIP3   OH230616   4.002   3.947   0.523 -0.7188  0.1742 -0.2327
 3042TIP3    H130617   3.991   3.854   0.503 -0.8912  0.3463 -0.9463
 3042TIP3    H230618   4.064   3.979   0.457 -1.4955  0.8077 -0.6729
 3043TIP3   OH230619   6.341   6.011  15.590  0.2390  0.1703 -0.1896
 3043TIP3    H130620   6.410   5.970  15.537  0.4746 -0.7145  0.7554
 3043TIP3    H230621   6.354   6.105  15.578 -0.2007  0.0088 -2.2767
 3044TIP3   OH230622   5.214   6.096  15.478  0.6332  0.6823  0.1543
 3044TIP3    H130623   5.245   6.173  15.430  1.2398  0.0066 -0.5701
 3044TIP3    H230624   5.152   6.131  15.542  1.0429  1.7880 -0.0310
 3045TIP3   OH230625   3.661   6.589  12.925 -0.2628 -0.3550  0.3878
 3045TIP3    H130626   3.667   6.663  12.985  0.4128  1.2745 -1.5520
 3045TIP3    H230627   3.751   6.568  12.904 -0.4830 -0.1955 -0.8084
 3046TIP3   OH230628   0.517   3.024  12.697 -0.2175  0.1602 -0.5483
 3046TIP3    H130629   0.443   2.980  12.655 -1.2558  1.4152 -0.0967
 3046TIP3    H230630   0.513   2.995  12.789  0.2143 -0.2290 -0.6502
 3047TIP3   OH230631   4.498   0.015   5.523  0.2159  0.3104 -0.6301
 3047TIP3    H130632   4.528   0.103   5.545  0.3558  0.0590  0.2072
 3047TIP3    H230633   4.522   0.004   5.431 -1.1682  1.7132 -1.2172
 3048TIP3   OH230634   1.186   6.028   0.122 -0.1775  0.3013 -0.8766
 3048TIP3    H130635   1.216   5.970   0.192 -1.5873 -1.0612 -1.3439
 3048TIP3    H230636   1.214   5.985   0.041  1.8085  2.0760 -1.2058
 3049TIP3   OH230637   3.897   1.332  11.741 -0.3354  0.0835 -0.3864
 3049TIP3    H130638   3.847   1.281  11.805 -1.1560  2.1305  0.6938
 3049TIP3    H230639   3.831   1.367  11.681  0.5012 -2.5751 -3.0644
 3050TIP3   OH230640   2.181   2.376  15.792  0.2080  0.1078  0.4322
 3050TIP3    H130641   2.123   2.356  15.865 -2.0825 -2.9685 -1.9374
 3050TIP3    H230642   2.131   2.438  15.738 -0.7340 -1.9566 -1.2269
 3051TIP3   OH230643   0.220   5.782  13.414  0.1793 -0.3220  0.2374
 3051TIP3    H130644   0.183   5.847  13.354  0.4546 -0.6999 -0.3458
 3051TIP3    H230645   0.213   5.699  13.367  0.1671 -0.6635  0.8312
 3052TIP3   OH230646   6.025   0.205   4.843 -0.0580 -0.2362  0.0223
 3052TIP3    H130647   6.108   0.231   4.884 -1.0217  0.5800  1.5319
 3052TIP3    H230648   5.991   0.285   4.804  0.8477 -0.9859 -2.5864
 3053TIP3   OH230649   5.911   0.567  14.831  0.2445 -0.3127  0.4767
 3053TIP3    H130650   5.963   0.575  14.752 -1.5574 -1.3468 -0.8753
 3053TIP3    H230651   5.962   0.510  14.888  1.9720  1.1500  0.4762
 3054TIP3   OH230652   4.604   6.834   3.119 -0.1895  0.6139  0.7118
 3054TIP3    H130653   4.623   6.830   3.213  0.4268 -3.4414  0.5835
 3054TIP3    H230654   4.516   6.797   3.110 -0.1673  0.7721 -0.3189
 3055TIP3   OH230655   2.512   5.807  12.959  0.8249 -0.0526  0.6372
 3055TIP3    H130656   2.596   5.774  12.990  1.3203  1.3787  0.8862
 3055TIP3    H230657   2.447   5.759  13.009  1.4278 -2.0463 -0.4051
 3056TIP3   OH230658   0.344   6.116  14.022 -0.1066 -0.1532 -0.1640
 3056TIP3    H130659   0.268   6.094  14.076 -0.4734  0.3066 -0.4823
 3056TIP3    H230660   0.311   6.181  13.960  0.1743 -1.0504 -1.2839
 3057TIP3   OH230661   4.570   0.285  11.865 -0.0515  0.0102  0.6884
 3057TIP3    H130662   4.527   0.371  11.866  0.4983  0.3433 -0.7600
 3057TIP3    H230663   4.516   0.233  11.805 -1.1040 -1.0957  2.5206
 3058TIP3   OH230664   6.539   0.135  15.429  0.4194  0.5464 -0.1788
 3058TIP3    H130665   6.474   0.201  15.453  0.4230  0.1269  1.0456
 3058TIP3    H230666   6.504   0.095  15.349 -1.6848 -0.7562  1.2814
 3059TIP3   OH230667   1.562   5.154   1.941  0.2443  0.0232  0.5027
 3059TIP3    H130668   1.581   5.248   1.931 -1.3037  0.2631 -0.5720
 3059TIP3    H230669   1.630   5.111   1.890 -0.5209  0.7292 -1.2127
 3060TIP3   OH230670   3.258   4.152  11.604 -0.7475  0.5308  0.1901
 3060TIP3    H130671   3.241   4.082  11.542 -2.4056  0.3119  0.8260
 3060TIP3    H230672   3.284   4.108  11.684  0.4846  0.7730 -0.0556
 3061TIP3   OH230673   1.265   0.930  13.777 -0.3407 -0.6692  0.6156
 3061TIP3    H130674   1.251   1.022  13.754  1.4560  0.1373  2.4385
 3061TIP3    H230675   1.358   0.915  13.759 -0.3812 -1.8322  1.3130
 3062TIP3   OH230676   3.434   1.925   3.665 -0.0217  0.2779 -0.5728
 3062TIP3    H130677   3.482   2.004   3.640 -0.2252 -0.0745 -2.1514
 3062TIP3    H230678   3.488   1.853   3.632 -0.4827 -0.2014 -0.2884
 3063TIP3   OH230679   2.988   1.898  14.050  0.7035  0.1148 -0.3267
 3063TIP3    H130680   2.992   1.897  14.145 -0.0957 -1.0405 -0.2871
 3063TIP3    H230681   3.009   1.988  14.026  3.0155 -0.0370  0.8329
 3064TIP3   OH230682   2.423   2.710   5.489 -0.2751  0.0976  0.2356
 3064TIP3    H130683   2.353   2.758   5.535 -1.2163  0.2628 -1.2913
 3064TIP3    H230684   2.416   2.739   5.399  0.1926 -1.7176 -0.4233
 3065TIP3   OH230685   3.096   3.528   0.353  0.0223  0.5467  0.3240
 3065TIP3    H130686   3.004   3.533   0.378 -0.1552  2.5708 -0.5060
 3065TIP3    H230687   3.141   3.501   0.433 -1.2232  0.0813  0.9018
 3066TIP3   OH230688   3.022   6.090  13.888  0.1864  0.0302  0.0034
 3066TIP3    H130689   2.983   6.020  13.941 -1.2743 -0.9031 -2.1743
 3066TIP3    H230690   2.947   6.142  13.858  1.1180  1.5353  0.1621
 3067TIP3   OH230691   0.492   1.770   3.815 -0.0205 -0.2856 -0.2450
 3067TIP3    H130692   0.454   1.790   3.900  0.7380 -0.0088  0.0310
 3067TIP3    H230693   0.585   1.759   3.831  0.0461 -0.8644 -0.9351
 3068TIP3   OH230694   2.938   2.759   0.076  0.2424  0.2093 -0.3766
 3068TIP3    H130695   2.895   2.676   0.055 -0.2945 -0.2734  2.2795
 3068TIP3    H230696   2.883   2.797   0.145  0.8153  2.5189 -1.0945
 3069TIP3   OH230697   4.887   1.345   5.916  0.4057  0.4686 -0.2129
 3069TIP3    H130698   4.968   1.348   5.967 -0.3194  0.3118  0.9880
 3069TIP3    H230699   4.818   1.330   5.981 -0.6142  0.8041 -1.1798
 3070TIP3   OH230700   4.294   1.147  16.464  1.0015 -0.0417  0.3992
 3070TIP3    H130701   4.348   1.172  16.539  0.1987  0.3304  0.8699
 3070TIP3    H230702   4.225   1.214  16.460  1.8329  0.7700 -1.5565
 3071TIP3   OH230703   1.589   0.327  13.417  0.4028 -0.0948 -0.1314
 3071TIP3    H130704   1.589   0.422  13.427 -0.3650 -0.0739 -0.3243
 3071TIP3    H230705   1.636   0.295  13.494  0.5062  0.4260  0.0263
 3072TIP3   OH230706   0.503   0.438  12.137  0.1721 -0.7678 -0.1774
 3072TIP3    H130707   0.524   0.527  12.109 -0.7766 -0.0761  1.1841
 3072TIP3    H230708   0.580   0.410  12.186  1.1703 -1.3761 -2.0183
 3073TIP3   OH230709   3.698   0.216  16.362  0.6808 -0.3981 -0.8244
 3073TIP3    H130710   3.752   0.206  16.284  3.0000  2.3158  0.2696
 3073TIP3    H230711   3.640   0.289  16.341  1.6439  0.6626  0.1013
 3074TIP3   OH230712   5.016   3.847   2.201 -0.4129 -0.2208  0.3691
 3074TIP3    H130713   5.010   3.838   2.106 -0.0237  0.5793  0.2576
 3074TIP3    H230714   5.083   3.785   2.227 -0.3848 -0.3088  0.0940
 3075TIP3   OH230715   3.511   4.753  15.365  0.0179 -0.4847 -0.4326
 3075TIP3    H130716   3.523   4.742  15.271  0.5010 -0.2556 -0.3994
 3075TIP3    H230717   3.505   4.663  15.399 -0.6612 -0.5619 -0.7394
 3076TIP3   OH230718   4.528   3.581   2.813 -0.1946  0.2697  0.0269
 3076TIP3    H130719   4.434   3.593   2.808 -0.3643  0.7373  2.9393
 3076TIP3    H230720   4.555   3.624   2.894  2.7629  1.3248 -1.3359
 3077TIP3   OH230721   2.741   6.746  12.705  0.0357  0.1515  0.0110
 3077TIP3    H130722   2.810   6.775  12.646  0.5986 -1.5163 -0.2132
 3077TIP3    H230723   2.757   6.793  12.787  0.3338  1.1314 -0.5963
 3078TIP3   OH230724   3.017   2.775  16.456 -0.4064 -0.2400 -0.1565
 3078TIP3    H130725   3.054   2.859  16.430 -0.0541  0.5967  2.7300
 3078TIP3    H230726   2.940   2.764  16.400 -0.8642  2.3693 -0.1331
 3079TIP3   OH230727   6.027   5.687   2.890 -0.0515 -0.2799  0.5067
 3079TIP3    H130728   6.118   5.699   2.863  0.1117 -1.5272  0.4609
 3079TIP3    H230729   6.004   5.770   2.932  0.7918  0.4011 -0.3326
 3080TIP3   OH230730   0.892   0.421  14.597  0.1049  0.0350 -0.8645
 3080TIP3    H130731   0.833   0.452  14.528  0.1471 -2.2643 -2.0448
 3080TIP3    H230732   0.952   0.494  14.611 -1.1931  1.3404 -1.7511
 3081TIP3   OH230733   6.250   0.929   4.641 -0.3252  0.5175  0.0041
 3081TIP3    H130734   6.334   0.939   4.595  0.1910 -1.6983  0.3720
 3081TIP3    H230735   6.188   0.980   4.588  0.8858  0.7187 -1.2973
 3082TIP3   OH230736   6.277   4.437  15.380 -0.2031  0.4548  0.3529
 3082TIP3    H130737   6.231   4.508  15.335 -1.9410 -0.7584  0.0984
 3082TIP3    H230738   6.224   4.418  15.457  0.1447 -0.6395  0.3513
 3083TIP3   OH230739   4.171   1.118   4.974  0.3895  0.2676  0.0029
 3083TIP3    H130740   4.171   1.046   4.911  2.2879 -0.8759  1.2247
 3083TIP3    H230741   4.233   1.181   4.938  1.0124 -0.1051  0.4183
 3084TIP3   OH230742   2.017   2.970   3.086  0.1176 -0.3305  0.1660
 3084TIP3    H130743   2.015   2.996   2.994  0.2956  0.7481  0.4547
 3084TIP3    H230744   1.981   2.881   3.086 -1.0555  0.1104 -0.7806
 3085TIP3   OH230745   1.399   5.394  13.703  0.1002 -0.0283  0.2120
 3085TIP3    H130746   1.432   5.361  13.619  1.9252  2.3913 -0.1222
 3085TIP3    H230747   1.305   5.375  13.700  0.3227 -1.1575 -1.8124
 3086TIP3   OH230748   0.180   0.805   3.949  0.3380  0.0075 -0.3517
 3086TIP3    H130749   0.109   0.784   3.889 -0.1274  0.0312  0.1828
 3086TIP3    H230750   0.155   0.889   3.988  0.2886 -0.3418  0.3877
 3087TIP3   OH230751   0.347   5.963   1.268 -0.0275 -0.1438 -0.1421
 3087TIP3    H130752   0.341   6.049   1.310  2.1295 -0.2504  0.4694
 3087TIP3    H230753   0.279   5.911   1.310 -0.8739  1.0394 -0.0040
 3088TIP3   OH230754   0.524   4.445   4.980  0.1506 -0.0268 -0.6569
 3088TIP3    H130755   0.466   4.446   5.057 -1.3241 -2.3159 -1.6581
 3088TIP3    H230756   0.599   4.394   5.008 -1.0583 -2.1621 -1.0939
 3089TIP3   OH230757   0.323   1.812  15.531 -0.3227 -0.0281  0.0066
 3089TIP3    H130758   0.232   1.793  15.508 -0.9121  2.2560  0.1406
 3089TIP3    H230759   0.317   1.849  15.620  0.8307 -0.4889  0.2856
 3090TIP3   OH230760   4.483   2.722   1.491  0.2095 -0.3128  0.0509
 3090TIP3    H130761   4.562   2.774   1.484  0.4138 -0.5679  0.3860
 3090TIP3    H230762   4.412   2.785   1.503  0.4915 -0.1229  0.7510
 3091TIP3   OH230763   5.997   0.437  15.616  0.3725  0.5393 -0.4437
 3091TIP3    H130764   6.009   0.386  15.536 -1.1789  0.4387 -0.6518
 3091TIP3    H230765   6.074   0.418  15.669  1.5544  0.7923 -1.9935
 3092TIP3   OH230766   2.742   3.932  11.918  0.6244 -0.0844 -0.2330
 3092TIP3    H130767   2.677   3.883  11.969  0.5245 -0.3742 -0.6282
 3092TIP3    H230768   2.814   3.870  11.905 -0.4382 -0.9323 -2.6369
 3093TIP3   OH230769   5.950   0.109  16.003 -0.5561 -0.0199  0.4074
 3093TIP3    H130770   5.998   0.053  16.063 -1.8320  0.8696  2.3456
 3093TIP3    H230771   5.878   0.055  15.971 -0.5642 -0.1228  0.6022
 3094TIP3   OH230772   3.453   1.781   0.386 -0.2788  0.3426  0.2077
 3094TIP3    H130773   3.449   1.736   0.302  0.5211  1.5899 -0.5215
 3094TIP3    H230774   3.534   1.751   0.426 -0.7535 -0.3975  0.6402
 3095TIP3   OH230775   1.153   3.049  14.645  0.0691  0.0147 -0.5008
 3095TIP3    H130776   1.181   3.113  14.580  1.1192  1.8027  1.5813
 3095TIP3    H230777   1.204   2.971  14.625  1.4647  0.9963 -0.9491
 3096TIP3   OH230778   0.427   6.749  11.883  0.6631 -0.3614  0.2214
 3096TIP3    H130779   0.424   6.658  11.914 -0.9067 -0.5626 -0.4351
 3096TIP3    H230780   0.439   6.800  11.963  0.1125 -1.0658  0.7746
 3097TIP3   OH230781   6.684   3.428  12.011  0.8505 -0.0616  0.7902
 3097TIP3    H130782   6.613   3.388  11.961  1.5225 -0.8061  0.4105
 3097TIP3    H230783   6.677   3.521  11.993  1.2732 -0.3380 -0.9639
 3098TIP3   OH230784   2.910   4.228   5.052  0.4263  0.2834 -0.2401
 3098TIP3    H130785   2.922   4.155   5.114 -0.1358 -0.1632 -0.6508
 3098TIP3    H230786   2.825   4.211   5.011  1.2242  0.0338 -1.8622
 3099TIP3   OH230787   1.073   5.894   5.748  0.4030 -0.2299  0.2174
 3099TIP3    H130788   1.067   5.984   5.715 -0.3609 -0.8204 -1.3136
 3099TIP3    H230789   0.983   5.872   5.773  0.1050 -1.3812 -1.7049
 3100TIP3   OH230790   4.825   4.461   1.073 -0.2450  0.5110 -0.5882
 3100TIP3    H130791   4.812   4.413   0.991  1.7135  1.1208 -1.3283
 3100TIP3    H230792   4.897   4.521   1.054  0.4753  0.4658  1.6618
 3101TIP3   OH230793   5.807   0.848   0.585 -0.5717  0.1992 -0.6553
 3101TIP3    H130794   5.839   0.937   0.601  1.2474  0.0870 -3.0284
 3101TIP3    H230795   5.720   0.861   0.548 -0.1757  1.0779 -1.3483
 3102TIP3   OH230796   5.114   3.414   5.173  0.0527 -0.0908  0.3957
 3102TIP3    H130797   5.095   3.493   5.122  0.6921 -0.3875 -0.3158
 3102TIP3    H230798   5.099   3.440   5.264 -1.1631  0.4378  0.0732
 3103TIP3   OH230799   3.759   2.695  13.537  0.7872  0.4411  0.2116
 3103TIP3    H130800   3.809   2.624  13.497 -1.8260 -1.4321  0.0385
 3103TIP3    H230801   3.707   2.731  13.466 -0.7662 -0.0993  1.0265
 3104TIP3   OH230802   6.521   1.060   5.834 -0.4241  0.0595 -0.6057
 3104TIP3    H130803   6.437   1.061   5.879 -0.1485 -0.2723 -0.0680
 3104TIP3    H230804   6.515   0.986   5.774 -0.3840 -0.1865 -0.3075
 3105TIP3   OH230805   3.161   6.698   5.726  0.1783 -0.2680 -0.1100
 3105TIP3    H130806   3.239   6.749   5.702 -1.4163  2.0383 -0.8045
 3105TIP3    H230807   3.190   6.642   5.798  2.3341  0.9099  0.0282
 3106TIP3   OH230808   1.832   6.481   1.867  0.7208  0.3801 -0.1455
 3106TIP3    H130809   1.802   6.404   1.819  0.1291 -0.0970  0.9644
 3106TIP3    H230810   1.874   6.536   1.801 -1.1179  0.3052 -1.4390
 3107TIP3   OH230811   4.819   1.891   2.034  0.6829  0.0820  0.2197
 3107TIP3    H130812   4.784   1.864   2.119 -0.8113  2.5587  0.4655
 3107TIP3    H230813   4.892   1.949   2.055  1.3461 -0.5422 -0.2599
 3108TIP3   OH230814   4.642   2.521  11.721 -0.0995  0.0716 -0.1012
 3108TIP3    H130815   4.572   2.582  11.699  1.4883  1.7189 -0.8309
 3108TIP3    H230816   4.626   2.499  11.813 -1.9873 -0.2200 -0.4577
 3109TIP3   OH230817   5.984   5.274   5.674 -0.0506  0.1110  0.1951
 3109TIP3    H130818   5.963   5.359   5.637 -1.3261  0.1098  0.8657
 3109TIP3    H230819   5.956   5.280   5.765 -0.8911 -1.2802  0.0516
 3110TIP3   OH230820   0.625   4.005  13.832  0.0896 -0.4923  0.0477
 3110TIP3    H130821   0.622   3.910  13.845  1.8492 -0.4315  1.1032
 3110TIP3    H230822   0.585   4.041  13.911 -0.0889 -0.3291 -0.1155
 3111TIP3   OH230823   3.346   1.238   3.305  0.3254  0.6871 -0.2505
 3111TIP3    H130824   3.274   1.239   3.368 -0.7178  1.4611 -1.4023
 3111TIP3    H230825   3.316   1.178   3.236  0.0230  2.2783 -1.5471
 3112TIP3   OH230826   1.760   1.418   4.948  0.3994  0.9730 -0.1016
 3112TIP3    H130827   1.779   1.507   4.920  0.5981  1.1890  0.6823
 3112TIP3    H230828   1.846   1.380   4.968  0.2938  0.7035 -0.1494
 3113TIP3   OH230829   6.838   1.968  16.468  0.6987  0.1962  0.8734
 3113TIP3    H130830   6.835   2.042  16.527  1.6308  1.7590 -0.9448
 3113TIP3    H230831   6.755   1.973  16.419  1.0539  0.4693  0.2840
 3114TIP3   OH230832   0.302   5.853  12.571  0.2061  0.0616  0.2114
 3114TIP3    H130833   0.307   5.787  12.501  3.2061 -0.8974  1.1655
 3114TIP3    H230834   0.245   5.921  12.536 -1.8624 -2.3336 -1.4064
 3115TIP3   OH230835   2.921   6.568   2.792 -0.1789  0.1260 -0.1531
 3115TIP3    H130836   2.921   6.660   2.821 -0.2132  0.3011 -0.6985
 3115TIP3    H230837   2.893   6.572   2.700  1.4445 -0.2643 -0.7015
 3116TIP3   OH230838   0.560   6.129  12.308  0.3105 -0.1712  0.0717
 3116TIP3    H130839   0.480   6.124  12.256 -0.2826 -1.9479  1.0767
 3116TIP3    H230840   0.530   6.143  12.398  1.0402 -1.7229  0.5960
 3117TIP3   OH230841   1.105   6.295   0.210  0.3028 -0.4341  0.0513
 3117TIP3    H130842   1.065   6.315   0.295  0.5131  2.0458 -0.3627
 3117TIP3    H230843   1.073   6.207   0.189 -3.4082  0.6054  0.6101
 3118TIP3   OH230844   6.475   1.356   4.284  0.2387 -0.2345 -0.2840
 3118TIP3    H130845   6.488   1.399   4.369 -1.3116 -2.1904  1.0613
 3118TIP3    H230846   6.388   1.385   4.257 -1.2537 -3.0243  1.1132
 3119TIP3   OH230847   5.961   1.990  16.206  0.2260  0.1286  0.6649
 3119TIP3    H130848   6.002   2.042  16.137  1.3876 -0.4257  0.9077
 3119TIP3    H230849   6.012   2.010  16.284 -0.8911  0.5256  1.3191
 3120TIP3   OH230850   5.011   0.884   0.080 -0.1650 -0.3219  0.4572
 3120TIP3    H130851   5.057   0.867  -0.003 -1.4222  0.8335 -0.5236
 3120TIP3    H230852   4.919   0.893   0.054 -0.4109  1.4322  1.7809
 3121TIP3   OH230853   5.368   0.488  10.898 -0.3492 -0.4116 -0.0570
 3121TIP3    H130854   5.388   0.397  10.877 -0.3438  0.1808 -3.0598
 3121TIP3    H230855   5.455   0.529  10.908 -0.3380 -0.5307  0.3567
 3122TIP3   OH230856   0.077   3.314   0.305  0.0454  0.1512  0.7850
 3122TIP3    H130857   0.033   3.376   0.363  0.1777  3.5037 -2.3477
 3122TIP3    H230858   0.168   3.314   0.335  0.7544  4.0390 -0.8399
 3123TIP3   OH230859   6.621   6.301   5.175 -0.6236 -0.0130 -0.2230
 3123TIP3    H130860   6.573   6.362   5.231 -0.2918  1.1559 -1.1851
 3123TIP3    H230861   6.709   6.299   5.211 -0.6330  0.0676 -0.1972
 3124TIP3   OH230862   2.445   1.332   0.180 -0.2222 -0.2465 -0.5769
 3124TIP3    H130863   2.453   1.426   0.197  0.5524 -0.3918 -0.0679
 3124TIP3    H230864   2.390   1.326   0.102 -1.5899  0.5533  0.2918
 3125TIP3   OH230865   4.963   0.444  12.900 -0.5254 -0.1345 -0.1636
 3125TIP3    H130866   4.899   0.486  12.843 -1.6081 -0.0343  1.0661
 3125TIP3    H230867   4.994   0.369  12.850 -2.6320 -0.9844 -0.3041
 3126TIP3   OH230868   4.012   1.637   3.089 -0.1861  0.0728  0.5799
 3126TIP3    H130869   3.934   1.596   3.125 -0.2399  1.1887  1.8195
 3126TIP3    H230870   4.077   1.567   3.085 -2.1368 -1.8474 -3.9066
 3127TIP3   OH230871   6.741   3.029   0.307  0.4504  0.2699  0.0420
 3127TIP3    H130872   6.782   3.054   0.224  0.3803 -1.0174 -0.4023
 3127TIP3    H230873   6.812   3.029   0.370  1.2594 -2.1939 -0.7758
 3128TIP3   OH230874   2.477   6.849   2.359 -0.3158 -0.0617 -0.3643
 3128TIP3    H130875   2.430   6.930   2.381  0.8810  0.5647 -0.0439
 3128TIP3    H230876   2.455   6.833   2.268  0.0962  1.0961 -0.6843
 3129TIP3   OH230877   4.576   0.446   3.817 -0.2534  0.6084 -0.2388
 3129TIP3    H130878   4.491   0.486   3.834 -0.8913 -0.9339  0.3857
 3129TIP3    H230879   4.601   0.408   3.901  1.4618  1.7209 -0.1944
 3130TIP3   OH230880   0.180   2.803   3.865 -0.7428  0.0320  0.4743
 3130TIP3    H130881   0.119   2.743   3.908 -1.8611  0.8847  0.1457
 3130TIP3    H230882   0.133   2.887   3.864  1.8003  1.6927  3.3824
 3131TIP3   OH230883   0.523   6.359   6.130 -0.1158 -0.7190  0.1050
 3131TIP3    H130884   0.498   6.447   6.157  1.2164 -0.0096 -0.8717
 3131TIP3    H230885   0.612   6.349   6.164 -0.1687 -1.5968 -0.0039
 3132TIP3   OH230886   2.003   0.201  11.637  0.0014 -0.9576  0.2116
 3132TIP3    H130887   2.004   0.162  11.550  0.6326  2.3827 -1.4845
 3132TIP3    H230888   2.085   0.171  11.678  0.0436 -2.0196 -0.6120
 3133TIP3   OH230889   3.802   3.812  17.078  0.2524 -0.0274  0.0765
 3133TIP3    H130890   3.841   3.738  17.031 -0.0233  0.9742 -1.8484
 3133TIP3    H230891   3.876   3.869  17.099  0.2205  0.3035 -0.6584
 3134TIP3   OH230892   1.264   0.698   1.073  0.3071  0.0708  0.3262
 3134TIP3    H130893   1.206   0.652   1.133 -0.9740  1.0823 -0.0914
 3134TIP3    H230894   1.308   0.628   1.024 -2.2314 -0.7567 -0.9170
 3135TIP3   OH230895   1.524   4.744  15.477  0.3780  0.4043  0.0985
 3135TIP3    H130896   1.430   4.747  15.498  0.3690  0.6298  0.0349
 3135TIP3    H230897   1.567   4.737  15.562  0.3406  1.2870  0.2016
 3136TIP3   OH230898   6.836   4.593  13.028 -0.0160  0.2213 -0.0013
 3136TIP3    H130899   6.874   4.506  13.044  0.1117  0.3755  0.5630
 3136TIP3    H230900   6.792   4.615  13.110 -3.0308 -0.7871 -1.1932
 3137TIP3   OH230901   4.532   3.727  12.683 -0.4353  0.0894 -0.0132
 3137TIP3    H130902   4.538   3.814  12.723 -1.6551 -0.1344  0.7393
 3137TIP3    H230903   4.586   3.671  12.739  0.4724  0.3845 -0.5867
 3138TIP3   OH230904   5.195   4.472   3.798 -0.3229  0.3510 -0.6408
 3138TIP3    H130905   5.215   4.392   3.845 -0.7139  0.2753 -0.6009
 3138TIP3    H230906   5.214   4.543   3.860 -0.7674  0.2550 -0.3929
 3139TIP3   OH230907   0.054   5.517  13.302  0.0172  0.5152 -0.7367
 3139TIP3    H130908  -0.037   5.490  13.301  0.1720 -0.0141 -1.5435
 3139TIP3    H230909   0.103   5.439  13.275  0.6606  0.9479 -0.8493
 3140TIP3   OH230910   2.947   1.725   2.031 -0.5637 -0.3638 -0.2827
 3140TIP3    H130911   2.988   1.805   2.062 -1.0821  0.0137 -0.5593
 3140TIP3    H230912   2.890   1.753   1.959  0.5871 -1.2123 -1.5656
 3141TIP3   OH230913   3.591   4.795   6.647 -0.2081 -0.6995  0.4536
 3141TIP3    H130914   3.649   4.844   6.705 -0.4602  1.6726 -1.1562
 3141TIP3    H230915   3.643   4.782   6.567 -1.1827 -0.3490 -0.2526
 3142TIP3   OH230916   3.998   3.631  12.738  0.9088  0.5179  0.5020
 3142TIP3    H130917   4.016   3.537  12.743  0.4749  0.5108  3.2039
 3142TIP3    H230918   4.084   3.672  12.725  1.2653 -0.1720  0.6652
 3143TIP3   OH230919   2.526   3.324  11.128 -0.5659  0.1897  0.4830
 3143TIP3    H130920   2.524   3.253  11.063  2.5929 -0.1824  0.6701
 3143TIP3    H230921   2.547   3.403  11.077  1.6732 -0.0594  0.9375
 3144TIP3   OH230922   5.668   2.289  13.048  0.9697  0.1875  0.1097
 3144TIP3    H130923   5.733   2.319  12.984  0.4226  1.0988 -0.0367
 3144TIP3    H230924   5.679   2.348  13.122 -0.9306  1.5735 -0.6550
 3145TIP3   OH230925   5.134   0.168   5.030 -0.5726 -0.3505  0.3396
 3145TIP3    H130926   5.208   0.158   4.970 -0.2847  1.8520  0.2350
 3145TIP3    H230927   5.096   0.253   5.006 -2.0171 -0.6042  1.6042
 3146TIP3   OH230928   2.099   5.565   5.669  0.1690  0.0377  0.1689
 3146TIP3    H130929   2.191   5.575   5.642  0.5903 -0.2825  1.3836
 3146TIP3    H230930   2.102   5.573   5.764 -1.4489  2.6868  0.0820
 3147TIP3   OH230931   6.654   2.415   1.294  0.0646  0.1233 -0.2789
 3147TIP3    H130932   6.632   2.372   1.377 -1.7583  1.5311  0.0440
 3147TIP3    H230933   6.689   2.500   1.320  1.4170 -0.2147 -0.9424
 3148TIP3   OH230934   6.613   2.246  13.452  0.1143  0.1098  0.5966
 3148TIP3    H130935   6.625   2.163  13.405  0.5794  0.3690  0.2528
 3148TIP3    H230936   6.639   2.226  13.542  1.1246  0.1172  0.3140
 3149TIP3   OH230937   3.539   4.778  16.860  0.0033 -0.3991  0.2792
 3149TIP3    H130938   3.523   4.683  16.867  0.5811 -0.5253 -0.0484
 3149TIP3    H230939   3.611   4.785  16.797 -0.3154  0.2868 -0.0120
 3150TIP3   OH230940   1.911   0.820   4.782 -0.3830  0.5807 -0.0447
 3150TIP3    H130941   1.885   0.827   4.874  0.8414 -1.3967  0.5113
 3150TIP3    H230942   1.832   0.788   4.738 -0.8112  0.9764  0.4165
 3151TIP3   OH230943   5.390   3.955   6.337 -0.4157 -0.6164 -0.6122
 3151TIP3    H130944   5.384   3.905   6.418  0.9662 -0.0736 -0.1468
 3151TIP3    H230945   5.324   4.023   6.345 -1.2727 -1.4319 -0.5904
 3152TIP3   OH230946   5.730   3.446  13.803  0.3034  0.3468 -0.2444
 3152TIP3    H130947   5.666   3.376  13.812 -1.1469  1.8708  2.9701
 3152TIP3    H230948   5.814   3.401  13.798 -0.6558 -1.6778  0.5996
 3153TIP3   OH230949   5.043   2.690  16.315 -0.2589 -0.1629  0.9895
 3153TIP3    H130950   4.957   2.689  16.274 -0.9041  0.2673  2.2838
 3153TIP3    H230951   5.093   2.755  16.265 -1.4688  1.3905  1.7002
 3154TIP3   OH230952   4.436   3.238   2.072 -0.0767 -0.0946 -0.3362
 3154TIP3    H130953   4.365   3.290   2.034  0.6203 -0.0665 -1.6665
 3154TIP3    H230954   4.505   3.239   2.005  1.1695 -0.1453  0.9043
 3155TIP3   OH230955   4.827   0.306   1.681 -0.4889  0.4170  0.6580
 3155TIP3    H130956   4.856   0.388   1.722  1.3545 -0.6483  1.6533
 3155TIP3    H230957   4.909   0.260   1.661 -1.4735 -1.0088 -0.2427
 3156TIP3   OH230958   2.969   0.752   1.040 -0.3234  0.3271 -0.2749
 3156TIP3    H130959   2.975   0.793   1.126  2.1385 -2.8246  1.2526
 3156TIP3    H230960   2.892   0.695   1.046  0.2531 -0.4187  0.1205
 3157TIP3   OH230961   5.451   2.652   0.826  0.1835  0.0210  0.2355
 3157TIP3    H130962   5.367   2.632   0.785  0.3734  1.3562 -0.9152
 3157TIP3    H230963   5.513   2.654   0.752  1.1219 -0.4143  0.9919
 3158TIP3   OH230964   4.190   4.346  11.594  0.4394  0.4869  0.1332
 3158TIP3    H130965   4.150   4.273  11.641  1.1714 -0.3812 -0.5306
 3158TIP3    H230966   4.256   4.380  11.654 -0.7634  1.4562  0.9480
 3159TIP3   OH230967   2.604   6.733  10.789 -0.3357 -0.3483 -0.1259
 3159TIP3    H130968   2.651   6.704  10.867 -2.2815  0.8940  1.5919
 3159TIP3    H230969   2.583   6.825  10.806 -0.8411 -0.0400 -2.1250
 3160TIP3   OH230970   1.941   1.257   1.441  0.7125 -0.6750  0.0399
 3160TIP3    H130971   1.981   1.242   1.355  2.1863  1.3642  0.3018
 3160TIP3    H230972   1.849   1.233   1.429  0.4062  1.4243 -2.7243
 3161TIP3   OH230973   3.428   4.747  10.902  0.0117  0.0834 -0.2213
 3161TIP3    H130974   3.492   4.677  10.892  0.3829  0.6400 -2.3775
 3161TIP3    H230975   3.399   4.765  10.812 -1.6667  1.2292  0.5007
 3162TIP3   OH230976   3.071   3.763  13.087 -0.5505  0.2552 -0.4607
 3162TIP3    H130977   3.070   3.803  13.000 -0.3600  2.0515  0.3200
 3162TIP3    H230978   2.984   3.779  13.122 -0.3071  0.4567  0.0609
 3163TIP3   OH230979   0.644   6.411  12.438  0.4803  0.0475  0.0576
 3163TIP3    H130980   0.593   6.344  12.485  1.3497 -0.4296  0.3406
 3163TIP3    H230981   0.720   6.363  12.404 -0.0629  0.4132 -1.7359
 3164TIP3   OH230982   2.280   5.803   3.183 -0.5217  0.2623  0.2094
 3164TIP3    H130983   2.325   5.745   3.123 -1.4697  0.6126 -0.8915
 3164TIP3    H230984   2.347   5.864   3.214  0.6918 -1.8588  2.0700
 3165TIP3   OH230985   5.092   5.334  15.984  0.4583 -0.1217 -0.0626
 3165TIP3    H130986   5.082   5.404  15.920  0.3745  0.2901  0.3984
 3165TIP3    H230987   5.033   5.358  16.055  0.9847 -0.2732  0.4287
 3166TIP3   OH230988   4.750   0.607   4.233 -0.6246  0.1683  0.4530
 3166TIP3    H130989   4.806   0.577   4.305  1.3295 -0.3666 -1.1859
 3166TIP3    H230990   4.753   0.536   4.169 -1.4314  1.0702 -0.6220
 3167TIP3   OH230991   6.244   3.302   6.209  0.3394 -0.0393  0.3382
 3167TIP3    H130992   6.321   3.246   6.212 -0.5431 -1.3008  0.6042
 3167TIP3    H230993   6.191   3.272   6.284 -1.1512 -0.3655 -0.8087
 3168TIP3   OH230994   2.728   3.766  12.503 -0.2232 -0.1582  0.0137
 3168TIP3    H130995   2.678   3.848  12.497 -0.2293 -0.1881 -0.3181
 3168TIP3    H230996   2.819   3.794  12.493  0.0108  0.1279  2.2570
 3169TIP3   OH230997   6.855   4.120   2.844 -0.2912  0.6740 -0.0597
 3169TIP3    H130998   6.793   4.170   2.791 -1.6780 -0.4846  0.4224
 3169TIP3    H230999   6.825   4.132   2.934 -0.0085 -0.1604  0.1553
 3170TIP3   OH231000   2.488   4.750   6.780  0.0360 -0.4967  0.2451
 3170TIP3    H131001   2.450   4.752   6.693  1.2009 -2.0568 -0.3387
 3170TIP3    H231002   2.413   4.760   6.839 -0.9075 -0.6185 -0.8934
 3171TIP3   OH231003   4.003   5.302   1.855 -0.0956  0.3212  0.4665
 3171TIP3    H131004   3.941   5.324   1.786  1.2343 -1.6583 -1.5141
 3171TIP3    H231005   3.964   5.228   1.901  0.6422 -0.8156 -0.6720
 3172TIP3   OH231006   0.730   5.285  14.458 -0.5539  0.9423 -0.0024
 3172TIP3    H131007   0.681   5.364  14.433  0.0051  1.4750  0.5467
 3172TIP3    H231008   0.789   5.315  14.527  1.0475  0.4796 -1.1184
 3173TIP3   OH231009   0.735   5.413   3.454  0.0880  0.6342 -0.1923
 3173TIP3    H131010   0.735   5.325   3.417 -0.1447 -0.5367  2.3463
 3173TIP3    H231011   0.668   5.460   3.404 -1.1228 -1.2015 -0.4219
 3174TIP3   OH231012   2.997   1.428  15.203 -0.4167 -0.6057 -0.2868
 3174TIP3    H131013   3.004   1.517  15.239  0.7214  0.5533 -3.0745
 3174TIP3    H231014   2.904   1.417  15.183 -0.5596 -0.0390  0.0459
 3175TIP3   OH231015   5.495   3.077   1.975  0.3498  0.1261  0.4058
 3175TIP3    H131016   5.498   3.127   1.894 -0.1907 -1.2228 -0.4941
 3175TIP3    H231017   5.416   3.107   2.020 -0.6065 -0.6757 -0.6741
 3176TIP3   OH231018   1.943   0.516  16.189  0.4337 -0.2295 -0.5367
 3176TIP3    H131019   1.889   0.568  16.129  3.3938  1.7560 -1.6807
 3176TIP3    H231020   1.904   0.428  16.185 -2.7370  1.0480 -1.1241
 3177TIP3   OH231021   2.554   6.246   5.095  0.2246  0.6201  0.2325
 3177TIP3    H131022   2.613   6.171   5.103  1.3624  1.3003 -1.3565
 3177TIP3    H231023   2.553   6.285   5.183  2.0040  0.4794  0.3509
 3178TIP3   OH231024   6.671   6.674   1.671  0.3813  0.0865 -0.6396
 3178TIP3    H131025   6.626   6.725   1.603  0.1035  0.0142 -0.5056
 3178TIP3    H231026   6.653   6.722   1.752 -1.3648 -1.1892 -0.2314
 3179TIP3   OH231027   6.529   0.492   2.137  0.1867 -0.6948 -0.4091
 3179TIP3    H131028   6.624   0.505   2.138  0.2399 -0.4161 -2.9419
 3179TIP3    H231029   6.493   0.579   2.155  0.3826 -0.7402  0.2527
 3180TIP3   OH231030   6.089   2.648  14.650 -0.0004  0.0600  0.4552
 3180TIP3    H131031   6.012   2.703  14.638 -0.2865 -0.3191  0.5490
 3180TIP3    H231032   6.151   2.703  14.698  0.7127  1.2061 -1.6232
 3181TIP3   OH231033   5.003   5.716   0.410 -0.0969  0.3530  0.0452
 3181TIP3    H131034   5.018   5.724   0.316 -0.3487 -1.3492 -0.1743
 3181TIP3    H231035   4.910   5.737   0.421 -0.1522  0.2051 -0.1378
 3182TIP3   OH231036   4.019   6.753   4.098 -0.0853 -0.2658 -0.0305
 3182TIP3    H131037   3.992   6.838   4.065  0.6101  0.7564  1.8961
 3182TIP3    H231038   4.082   6.720   4.033 -0.2588  0.7406 -0.7197
 3183TIP3   OH231039   2.481   2.767   0.728 -0.2132  0.2549  0.3760
 3183TIP3    H131040   2.418   2.762   0.656 -0.6273 -1.6492  0.8181
 3183TIP3    H231041   2.564   2.789   0.686 -0.1684 -2.0497 -0.9266
 3184TIP3   OH231042   1.652   3.684   4.111 -0.1051  0.1235  0.6190
 3184TIP3    H131043   1.582   3.733   4.068 -0.9518 -2.1932 -0.8656
 3184TIP3    H231044   1.724   3.747   4.119 -1.9588  2.2854  1.2459
 3185TIP3   OH231045   4.256   2.499  17.126  0.2242  0.3433  0.9245
 3185TIP3    H131046   4.200   2.433  17.085  1.8435 -0.7454  0.4040
 3185TIP3    H231047   4.231   2.581  17.082  1.6105 -0.7065 -2.0651
 3186TIP3   OH231048   3.741   4.224   5.367  0.1592 -0.2165  0.1528
 3186TIP3    H131049   3.831   4.254   5.381  0.7880 -1.0716 -1.7152
 3186TIP3    H231050   3.712   4.196   5.453  1.8916 -0.4348  0.7163
 3187TIP3   OH231051   2.392   6.213  12.658 -0.4538 -0.4836  0.4067
 3187TIP3    H131052   2.412   6.174  12.743 -0.1822 -0.8684  0.1678
 3187TIP3    H231053   2.394   6.140  12.597 -0.2235 -0.1424  0.0011
 3188TIP3   OH231054   0.619   1.668   5.460 -0.1921 -0.3034 -0.2824
 3188TIP3    H131055   0.694   1.622   5.423 -1.5958 -1.8478 -1.3356
 3188TIP3    H231056   0.592   1.729   5.391 -0.5372 -0.4943 -0.3156
 3189TIP3   OH231057   2.383   0.280   4.792 -0.5267  0.4824  0.3661
 3189TIP3    H131058   2.386   0.188   4.820  1.2205 -0.5926 -2.8704
 3189TIP3    H231059   2.302   0.286   4.740  0.5394  0.0031 -1.4482
 3190TIP3   OH231060   5.079   2.979  15.897  0.1068  0.4188 -0.3952
 3190TIP3    H131061   4.999   3.030  15.908  0.3892  0.8775 -0.4606
 3190TIP3    H231062   5.050   2.888  15.906 -0.0753  0.6481  1.7268
 3191TIP3   OH231063   0.435   4.198  17.107 -0.3201 -0.1252 -0.3494
 3191TIP3    H131064   0.405   4.237  17.189  1.3556 -1.4066  0.9428
 3191TIP3    H231065   0.477   4.116  17.133 -0.1026 -0.7809 -2.5420
 3192TIP3   OH231066   5.847   4.964  14.927 -0.5190 -0.0403  0.3494
 3192TIP3    H131067   5.884   4.956  15.015 -2.9307 -0.2195  1.4358
 3192TIP3    H231068   5.890   4.896  14.876  0.2386 -0.5612  1.6483
 3193TIP3   OH231069   0.275   2.513   0.786  0.6590 -0.5920  0.5916
 3193TIP3    H131070   0.179   2.518   0.786  0.6945  1.5736  1.4977
 3193TIP3    H231071   0.295   2.420   0.777 -1.4873 -0.9614 -1.1422
 3194TIP3   OH231072   5.383   1.384  16.412 -0.4810  0.0210 -0.4049
 3194TIP3    H131073   5.427   1.443  16.352  2.9592 -0.5605  1.2785
 3194TIP3    H231074   5.355   1.440  16.484  0.8905 -0.0121  0.1987
 3195TIP3   OH231075   3.942   4.410   5.391 -0.4455 -0.8000  0.4713
 3195TIP3    H131076   3.934   4.419   5.486 -2.3229 -1.1942  0.3777
 3195TIP3    H231077   3.914   4.494   5.355  1.7404 -0.0852  0.2557
 3196TIP3   OH231078   2.623   6.153   0.597 -1.0117  0.3455 -0.3141
 3196TIP3    H131079   2.708   6.145   0.639 -1.0196  1.1516 -0.1325
 3196TIP3    H231080   2.575   6.215   0.652 -1.8767 -0.4391 -0.1661
 3197TIP3   OH231081   0.379   4.532   3.031 -0.2042 -0.3269  0.1625
 3197TIP3    H131082   0.411   4.593   3.097  1.0929 -1.5948  0.7626
 3197TIP3    H231083   0.318   4.476   3.079 -2.5408  1.3247 -0.7057
 3198TIP3   OH231084   0.949   2.445   3.815 -0.5547  0.5502  0.3843
 3198TIP3    H131085   1.036   2.485   3.822  0.4031 -1.1474 -1.1576
 3198TIP3    H231086   0.889   2.515   3.843  1.2155  2.0846  0.5630
 3199TIP3   OH231087   6.748   2.645   6.126 -0.4991 -0.1337  0.0855
 3199TIP3    H131088   6.806   2.587   6.174 -1.2501 -0.9449  0.0429
 3199TIP3    H231089   6.731   2.717   6.187 -0.2547 -0.4044  0.4768
 3200TIP3   OH231090   5.154   3.367   0.262  0.3389  0.0728 -0.0888
 3200TIP3    H131091   5.070   3.413   0.260  0.0418 -0.4781 -2.3604
 3200TIP3    H231092   5.217   3.432   0.231  0.5378  0.0522  0.2614
 3201TIP3   OH231093   0.599   1.698  11.381  0.0014  0.0598 -0.1835
 3201TIP3    H131094   0.556   1.680  11.465  0.0922  0.6542 -0.0080
 3201TIP3    H231095   0.671   1.757  11.403  1.0510 -1.0694 -0.4486
 3202TIP3   OH231096   5.050   5.018   1.647 -0.1122  0.2172  0.1204
 3202TIP3    H131097   5.143   5.029   1.628 -0.0821 -0.8434 -0.4808
 3202TIP3    H231098   5.048   4.959   1.723 -0.2875  0.0041 -0.0483
 3203TIP3   OH231099   3.616   4.174   0.837  0.4763 -0.1213 -0.0177
 3203TIP3    H131100   3.646   4.120   0.764 -1.8624 -0.6148 -0.6959
 3203TIP3    H231101   3.603   4.113   0.909  2.0976  0.2628  0.6416
 3204TIP3   OH231102   1.816   5.408  15.148  0.0476  0.3241  0.5517
 3204TIP3    H131103   1.734   5.363  15.126 -0.8789  2.1092  0.1214
 3204TIP3    H231104   1.876   5.386  15.077 -0.6755  0.5053 -0.1221
 3205TIP3   OH231105   5.530   5.583   6.579 -0.2172 -0.3848 -0.2844
 3205TIP3    H131106   5.574   5.593   6.663 -0.6107  0.5038 -0.1746
 3205TIP3    H231107   5.547   5.665   6.532 -0.6825 -0.5415 -0.7418
 3206TIP3   OH231108   5.281   0.889  12.634  0.3618  0.4806  0.0025
 3206TIP3    H131109   5.269   0.883  12.539 -1.0022  0.1604  0.1633
 3206TIP3    H231110   5.364   0.846  12.651  0.1695 -0.3140 -0.9582
 3207TIP3   OH231111   5.062   0.960  12.773  0.4115  0.4432  0.6494
 3207TIP3    H131112   5.144   0.917  12.748 -0.0137 -0.7977  1.2734
 3207TIP3    H231113   5.044   0.927  12.862 -2.1795 -1.6217 -0.4920
 3208TIP3   OH231114   0.656   2.423   5.833  0.6319  0.1411  0.0426
 3208TIP3    H131115   0.638   2.500   5.888 -0.9844 -0.3103  0.1912
 3208TIP3    H231116   0.573   2.405   5.789  1.2886 -0.8788 -0.8204
 3209TIP3   OH231117   6.535   0.265   2.535 -0.1697 -0.1127 -0.0290
 3209TIP3    H131118   6.598   0.237   2.468 -1.4025  0.1019 -1.3325
 3209TIP3    H231119   6.555   0.358   2.549 -0.8341  0.2345 -1.2246
 3210TIP3   OH231120   1.128   3.244  12.935 -0.4442 -0.5719  0.3037
 3210TIP3    H131121   1.084   3.310  12.881 -0.3488 -0.2083  0.6653
 3210TIP3    H231122   1.187   3.295  12.991 -0.9226 -0.8934  1.1212
 3211TIP3   OH231123   6.714   2.403   4.823  0.6066  0.0559 -0.4441
 3211TIP3    H131124   6.664   2.480   4.797 -3.4121 -2.4093 -0.7754
 3211TIP3    H231125   6.714   2.406   4.919 -0.3314  0.0160 -0.4385
 3212TIP3   OH231126   5.180   1.620  16.163  0.0234 -0.7805  0.0317
 3212TIP3    H131127   5.104   1.671  16.192  0.1242 -1.5189  1.6758
 3212TIP3    H231128   5.253   1.654  16.214  0.5739 -0.9309 -0.6349
 3213TIP3   OH231129   2.909   2.125  13.532  0.0639 -0.8952 -0.1488
 3213TIP3    H131130   2.817   2.131  13.555  0.0303 -0.7862 -0.3130
 3213TIP3    H231131   2.956   2.130  13.615 -0.1539 -2.7930  0.1421
 3214TIP3   OH231132   2.930   5.353   4.369  0.5252 -0.1403 -0.0167
 3214TIP3    H131133   2.900   5.330   4.457 -3.3372  1.9023 -0.6037
 3214TIP3    H231134   2.955   5.445   4.375 -0.6723  0.2917 -1.1702
 3215TIP3   OH231135   5.400   4.963   1.362 -0.0132  0.7165 -0.3380
 3215TIP3    H131136   5.350   5.003   1.291  1.2012 -0.3412 -1.8661
 3215TIP3    H231137   5.455   4.898   1.318  1.0774  0.3119  1.5391
 3216TIP3   OH231138   6.128   0.429  11.310  0.5515  0.0328  0.2604
 3216TIP3    H131139   6.063   0.388  11.367  0.1535 -0.5253 -0.5607
 3216TIP3    H231140   6.211   0.391  11.338  0.1864 -1.4311 -0.5158
 3217TIP3   OH231141   2.306   2.701   2.283 -0.0276 -0.3498 -0.2816
 3217TIP3    H131142   2.244   2.636   2.317  0.5027 -1.2512 -1.0061
 3217TIP3    H231143   2.383   2.650   2.258  0.7562  0.6794 -0.0088
 3218TIP3   OH231144   3.895   4.197   2.143 -0.3883 -0.2238 -0.2191
 3218TIP3    H131145   3.864   4.114   2.107 -0.3456  0.5914 -2.2794
 3218TIP3    H231146   3.989   4.198   2.123 -0.6188  0.8348 -1.3996
 3219TIP3   OH231147   3.087   4.542   0.578 -0.2456 -0.2684  0.7625
 3219TIP3    H131148   3.036   4.550   0.659  1.6958 -1.6148  2.2220
 3219TIP3    H231149   3.127   4.455   0.584  1.6962  0.4793 -0.5864
 3220TIP3   OH231150   4.338   0.413   5.871  0.0076 -0.1899 -0.2637
 3220TIP3    H131151   4.377   0.498   5.851 -0.2388 -0.3561 -1.5172
 3220TIP3    H231152   4.275   0.431   5.941  0.2450  0.5817 -0.2448
 3221TIP3   OH231153   0.301   2.926   2.618  0.3663  0.6944  0.3017
 3221TIP3    H131154   0.236   2.986   2.582  0.0784 -0.2446 -0.8289
 3221TIP3    H231155   0.384   2.973   2.611 -0.0326  1.5105  0.8203
 3222TIP3   OH231156   2.087   3.050  12.869  0.1235 -0.6540 -0.2980
 3222TIP3    H131157   2.109   3.133  12.910 -0.3960 -0.9384  0.5825
 3222TIP3    H231158   2.154   3.038  12.802  0.0694  0.5774 -0.5937
 3223TIP3   OH231159   4.296   3.138  14.191  0.2680 -0.2480 -0.1838
 3223TIP3    H131160   4.362   3.204  14.166 -0.3207  0.0398 -1.0220
 3223TIP3    H231161   4.283   3.086  14.111 -1.1612  0.2617 -0.3042
 3224TIP3   OH231162   5.060   6.621  12.458  0.1979 -0.0960 -0.1866
 3224TIP3    H131163   5.118   6.683  12.502 -0.1784  0.0006  0.1849
 3224TIP3    H231164   5.116   6.547  12.437  0.9788  0.9224 -1.8878
 3225TIP3   OH231165   1.719   6.243  11.644 -0.2228 -0.1597  0.4408
 3225TIP3    H131166   1.712   6.272  11.735 -0.3718  1.8737 -0.1553
 3225TIP3    H231167   1.638   6.274  11.603  0.5554  0.4233 -0.7226
 3226TIP3   OH231168   1.508   4.306   2.446  0.4266  0.7027 -0.0217
 3226TIP3    H131169   1.505   4.401   2.456 -0.2827  0.7969 -0.9750
 3226TIP3    H231170   1.474   4.272   2.529  3.1304  1.1785  1.3765
 3227TIP3   OH231171   5.534   3.564   1.594 -0.6609 -0.1291  0.3150
 3227TIP3    H131172   5.544   3.552   1.500 -0.3977  1.4177  0.1285
 3227TIP3    H231173   5.598   3.504   1.633  1.5878  1.5496 -0.6041
 3228TIP3   OH231174   4.779   5.796  13.111  0.2280 -0.2434 -0.0145
 3228TIP3    H131175   4.838   5.771  13.183  0.0614  0.0785  0.2346
 3228TIP3    H231176   4.767   5.890  13.121 -0.2285 -0.2879 -0.1413
 3229TIP3   OH231177   4.257   4.153  13.653  0.3018 -0.1050 -0.2088
 3229TIP3    H131178   4.179   4.104  13.627 -0.2952 -0.0623  1.3571
 3229TIP3    H231179   4.222   4.235  13.688  1.0328 -0.1581  0.6669
 3230TIP3   OH231180   3.650   0.087  12.838  0.3719 -0.2228 -0.0693
 3230TIP3    H131181   3.587   0.022  12.809  0.4959 -0.7652  0.8245
 3230TIP3    H231182   3.642   0.159  12.775  1.3440 -1.7253 -2.0119
 3231TIP3   OH231183   0.219   0.027  13.008  0.3331 -0.0710  0.0234
 3231TIP3    H131184   0.254   0.114  13.027 -0.4437  0.2948 -0.1649
 3231TIP3    H231185   0.295  -0.025  12.981  0.8837  0.4022  0.6338
 3232TIP3   OH231186   5.960   2.150   0.701  0.0683  0.0032 -0.2361
 3232TIP3    H131187   5.899   2.209   0.746 -1.7192 -1.5858 -0.4424
 3232TIP3    H231188   5.939   2.161   0.608  0.1676 -0.4810 -0.3145
 3233TIP3   OH231189   2.431   5.059  14.235  0.1249  0.0799 -0.4607
 3233TIP3    H131190   2.502   5.118  14.260  0.9139 -1.2286  0.4961
 3233TIP3    H231191   2.404   5.090  14.148  1.8326  0.6518 -0.8314
 3234TIP3   OH231192   4.093   6.397  13.574  0.1292 -0.6067 -0.3412
 3234TIP3    H131193   4.041   6.374  13.651  0.0664 -0.6380 -0.3928
 3234TIP3    H231194   4.047   6.355  13.501  0.0322 -0.3457 -0.4330
 3235TIP3   OH231195   0.220   4.254  16.977 -0.4797 -0.7287 -0.4779
 3235TIP3    H131196   0.309   4.223  16.992 -0.3245 -1.2366 -2.2049
 3235TIP3    H231197   0.214   4.336  17.026  0.7714 -0.9295  0.0389
 3236TIP3   OH231198   1.006   4.677  16.862  0.2400 -0.2593 -0.4163
 3236TIP3    H131199   1.026   4.768  16.840  0.9967 -0.6045 -1.2213
 3236TIP3    H231200   0.912   4.669  16.848  0.1344  0.4483 -0.1443
 3237TIP3   OH231201   3.248   0.232   1.590  0.3188  0.2932 -0.1976
 3237TIP3    H131202   3.162   0.238   1.547  0.1834 -1.9695 -0.3924
 3237TIP3    H231203   3.240   0.286   1.668 -2.5600 -2.3819  1.6264
 3238TIP3   OH231204   5.479   3.429  13.180 -0.1005 -0.2162 -0.0278
 3238TIP3    H131205   5.447   3.494  13.243  1.7881 -0.1414  0.9128
 3238TIP3    H231206   5.557   3.392  13.221 -0.4806 -2.2979 -1.0429
 3239TIP3   OH231207   0.984   6.106   2.973 -0.3176 -0.1492  0.5252
 3239TIP3    H131208   0.983   6.146   2.886  0.3668  2.0358  1.4239
 3239TIP3    H231209   1.077   6.103   2.997 -0.5876  1.1921  1.9232
 3240TIP3   OH231210   3.176   1.295  14.801  0.0985 -0.0682  0.1471
 3240TIP3    H131211   3.123   1.216  14.806  2.0459 -1.5757 -1.2976
 3240TIP3    H231212   3.144   1.341  14.723 -0.4909  0.1645  0.5205
 3241TIP3   OH231213   2.807   3.597   5.538  0.7436  0.5027  1.1256
 3241TIP3    H131214   2.814   3.620   5.631 -0.3524  0.2476  1.2792
 3241TIP3    H231215   2.714   3.609   5.517  0.0184 -3.6471  1.2014
 3242TIP3   OH231216   4.926   1.727  13.952  0.1397  0.0686 -0.0554
 3242TIP3    H131217   5.020   1.707  13.954  0.1358  0.0797  0.2741
 3242TIP3    H231218   4.883   1.643  13.936  0.2497  0.2039 -1.1486
 3243TIP3   OH231219   1.141   6.854  12.490 -0.0212  0.1360  0.3510
 3243TIP3    H131220   1.117   6.762  12.504  0.4272  0.0529  0.5899
 3243TIP3    H231221   1.235   6.857  12.507 -0.2263  0.8492  1.4433
 3244TIP3   OH231222   4.856   4.803   1.351 -0.3385  0.0715  0.1334
 3244TIP3    H131223   4.875   4.742   1.280 -0.1176  1.9967 -1.5628
 3244TIP3    H231224   4.770   4.841   1.329 -1.0288 -0.4236  1.7691
 3245TIP3   OH231225   2.342   2.469   1.736 -0.1452  0.1882 -0.0265
 3245TIP3    H131226   2.268   2.488   1.678 -0.4628 -0.9990 -0.0356
 3245TIP3    H231227   2.306   2.476   1.824 -0.1017  0.2504 -0.0133
 3246TIP3   OH231228   3.470   4.779   5.290 -0.5317 -0.4558 -0.0699
 3246TIP3    H131229   3.527   4.705   5.268 -0.7471 -0.8170  0.5557
 3246TIP3    H231230   3.423   4.798   5.209  0.2570 -0.3438 -0.5134
 3247TIP3   OH231231   1.516   2.775  15.588 -0.1627 -0.5220 -0.5865
 3247TIP3    H131232   1.579   2.847  15.592  0.7252 -1.3260  0.4472
 3247TIP3    H231233   1.504   2.748  15.679 -0.1905 -1.9177 -0.9809
 3248TIP3   OH231234   0.891   1.621  11.282 -0.1284 -0.2992 -0.3976
 3248TIP3    H131235   0.877   1.715  11.292 -0.0921 -0.2100 -1.1368
 3248TIP3    H231236   0.982   1.613  11.254 -0.6691 -0.4149 -2.2070
 3249TIP3   OH231237   2.958   0.273  15.763 -0.1909  0.0477  0.2234
 3249TIP3    H131238   2.962   0.183  15.730 -1.2267 -0.2782  0.9538
 3249TIP3    H231239   2.959   0.263  15.859  0.9577  0.8904  0.3272
 3250TIP3   OH231240   0.268   0.323  12.020  0.4080 -0.6162 -0.3797
 3250TIP3    H131241   0.208   0.385  12.062 -0.1210 -1.5543  0.2788
 3250TIP3    H231242   0.352   0.338  12.063 -0.1845 -1.7598  1.2791
 3251TIP3   OH231243   6.713   4.892   1.812 -0.4223 -0.0188 -0.1422
 3251TIP3    H131244   6.689   4.951   1.741  0.5029  1.6792  0.8961
 3251TIP3    H231245   6.704   4.945   1.892  1.1105 -1.0476  0.7640
 3252TIP3   OH231246   4.142   3.317  12.137 -0.1762  0.9000  0.6107
 3252TIP3    H131247   4.102   3.354  12.058  0.5233  1.4865  0.5239
 3252TIP3    H231248   4.070   3.274  12.182 -0.5692  0.4814 -0.3942
 3253TIP3   OH231249   6.346   5.760   5.759 -1.2077 -0.0777  0.2069
 3253TIP3    H131250   6.345   5.801   5.672 -0.9799 -0.8410 -0.1601
 3253TIP3    H231251   6.253   5.752   5.782 -1.3153  3.4109  1.6433
 3254TIP3   OH231252   3.298   4.231   5.855  0.0706 -0.2428  0.3610
 3254TIP3    H131253   3.347   4.156   5.820 -1.0063  0.4110 -2.8190
 3254TIP3    H231254   3.293   4.293   5.783 -1.5781  1.6697  1.9957
 3255TIP3   OH231255   1.649   4.068  12.051  0.4350  0.0492  0.2384
 3255TIP3    H131256   1.623   4.081  11.960  0.0015 -1.4902  0.1124
 3255TIP3    H231257   1.744   4.055  12.047  0.1157 -2.7422 -0.3938
 3256TIP3   OH231258   0.635   4.919   0.581 -0.4641  0.4476  0.4647
 3256TIP3    H131259   0.652   4.825   0.588 -0.7049  0.3825  0.1670
 3256TIP3    H231260   0.541   4.928   0.597 -0.7502  0.4622 -1.1188
 3257TIP3   OH231261   6.696   5.681  14.201 -0.0331  0.2049 -0.6034
 3257TIP3    H131262   6.682   5.596  14.243  0.6152 -0.0252 -0.8278
 3257TIP3    H231263   6.654   5.673  14.115  0.4189 -0.0546 -0.8038
 3258TIP3   OH231264   3.745   2.425  14.218 -0.2618 -0.0295 -0.0608
 3258TIP3    H131265   3.704   2.489  14.277 -1.3410 -2.2967  1.8102
 3258TIP3    H231266   3.739   2.465  14.132  0.1208  2.8510  1.1363
 3259TIP3   OH231267   2.366   1.417   0.715  0.2137  0.1509  0.4524
 3259TIP3    H131268   2.326   1.357   0.652  0.8620  0.8209 -0.6234
 3259TIP3    H231269   2.379   1.498   0.667 -0.4372  1.1213  1.8235
 3260TIP3   OH231270   1.174   4.155  16.854 -0.2395  0.1904 -0.2605
 3260TIP3    H131271   1.249   4.114  16.812 -0.3999 -0.0771 -0.2848
 3260TIP3    H231272   1.194   4.249  16.851 -0.5668  0.2414 -1.6046
 3261TIP3   OH231273   5.666   3.716  12.387  0.2918 -0.6459  0.0012
 3261TIP3    H131274   5.707   3.634  12.414 -0.0961 -2.0154 -3.1718
 3261TIP3    H231275   5.739   3.770  12.357  0.3791 -0.4591  0.5345
 3262TIP3   OH231276   4.802   3.378  10.784 -0.3649 -0.0951  0.5805
 3262TIP3    H131277   4.774   3.325  10.709  0.8108 -1.2335  0.9184
 3262TIP3    H231278   4.724   3.385  10.839 -0.3927 -2.0161  0.8378
 3263TIP3   OH231279   1.165   4.558   3.199  0.1555  0.0451  0.7875
 3263TIP3    H131280   1.227   4.490   3.225  0.8005 -0.1667 -1.1504
 3263TIP3    H231281   1.080   4.514   3.199  0.4225 -0.4802  0.5795
 3264TIP3   OH231282   6.009   1.900  15.162  0.1443  0.5494  0.0391
 3264TIP3    H131283   6.053   1.831  15.212  1.4033 -0.3534 -2.1890
 3264TIP3    H231284   6.035   1.982  15.206 -0.6962 -0.2562  2.2100
 3265TIP3   OH231285   4.038   4.995  15.830  0.2223 -0.5460 -0.5529
 3265TIP3    H131286   4.052   4.901  15.821 -0.3525 -0.9038  1.7328
 3265TIP3    H231287   4.025   5.008  15.924 -0.3677  1.7348 -0.9057
 3266TIP3   OH231288   6.610   0.603   6.515 -0.0523 -0.1127 -0.0609
 3266TIP3    H131289   6.658   0.616   6.596 -1.5653  0.6827  0.7577
 3266TIP3    H231290   6.527   0.562   6.542  0.1122 -1.4389 -1.4172
 3267TIP3   OH231291   5.814   5.553  11.969 -0.9974  0.2017  0.1679
 3267TIP3    H131292   5.719   5.548  11.964 -0.9542  0.4396 -1.7482
 3267TIP3    H231293   5.832   5.591  12.055 -2.6402  0.4394  0.4323
 3268TIP3   OH231294   4.582   6.221  15.779  0.3499  0.1438 -0.0226
 3268TIP3    H131295   4.653   6.231  15.716  1.0015  0.2222  0.7183
 3268TIP3    H231296   4.521   6.292  15.757  0.8018  0.4634 -0.2597
 3269TIP3   OH231297   1.206   3.153   3.108 -0.4571  0.2665 -0.2819
 3269TIP3    H131298   1.216   3.117   3.020 -1.1878  0.6791 -0.5397
 3269TIP3    H231299   1.193   3.247   3.095 -2.8388  0.0418  0.1041
 3270TIP3   OH231300   6.737   4.026   3.571 -0.3462  0.4794 -0.6076
 3270TIP3    H131301   6.684   4.103   3.549  0.9572  1.7675  0.5192
 3270TIP3    H231302   6.794   4.056   3.642 -0.3396 -1.7719  0.4451
 3271TIP3   OH231303   0.887   4.856   0.386  0.1348 -0.2736 -1.0026
 3271TIP3    H131304   0.855   4.881   0.473 -1.0698  0.3471 -1.5974
 3271TIP3    H231305   0.933   4.774   0.401  3.2429  1.5903  0.8421
 3272TIP3   OH231306   1.609   2.217  15.460  0.3904  0.1958 -0.3585
 3272TIP3    H131307   1.656   2.148  15.414  1.1402  0.7487 -0.4502
 3272TIP3    H231308   1.517   2.198  15.444  0.6176  0.1103 -1.7068
 3273TIP3   OH231309   4.708   6.139  14.024  0.0137  0.0084  0.0163
 3273TIP3    H131310   4.695   6.088  13.944  0.5979  1.9492 -1.3869
 3273TIP3    H231311   4.635   6.200  14.026 -0.2561 -0.3380  1.2476
 3274TIP3   OH231312   0.338   3.363  17.075 -0.1038  0.1088 -0.0663
 3274TIP3    H131313   0.269   3.323  17.021 -0.6821  2.6319 -1.3867
 3274TIP3    H231314   0.418   3.318  17.049 -0.8300 -0.8768 -0.6913
 3275TIP3   OH231315   0.960   0.281   0.352  0.1017 -0.1965 -0.6356
 3275TIP3    H131316   0.923   0.193   0.343  0.6295 -0.4435 -0.3959
 3275TIP3    H231317   0.974   0.292   0.446  1.5043 -0.4708 -0.7956
 3276TIP3   OH231318   5.719   3.102  11.605 -0.0417 -0.0206 -0.1364
 3276TIP3    H131319   5.699   3.085  11.513 -1.8005  1.4898 -0.1087
 3276TIP3    H231320   5.814   3.119  11.606  0.3466 -1.8571 -1.3224
 3277TIP3   OH231321   6.360   4.010   4.291  0.0168  0.5917 -0.2555
 3277TIP3    H131322   6.303   3.956   4.235 -0.1637 -0.1190  0.5859
 3277TIP3    H231323   6.449   3.989   4.262 -0.1113  1.1305 -1.0683
 3278TIP3   OH231324   3.605   0.651   5.807  0.4896 -0.2729  0.1138
 3278TIP3    H131325   3.545   0.693   5.869  0.9954  0.5418  0.0696
 3278TIP3    H231326   3.671   0.718   5.789  0.6913 -0.7104 -0.8340
 3279TIP3   OH231327   0.653   6.736  15.028  0.5089 -0.3796  0.4754
 3279TIP3    H131328   0.613   6.696  14.951 -1.1373 -0.9878  1.5726
 3279TIP3    H231329   0.676   6.824  15.001  1.5586 -1.1219 -1.1806
 3280TIP3   OH231330   5.152   4.636   5.708 -0.8143  0.3507 -0.6230
 3280TIP3    H131331   5.210   4.699   5.750 -1.2793  1.2667 -1.3078
 3280TIP3    H231332   5.087   4.690   5.662 -1.4409 -0.6314 -0.9320
 3281TIP3   OH231333   5.780   0.403  12.699  0.4387  0.2672 -0.1796
 3281TIP3    H131334   5.869   0.437  12.708 -0.0243  1.5755 -0.2408
 3281TIP3    H231335   5.738   0.424  12.782  0.5926 -1.7083  0.4351
 3282TIP3   OH231336   4.529   6.229   3.679 -0.3699 -0.5109  0.1668
 3282TIP3    H131337   4.519   6.159   3.743  2.0474  0.9880  2.3589
 3282TIP3    H231338   4.526   6.310   3.730  2.1752  0.7626 -1.4630
 3283TIP3   OH231339   3.604   1.046   1.730 -0.0579 -0.0667 -0.0988
 3283TIP3    H131340   3.618   1.135   1.763 -0.7208  0.3856 -1.0098
 3283TIP3    H231341   3.692   1.015   1.708  0.3775 -0.2838  1.7902
 3284TIP3   OH231342   5.342   0.902  15.515  0.0071  0.3958 -0.6462
 3284TIP3    H131343   5.295   0.984  15.499 -0.4236  0.8836  2.4865
 3284TIP3    H231344   5.427   0.915  15.474  0.0448  2.5614 -0.0316
 3285TIP3   OH231345   6.174   5.313  11.660  0.3491  0.3949 -0.7267
 3285TIP3    H131346   6.133   5.399  11.670  1.1797  0.9173 -1.6623
 3285TIP3    H231347   6.262   5.324  11.697  0.5496  0.0282 -1.0904
 3286TIP3   OH231348   6.598   2.202   3.361  0.1917  0.3801 -0.4116
 3286TIP3    H131349   6.543   2.143   3.311 -0.3846  0.2063  0.4011
 3286TIP3    H231350   6.559   2.289   3.347  0.9129  0.5590 -1.4349
 3287TIP3   OH231351   2.322   1.040   2.961  0.2851  0.6364 -0.2131
 3287TIP3    H131352   2.363   1.110   2.910 -0.2824  1.1787  0.0621
 3287TIP3    H231353   2.386   1.020   3.029  0.0300  1.5980  0.3219
 3288TIP3   OH231354   6.478   2.113  15.973  0.2923  0.1214 -0.0244
 3288TIP3    H131355   6.473   2.168  15.895  0.6729 -0.8413 -0.7424
 3288TIP3    H231356   6.450   2.026  15.943 -0.3524 -0.0738  1.0982
 3289TIP3   OH231357   2.818   3.084   1.744 -0.1629  0.0072  0.0864
 3289TIP3    H131358   2.906   3.049   1.754 -0.0928  0.4550  1.2013
 3289TIP3    H231359   2.820   3.167   1.792 -1.2199 -0.0294  0.2112
 3290TIP3   OH231360   2.528   4.029  16.100 -0.4518  0.4209  0.2235
 3290TIP3    H131361   2.554   4.032  16.008 -0.6898  0.3519  0.1535
 3290TIP3    H231362   2.441   4.068  16.101 -0.5714  0.1507  0.3780
 3291TIP3   OH231363   4.906   2.599   3.164 -0.2432  0.0554 -0.6092
 3291TIP3    H131364   4.966   2.673   3.153  0.9492 -0.6411  0.8124
 3291TIP3    H231365   4.952   2.525   3.124  0.7849 -0.8745  2.0428
 3292TIP3   OH231366   1.373   6.294   3.685  0.0951  0.5200  0.5695
 3292TIP3    H131367   1.442   6.321   3.745  0.4980  2.3183 -0.6144
 3292TIP3    H231368   1.406   6.216   3.642  1.0127  0.8408  0.6743
 3293TIP3   OH231369   6.015   5.919  14.206  0.4196 -0.5970  0.4359
 3293TIP3    H131370   6.018   5.930  14.301  0.4663 -1.6702  0.5678
 3293TIP3    H231371   5.923   5.931  14.184  0.1027 -2.0772  0.8541
 3294TIP3   OH231372   3.242   5.174  15.329 -0.1638  0.5602 -0.5659
 3294TIP3    H131373   3.229   5.080  15.337 -1.9151  0.7962 -0.1504
 3294TIP3    H231374   3.165   5.212  15.372  1.5881  2.2299  1.3132
 3295TIP3   OH231375   0.573   3.431   3.934  0.0914  0.0556  0.1811
 3295TIP3    H131376   0.631   3.356   3.945 -0.0025 -0.7046 -3.3362
 3295TIP3    H231377   0.614   3.501   3.985  3.6585 -0.6567 -1.4186
 3296TIP3   OH231378   5.274   2.513  14.741 -0.2780  0.1515 -0.6164
 3296TIP3    H131379   5.279   2.567  14.820 -2.9407  2.5984 -1.9299
 3296TIP3    H231380   5.206   2.449  14.761  0.3977 -0.4721 -0.2864
 3297TIP3   OH231381   5.670   1.227  12.494 -0.4811  0.1095 -0.3553
 3297TIP3    H131382   5.615   1.174  12.437 -0.0965 -0.0169 -0.6172
 3297TIP3    H231383   5.630   1.220  12.581 -2.3149  1.9950 -0.9671
 3298TIP3   OH231384   3.118   2.246   1.807  0.6200 -0.2088  0.5749
 3298TIP3    H131385   3.152   2.334   1.791  0.8431 -0.4863 -0.5477
 3298TIP3    H231386   3.125   2.235   1.902 -0.9677  1.6047  0.9697
 3299TIP3   OH231387   2.575   3.735  11.350  0.2280 -0.4999  0.4781
 3299TIP3    H131388   2.627   3.697  11.279 -2.0757 -1.4709 -0.8312
 3299TIP3    H231389   2.546   3.820  11.316  0.3642 -0.2997  0.8671
 3300TIP3   OH231390   4.088   3.892   4.711  0.5837 -0.1653 -0.2503
 3300TIP3    H131391   4.088   3.905   4.805 -0.9277 -0.0878 -0.2341
 3300TIP3    H231392   4.123   3.804   4.699 -0.2283 -0.6020  0.4744
 3301TIP3   OH231393   2.797   5.384   2.592 -0.7548  0.0388  0.0035
 3301TIP3    H131394   2.877   5.436   2.585 -1.4755  1.0966 -0.8508
 3301TIP3    H231395   2.811   5.327   2.667  0.7989  0.1895 -0.1402
 3302TIP3   OH231396   0.058   6.817  13.787  0.0076  0.0221  0.3779
 3302TIP3    H131397   0.058   6.867  13.705  0.7595  1.4770  1.2271
 3302TIP3    H231398   0.106   6.872  13.849 -0.6375 -0.9963  1.8407
 3303TIP3   OH231399   3.354   2.891   1.072 -0.0108 -0.6345  0.4824
 3303TIP3    H131400   3.421   2.838   1.116  2.3052  1.2837 -0.4590
 3303TIP3    H231401   3.339   2.846   0.989  1.1717 -0.4396  0.1328
 3304TIP3   OH231402   3.127   2.421   0.054 -0.1228 -0.3115 -0.1710
 3304TIP3    H131403   3.186   2.434   0.128  0.5971 -0.0778 -0.7690
 3304TIP3    H231404   3.143   2.497  -0.003  0.3444 -1.1660 -1.2157
 3305TIP3   OH231405   1.575   4.967  16.551  0.0429 -0.0105  0.2577
 3305TIP3    H131406   1.596   4.974  16.459  2.6036  0.8395  0.8369
 3305TIP3    H231407   1.481   4.986  16.556  0.1059  1.1819 -2.0178
 3306TIP3   OH231408   5.506   5.754  15.848  0.4681  0.4101 -0.0842
 3306TIP3    H131409   5.572   5.822  15.835  0.9859  0.2635  1.5590
 3306TIP3    H231410   5.536   5.681  15.795  2.5283 -0.2135  1.8058
 3307TIP3   OH231411   5.268   1.150   0.080 -0.3029 -0.7506  0.3542
 3307TIP3    H131412   5.174   1.131   0.077 -0.1687 -1.4657  0.4574
 3307TIP3    H231413   5.278   1.227   0.025 -0.6262 -2.0633 -1.6406
 3308TIP3   OH231414   0.707   2.357  16.927  0.6272  0.5416  0.6185
 3308TIP3    H131415   0.680   2.286  16.986  1.3586  1.0561  1.5980
 3308TIP3    H231416   0.798   2.338  16.906 -0.2833 -1.0348 -2.4701
 3309TIP3   OH231417   6.596   5.846   6.455 -0.0676 -0.1017 -0.7343
 3309TIP3    H131418   6.576   5.823   6.364  0.9654  2.5592 -1.7607
 3309TIP3    H231419   6.667   5.788   6.480 -0.1703 -0.6824 -1.7396
 3310TIP3   OH231420   4.308   0.614  16.301 -0.2973 -0.1940  0.3707
 3310TIP3    H131421   4.266   0.697  16.276 -1.8759 -0.0961  2.9124
 3310TIP3    H231422   4.381   0.640  16.357 -2.0311 -0.3739  2.9400
 3311TIP3   OH231423   4.675   6.282  16.059 -0.5574  0.5792  0.1932
 3311TIP3    H131424   4.740   6.244  16.118 -1.1034 -0.2750  0.2647
 3311TIP3    H231425   4.684   6.231  15.978 -0.6265  0.9472 -0.0449
 3312TIP3   OH231426   5.576   3.132  10.613  0.1643  0.3745 -0.3248
 3312TIP3    H131427   5.541   3.060  10.665  1.6617  2.1561  3.5021
 3312TIP3    H231428   5.508   3.199  10.616  0.7619  0.9583  0.4795
 3313TIP3   OH231429   3.395   6.008   5.360  0.2513 -0.3774  0.2729
 3313TIP3    H131430   3.469   5.962   5.321  0.0614 -0.0743 -0.4706
 3313TIP3    H231431   3.320   5.984   5.306 -0.0249  0.0354  0.4618
 3314TIP3   OH231432   3.219   0.973  15.231 -0.2099  0.4386  0.1192
 3314TIP3    H131433   3.161   1.032  15.278  0.6956  1.1333  0.3914
 3314TIP3    H231434   3.200   0.987  15.139 -1.5434 -0.4633  0.2264
 3315TIP3   OH231435   1.507   3.153   0.511  0.6632  0.1153 -0.6798
 3315TIP3    H131436   1.514   3.080   0.450  3.4699 -1.5554  1.3937
 3315TIP3    H231437   1.437   3.128   0.572  1.3574 -0.7335 -0.2050
 3316TIP3   OH231438   1.809   4.933  11.928 -0.2845 -0.2399  0.0326
 3316TIP3    H131439   1.753   4.961  12.001  1.8699 -1.0589  2.1702
 3316TIP3    H231440   1.822   5.013  11.876 -0.4994  0.8292  1.5396
 3317TIP3   OH231441   0.646   6.267   3.213  0.2463  0.0910 -0.2621
 3317TIP3    H131442   0.626   6.176   3.191  1.2553 -0.1398 -0.2861
 3317TIP3    H231443   0.677   6.263   3.303 -0.0879  0.4789 -0.1261
 3318TIP3   OH231444   2.087   4.278  13.199  1.1017  0.4310 -0.0341
 3318TIP3    H131445   2.103   4.184  13.202 -1.2921 -0.0053  0.2439
 3318TIP3    H231446   2.154   4.311  13.138  2.1285 -1.3782  0.0380
 3319TIP3   OH231447   0.426   0.336   1.519 -0.0321 -0.2817  0.0127
 3319TIP3    H131448   0.491   0.294   1.463 -0.1589 -0.7645  0.2225
 3319TIP3    H231449   0.368   0.382   1.458  0.4521  0.0822 -0.1812
 3320TIP3   OH231450   2.115   3.753   4.161 -0.2824 -0.1665 -0.0290
 3320TIP3    H131451   2.107   3.689   4.232  0.7010 -1.3506 -0.9321
 3320TIP3    H231452   2.094   3.703   4.082 -3.1071  1.5473 -0.4850
 3321TIP3   OH231453   2.841   2.842   2.854  0.5855  0.0136  0.4843
 3321TIP3    H131454   2.844   2.753   2.821 -1.4319 -0.0917  0.4363
 3321TIP3    H231455   2.818   2.833   2.946  0.1465  0.4696  0.4285
 3322TIP3   OH231456   5.006   1.079   2.534  0.2240 -0.1549 -0.5150
 3322TIP3    H131457   4.945   1.008   2.516 -1.0507  0.8542 -0.3656
 3322TIP3    H231458   4.974   1.152   2.480  1.8553  0.1310 -1.1354
 3323TIP3   OH231459   0.851   0.850  12.560 -0.2162 -0.2607 -0.7103
 3323TIP3    H131460   0.942   0.827  12.578 -0.9189 -1.3042  1.8981
 3323TIP3    H231461   0.834   0.926  12.616 -1.2248 -0.7112 -0.3826
 3324TIP3   OH231462   4.528   4.870   1.289  0.3869  0.4506  0.1239
 3324TIP3    H131463   4.507   4.848   1.198 -1.7156  0.2007  0.6200
 3324TIP3    H231464   4.448   4.910   1.323 -0.3311 -2.8902  2.9514
 3325TIP3   OH231465   2.289   0.286  16.446  0.4628 -0.0414  0.6599
 3325TIP3    H131466   2.241   0.344  16.387 -1.9551 -2.3182  0.2052
 3325TIP3    H231467   2.362   0.254  16.394  2.0292  2.6131  0.9996
 3326TIP3   OH231468   6.377   6.191  11.356  0.2994 -0.1791 -0.1135
 3326TIP3    H131469   6.390   6.257  11.289 -1.1747  2.2930  1.8413
 3326TIP3    H231470   6.465   6.170  11.388  0.8667 -0.0608 -1.5518
 3327TIP3   OH231471   2.618   2.617   2.968  0.6546 -0.2645  0.4206
 3327TIP3    H131472   2.535   2.658   2.994 -1.0867 -2.8492 -0.6420
 3327TIP3    H231473   2.614   2.613   2.873  1.5756 -1.2067  0.4063
 3328TIP3   OH231474   1.051   3.848  11.390  0.2593  0.5252 -0.0490
 3328TIP3    H131475   1.009   3.784  11.333  0.1160 -0.9067  1.5921
 3328TIP3    H231476   0.980   3.903  11.421  0.2427  0.8657 -0.6644
 3329TIP3   OH231477   2.875   0.541   5.129 -0.1678 -0.3503 -0.1413
 3329TIP3    H131478   2.820   0.481   5.078 -1.4786 -0.1466  0.9761
 3329TIP3    H231479   2.947   0.486   5.160  0.3344 -0.6141 -1.6836
 3330TIP3   OH231480   5.826   4.437   0.273  0.1662 -0.4039 -0.1543
 3330TIP3    H131481   5.895   4.374   0.248 -1.2148 -1.6733 -0.9426
 3330TIP3    H231482   5.851   4.518   0.229  1.4360 -0.6706  0.0145
 3331TIP3   OH231483   1.178   6.043   1.353  0.9296  0.2295  0.2391
 3331TIP3    H131484   1.144   6.012   1.269  2.4422  0.1122 -0.3577
 3331TIP3    H231485   1.199   6.135   1.338  0.2850  0.4819  0.8038
 3332TIP3   OH231486   5.287   2.322   4.066  0.1956 -0.4118 -0.2575
 3332TIP3    H131487   5.279   2.417   4.058 -1.3316 -0.5658 -0.8675
 3332TIP3    H231488   5.374   2.309   4.104  1.0039  1.1620 -1.4091
 3333TIP3   OH231489   2.447   1.925  13.178 -0.5453 -0.1636  0.3895
 3333TIP3    H131490   2.421   2.006  13.135 -0.7549  0.3161  1.3884
 3333TIP3    H231491   2.387   1.859  13.143 -1.5119  0.4534  0.8464
 3334TIP3   OH231492   5.549   1.330  16.750 -0.3751  0.6839  0.1404
 3334TIP3    H131493   5.642   1.305  16.748 -0.9676 -1.7528 -0.0077
 3334TIP3    H231494   5.515   1.300  16.666 -1.3984  1.2004  0.3616
 3335TIP3   OH231495   5.086   0.622  15.970 -0.0475  0.4936 -0.1052
 3335TIP3    H131496   5.156   0.609  15.906 -2.8156  0.1132 -3.3698
 3335TIP3    H231497   5.072   0.717  15.971  0.1161  0.5156  0.0692
 3336TIP3   OH231498   3.644   1.822  13.398 -0.4193  0.3847 -0.1446
 3336TIP3    H131499   3.662   1.742  13.448 -1.7668 -0.5455 -1.0592
 3336TIP3    H231500   3.606   1.790  13.316 -3.1646  1.9994  0.3797
 3337TIP3   OH231501   0.575   3.055   4.918  0.1899  0.4699 -0.0705
 3337TIP3    H131502   0.596   3.042   4.825 -1.4182 -1.9652 -0.1854
 3337TIP3    H231503   0.538   3.143   4.922 -0.6850  0.2400 -1.9487
 3338TIP3   OH231504   6.618   0.170  13.679  0.6313  0.1362 -0.4694
 3338TIP3    H131505   6.563   0.212  13.745 -0.4311 -2.1934  0.2646
 3338TIP3    H231506   6.558   0.112  13.632  1.8784 -0.1279 -1.7849
 3339TIP3   OH231507   0.124   0.752  13.126  0.4700 -0.0009  0.0691
 3339TIP3    H131508   0.200   0.694  13.132  1.4612  1.1841 -0.5110
 3339TIP3    H231509   0.094   0.761  13.216  0.6679 -0.9107  0.2449
 3340TIP3   OH231510   6.749   4.334   2.208  0.0522  0.5616  0.6994
 3340TIP3    H131511   6.666   4.383   2.208 -1.6391 -1.9880  2.8824
 3340TIP3    H231512   6.805   4.382   2.269 -0.8700  0.8323  1.3642
 3341TIP3   OH231513   2.569   0.630  16.138 -0.2500 -0.1504 -0.2873
 3341TIP3    H131514   2.528   0.716  16.135 -1.0381 -0.4134  1.6243
 3341TIP3    H231515   2.515   0.575  16.081 -0.2492  0.4082 -0.8319
 3342TIP3   OH231516   0.413   3.034   6.179  0.0021  0.3432 -0.1104
 3342TIP3    H131517   0.326   3.040   6.137  0.5337 -1.9829 -1.7061
 3342TIP3    H231518   0.472   3.075   6.116  0.2437  0.8964  0.4627
 3343TIP3   OH231519   5.483   3.292   5.872  0.0963 -0.1060  0.0198
 3343TIP3    H131520   5.435   3.372   5.895 -1.2574 -1.0997  0.8604
 3343TIP3    H231521   5.537   3.274   5.949  1.6508  0.8474 -0.8096
 3344TIP3   OH231522   6.541   4.184   0.124  0.2878 -0.0599 -0.3227
 3344TIP3    H131523   6.507   4.113   0.071  2.6245 -0.0608 -1.9646
 3344TIP3    H231524   6.596   4.142   0.190 -0.4651  0.1108  0.4399
 3345TIP3   OH231525   1.873   3.821  14.423 -0.8786  0.2524  0.0065
 3345TIP3    H131526   1.935   3.891  14.438 -0.3736 -0.2665  0.4069
 3345TIP3    H231527   1.892   3.790  14.334 -2.4237  1.8991 -0.9638
 3346TIP3   OH231528   0.372   1.366   2.937  0.0065  0.1253  0.3554
 3346TIP3    H131529   0.421   1.342   3.016 -0.1434 -0.4927  0.2704
 3346TIP3    H231530   0.281   1.345   2.959  0.1118 -1.2377 -0.4053
 3347TIP3   OH231531   1.637   3.318  16.668  0.2981 -0.6521  0.0714
 3347TIP3    H131532   1.725   3.353  16.680 -0.4550  0.5158  3.0258
 3347TIP3    H231533   1.621   3.264  16.745 -1.3097 -1.5284 -0.8105
 3348TIP3   OH231534   3.695   2.198   1.131  0.2935  0.4995 -0.5408
 3348TIP3    H131535   3.747   2.125   1.163 -0.6862 -0.7204 -1.6367
 3348TIP3    H231536   3.605   2.178   1.158  0.2205  2.2720  0.7955
 3349TIP3   OH231537   4.333   3.223  15.151 -0.1950 -0.7862 -0.2914
 3349TIP3    H131538   4.379   3.158  15.205  1.6544  1.3267  0.8284
 3349TIP3    H231539   4.269   3.172  15.102  1.6289 -3.5648 -0.0156
 3350TIP3   OH231540   2.735   0.499  17.039  0.6610 -0.1230  0.3575
 3350TIP3    H131541   2.646   0.511  17.007  0.7354 -0.3768  0.0513
 3350TIP3    H231542   2.751   0.405  17.032  1.3452  0.0569 -0.6410
 3351TIP3   OH231543   4.530   0.035  12.331  0.0305 -0.0494 -0.4017
 3351TIP3    H131544   4.559  -0.043  12.285  2.7759  0.2474  0.6066
 3351TIP3    H231545   4.519   0.007  12.422  0.8731  0.6499 -0.0635
 3352TIP3   OH231546   5.481   1.734   4.817  0.0777  0.0642  0.1395
 3352TIP3    H131547   5.464   1.739   4.911  1.4244  0.9624  0.3586
 3352TIP3    H231548   5.398   1.760   4.777 -0.1741  0.8379  1.1035
 3353TIP3   OH231549   3.572   0.070  17.020 -0.0934 -0.8900 -0.0016
 3353TIP3    H131550   3.531   0.152  16.993  1.2291 -0.0540  0.4493
 3353TIP3    H231551   3.500   0.008  17.026 -0.7064 -0.9928 -4.5777
 3354TIP3   OH231552   4.756   1.878   3.311 -0.5238  0.1545  0.5675
 3354TIP3    H131553   4.739   1.835   3.395 -1.3765 -1.0060 -0.1635
 3354TIP3    H231554   4.816   1.949   3.332 -1.1222  0.2173  2.2447
 3355TIP3   OH231555   5.273   1.328  11.734  0.1058 -0.2478 -0.5016
 3355TIP3    H131556   5.197   1.385  11.716  1.9770  1.9666 -1.9957
 3355TIP3    H231557   5.339   1.387  11.769  2.0725 -1.5177 -1.8842
 3356TIP3   OH231558   0.303   5.772  12.081 -0.1966 -0.8945 -0.7676
 3356TIP3    H131559   0.221   5.796  12.122  0.7495 -0.3562  0.9155
 3356TIP3    H231560   0.310   5.677  12.096 -0.3122 -0.8688 -0.5517
 3357TIP3   OH231561   4.847   3.586   2.418 -0.5934 -0.7563 -0.3739
 3357TIP3    H131562   4.810   3.667   2.381  0.8612  0.6603  1.1180
 3357TIP3    H231563   4.795   3.570   2.497  0.6729  0.1637  0.6821
 3358TIP3   OH231564   6.273   4.529  14.948  0.3454  0.3321 -0.3666
 3358TIP3    H131565   6.261   4.471  15.024  0.4035 -0.1175 -0.6969
 3358TIP3    H231566   6.326   4.601  14.982  0.1201  0.2897  0.0955
 3359TIP3   OH231567   4.363   3.840  12.461 -0.5692  0.2831 -0.4032
 3359TIP3    H131568   4.389   3.931  12.452 -1.0958  0.5068  0.2007
 3359TIP3    H231569   4.426   3.803  12.523 -1.3178  0.6814  0.6324
 3360TIP3   OH231570   5.457   5.479  16.731  0.0682 -0.1532 -0.2699
 3360TIP3    H131571   5.468   5.456  16.639 -2.2553 -1.0887 -0.3571
 3360TIP3    H231572   5.471   5.397  16.779  0.7648  0.2234  0.1990
 3361TIP3   OH231573   0.225   3.335  16.362 -0.1905  0.3597 -0.2455
 3361TIP3    H131574   0.290   3.307  16.427  0.2197  0.4014 -0.6385
 3361TIP3    H231575   0.182   3.255  16.334  0.9172  0.1090 -1.2979
 3362TIP3   OH231576   0.334   6.429   3.168  1.2543  0.3288 -0.7204
 3362TIP3    H131577   0.315   6.443   3.260  0.4127  2.1254 -1.1079
 3362TIP3    H231578   0.426   6.402   3.166  0.6803 -1.9804  0.7527
 3363TIP3   OH231579   6.594   5.786  12.057 -0.5894  0.0014 -0.2032
 3363TIP3    H131580   6.630   5.873  12.072 -1.9075  0.5735 -0.1662
 3363TIP3    H231581   6.501   5.796  12.078 -0.5866 -1.6536  0.7074
 3364TIP3   OH231582   0.245   2.031   4.698  0.4866  0.1367  0.3421
 3364TIP3    H131583   0.308   2.055   4.629 -0.8628  0.5451 -0.7851
 3364TIP3    H231584   0.190   2.108   4.708 -1.4476 -1.0701 -0.5406
 3365TIP3   OH231585   1.728   1.146  14.878 -0.1153  0.6984  0.3373
 3365TIP3    H131586   1.701   1.054  14.871 -0.5247  0.8035  0.5822
 3365TIP3    H231587   1.654   1.191  14.917  0.0596  1.1506  0.1572
 3366TIP3   OH231588   4.456   5.693   5.397  0.0159  0.0848 -0.4581
 3366TIP3    H131589   4.499   5.778   5.395  1.1220 -0.4491 -1.2796
 3366TIP3    H231590   4.494   5.649   5.473  0.7071 -0.2615 -0.9873
 3367TIP3   OH231591   2.712   2.108   4.212 -0.0088 -0.0103  0.3714
 3367TIP3    H131592   2.677   2.027   4.250  1.6381  0.0214  2.1261
 3367TIP3    H231593   2.657   2.124   4.136 -1.1500 -2.1277  0.6563
 3368TIP3   OH231594   6.387   2.672  14.363  0.1361  0.5826  0.1363
 3368TIP3    H131595   6.384   2.739  14.295 -0.6212  2.7623  2.1917
 3368TIP3    H231596   6.306   2.623  14.351  0.8631 -0.2981 -1.6177
 3369TIP3   OH231597   1.925   2.931   5.793 -0.0500  0.1720  0.1001
 3369TIP3    H131598   1.893   2.967   5.710 -0.6152  0.6861  0.5285
 3369TIP3    H231599   2.015   2.963   5.799  0.7121 -1.5306 -1.2563
 3370TIP3   OH231600   2.350   1.068   5.533 -0.0653 -0.3543  0.5221
 3370TIP3    H131601   2.347   0.987   5.482 -0.8806 -0.8718  1.3336
 3370TIP3    H231602   2.394   1.043   5.615  1.0482  0.4086  0.1758
 3371TIP3   OH231603   3.627   2.685   2.682  0.4085  0.1967  0.8806
 3371TIP3    H131604   3.585   2.666   2.598 -0.0756  1.3281  0.8540
 3371TIP3    H231605   3.717   2.653   2.671  0.4465  0.6089 -0.1852
 3372TIP3   OH231606   5.009   3.095  12.693 -0.8792  0.0737 -0.5527
 3372TIP3    H131607   5.087   3.083  12.638 -0.7869  0.1633 -0.4437
 3372TIP3    H231608   4.956   3.158  12.645 -0.1710  1.2090  0.0939
 3373TIP3   OH231609   0.887   4.344   0.617  0.0433  0.0170 -0.4865
 3373TIP3    H131610   0.904   4.251   0.633  0.4353  0.3214  1.0223
 3373TIP3    H231611   0.793   4.349   0.602 -0.2917 -0.4205  1.2269
 3374TIP3   OH231612   0.287   2.683   0.541 -1.0121  0.8006 -0.2250
 3374TIP3    H131613   0.334   2.636   0.611 -0.7987  2.2234  0.6195
 3374TIP3    H231614   0.244   2.614   0.491  1.2373 -0.4996 -0.4855
 3375TIP3   OH231615   4.556   4.006   2.376 -0.1364 -0.1909  0.0214
 3375TIP3    H131616   4.532   4.069   2.445 -0.3344 -0.5800  0.3113
 3375TIP3    H231617   4.537   3.920   2.415  0.5914 -0.4525 -0.1854
 3376TIP3   OH231618   5.959   5.769   6.609 -0.0281 -0.1112 -0.1836
 3376TIP3    H131619   6.042   5.730   6.635  0.8124  0.3038 -2.0184
 3376TIP3    H231620   5.964   5.772   6.513 -2.2517 -0.2439 -0.3480
 3377TIP3   OH231621   4.206   3.342   0.681  0.3065  0.4096 -0.2259
 3377TIP3    H131622   4.225   3.381   0.766 -0.9412 -0.6045  0.5651
 3377TIP3    H231623   4.283   3.289   0.661  1.3158  1.9168 -0.5477
 3378TIP3   OH231624   3.752   4.898  14.979  0.2530 -0.1610 -0.4035
 3378TIP3    H131625   3.717   4.982  14.950 -0.5654 -1.0524 -2.1110
 3378TIP3    H231626   3.811   4.871  14.908  0.6411 -0.9667  0.2095
 3379TIP3   OH231627   1.661   2.622  10.811 -0.1436  0.6453  0.0529
 3379TIP3    H131628   1.576   2.627  10.768  0.8790  3.5488 -1.9308
 3379TIP3    H231629   1.717   2.575  10.749 -0.2677 -1.5387  1.4844
 3380TIP3   OH231630   2.750   0.722  12.499 -0.4155  0.0955  0.6926
 3380TIP3    H131631   2.736   0.643  12.552  1.9239 -0.4604  0.5488
 3380TIP3    H231632   2.844   0.724  12.482 -0.7559  1.6082 -1.3911
 3381TIP3   OH231633   0.513   1.177  11.268  0.4742 -0.2614  0.5202
 3381TIP3    H131634   0.426   1.145  11.247 -0.3340  0.0252  3.1104
 3381TIP3    H231635   0.566   1.156  11.191 -1.7937 -0.6674 -1.0098
 3382TIP3   OH231636   6.835   6.623   5.179 -0.1973  0.3196  0.3940
 3382TIP3    H131637   6.905   6.604   5.241  0.2462  1.2094  0.1933
 3382TIP3    H231638   6.835   6.549   5.118 -1.8205 -1.4869  2.4267
 3383TIP3   OH231639   3.181   4.747   0.088 -0.1382 -0.3892  0.3123
 3383TIP3    H131640   3.153   4.701   0.008  1.4292 -1.4548  0.3447
 3383TIP3    H231641   3.148   4.693   0.160  2.4204 -2.0399  0.3558
 3384TIP3   OH231642   0.928   3.147  12.031 -0.4267 -0.3078 -0.0488
 3384TIP3    H131643   1.015   3.140  12.069 -0.5630 -1.6212  0.0736
 3384TIP3    H231644   0.885   3.065  12.054 -0.7633 -0.8722 -2.3767
 3385TIP3   OH231645   3.380   3.761  14.682 -0.3256  0.2119 -0.5496
 3385TIP3    H131646   3.372   3.844  14.730 -0.0626 -0.3927  0.5735
 3385TIP3    H231647   3.365   3.693  14.749 -1.0061 -0.6452 -1.5411
 3386TIP3   OH231648   6.000   3.372  12.315 -0.2920 -0.4075 -0.1821
 3386TIP3    H131649   6.005   3.285  12.354 -0.4841  0.1933  1.2803
 3386TIP3    H231650   6.078   3.378  12.260 -0.0360 -1.3391  0.0530
 3387TIP3   OH231651   4.780   5.203  14.687  0.9083 -0.2797  0.1509
 3387TIP3    H131652   4.695   5.201  14.730  0.2358 -0.8541 -1.1642
 3387TIP3    H231653   4.832   5.265  14.739 -0.4025  0.3184  0.7759
 3388TIP3   OH231654   3.782   1.103  15.622  0.2133 -0.0407 -0.6379
 3388TIP3    H131655   3.848   1.038  15.599 -0.4190  0.0596 -3.0462
 3388TIP3    H231656   3.760   1.084  15.713  0.4967 -2.8302 -1.0594
 3389TIP3   OH231657   1.563   0.784   3.569  0.1273 -0.3933 -0.4885
 3389TIP3    H131658   1.541   0.877   3.568 -1.1970 -0.7001 -0.8526
 3389TIP3    H231659   1.488   0.741   3.610  1.3360 -1.1743  1.0551
 3390TIP3   OH231660   4.665   5.077  13.325  0.0805 -0.0313 -0.0015
 3390TIP3    H131661   4.757   5.053  13.340  0.3457  1.1049  0.2371
 3390TIP3    H231662   4.617   5.028  13.392  0.4290 -1.1374 -0.5336
 3391TIP3   OH231663   6.182   6.512   0.775 -0.0010  0.5425  0.3605
 3391TIP3    H131664   6.161   6.422   0.752  0.9217  0.2064  0.7713
 3391TIP3    H231665   6.142   6.525   0.861  2.0800 -0.3874  1.5540
 3392TIP3   OH231666   4.455   3.145  16.087 -0.1655  0.1400  0.3654
 3392TIP3    H131667   4.421   3.096  16.162 -0.6157 -0.7510 -0.3992
 3392TIP3    H231668   4.405   3.226  16.086  0.0300  0.2808  1.1756
 3393TIP3   OH231669   4.762   4.328  15.030 -0.1589 -0.8400  0.1470
 3393TIP3    H131670   4.723   4.247  14.996 -0.5086 -1.1621  1.2712
 3393TIP3    H231671   4.694   4.394  15.017  0.3122 -0.6060 -1.2244
 3394TIP3   OH231672   3.858   1.654  11.917  0.1434 -0.0894 -0.2219
 3394TIP3    H131673   3.798   1.584  11.891  0.9497 -0.7740 -0.2827
 3394TIP3    H231674   3.817   1.695  11.993 -0.1591 -0.8884  0.0541
 3395TIP3   OH231675   6.778   1.116   5.425  0.4810 -0.1793 -0.1345
 3395TIP3    H131676   6.858   1.164   5.401  1.8426 -1.1662  2.1026
 3395TIP3    H231677   6.809   1.042   5.477 -1.9532 -0.0374  1.6885
 3396TIP3   OH231678   6.814   6.434   5.599 -0.3309  0.0899  0.4227
 3396TIP3    H131679   6.779   6.492   5.531 -0.6273  2.1592  2.2365
 3396TIP3    H231680   6.864   6.492   5.656 -1.0232 -1.3592  2.6188
 3397TIP3   OH231681   2.336   2.251  11.355  0.1527  0.7823 -0.0692
 3397TIP3    H131682   2.417   2.251  11.305 -0.5281 -0.5475 -1.2459
 3397TIP3    H231683   2.326   2.341  11.385  0.5590  1.6743 -2.4080
 3398TIP3   OH231684   6.004   4.150   5.315 -0.0101  0.2083 -0.4963
 3398TIP3    H131685   5.928   4.149   5.374 -0.3408  0.5678 -0.9185
 3398TIP3    H231686   6.075   4.184   5.369 -0.2135  0.1416 -0.1823
 3399TIP3   OH231687   0.343   2.841   1.564  0.0933 -0.0525 -0.4674
 3399TIP3    H131688   0.391   2.835   1.646  0.2118 -0.1670 -0.5450
 3399TIP3    H231689   0.361   2.758   1.519 -1.4827 -0.8257  0.2299
 3400TIP3   OH231690   4.222   0.483   5.255  0.9016 -0.4791  0.0447
 3400TIP3    H131691   4.306   0.516   5.223  0.6283 -1.1708 -1.4646
 3400TIP3    H231692   4.195   0.546   5.321  2.9425 -0.6170  1.0891
 3401TIP3   OH231693   2.644   5.213   6.522  0.0040 -0.2993 -0.5256
 3401TIP3    H131694   2.706   5.174   6.584 -0.9531 -0.1476  0.5596
 3401TIP3    H231695   2.560   5.175   6.545 -0.7514  1.4280 -0.2651
 3402TIP3   OH231696   0.812   1.546  11.611  0.1392 -0.2514  0.4225
 3402TIP3    H131697   0.792   1.515  11.523  0.6878  0.3533  0.0724
 3402TIP3    H231698   0.727   1.547  11.656 -0.0079 -1.4155  0.1901
 3403TIP3   OH231699   6.667   5.594   4.960 -0.1911  0.0678  0.3367
 3403TIP3    H131700   6.753   5.564   4.988  1.5091  3.9308 -0.0423
 3403TIP3    H231701   6.664   5.575   4.866 -0.2442 -1.0046  0.5433
 3404TIP3   OH231702   5.403   0.752  12.178 -0.8006 -0.1597 -0.1104
 3404TIP3    H131703   5.342   0.698  12.128 -1.0468 -0.9456  1.0091
 3404TIP3    H231704   5.487   0.738  12.136 -1.0818 -0.4515 -0.5836
 3405TIP3   OH231705   3.658   5.818  15.549  0.2431 -0.3540  0.9339
 3405TIP3    H131706   3.693   5.751  15.609 -0.1065 -0.9397  0.5008
 3405TIP3    H231707   3.612   5.879  15.606  1.4549  0.1057  1.4528
 3406TIP3   OH231708   0.557   0.651   3.895  0.5096 -0.4582 -0.1070
 3406TIP3    H131709   0.504   0.612   3.825  0.2867 -0.4158  0.0382
 3406TIP3    H231710   0.629   0.695   3.849  0.3040 -0.3395 -0.3168
 3407TIP3   OH231711   3.862   1.448   5.389  0.0933 -0.0237 -0.6166
 3407TIP3    H131712   3.855   1.423   5.481  0.0801 -1.8182 -1.0732
 3407TIP3    H231713   3.838   1.540   5.388  0.4744  0.1471  1.2273
 3408TIP3   OH231714   4.502   6.522   1.285  0.3266  0.3864 -0.0125
 3408TIP3    H131715   4.535   6.551   1.200 -1.0317 -0.3392 -0.8103
 3408TIP3    H231716   4.576   6.534   1.345  2.2540 -1.6977 -1.8189
 3409TIP3   OH231717   2.156   6.737   5.025  0.1461  0.6576  0.0380
 3409TIP3    H131718   2.069   6.698   5.029  0.7739 -0.7043  1.0792
 3409TIP3    H231719   2.215   6.668   5.053  1.8063  0.9386 -2.4227
 3410TIP3   OH231720   4.580   0.899  13.004  0.0330  0.2125 -0.4217
 3410TIP3    H131721   4.668   0.890  12.969  0.1436  1.2388 -0.4488
 3410TIP3    H231722   4.592   0.928  13.094 -0.2714  0.9037 -0.5950
 3411TIP3   OH231723   1.547   0.414   0.156 -0.1586  0.3492  0.3200
 3411TIP3    H131724   1.544   0.439   0.063  2.0105 -2.4360 -0.6521
 3411TIP3    H231725   1.596   0.484   0.198 -0.6536  1.3678 -0.7200
 3412TIP3   OH231726   5.387   5.844  16.069  0.7021  0.2764  0.4087
 3412TIP3    H131727   5.409   5.798  15.988  0.6628 -0.9346  1.0610
 3412TIP3    H231728   5.446   5.919  16.071 -0.2850  1.1828 -1.4518
 3413TIP3   OH231729   4.219   6.327   3.317 -0.1482  0.2478  0.7235
 3413TIP3    H131730   4.231   6.323   3.412  0.0633 -1.2595  0.6618
 3413TIP3    H231731   4.127   6.303   3.304 -0.1480  0.3442  0.5405
 3414TIP3   OH231732   4.482   1.414  11.403 -0.3670 -0.0634 -0.1409
 3414TIP3    H131733   4.576   1.405  11.414 -0.4103 -0.6108 -0.2010
 3414TIP3    H231734   4.444   1.344  11.455 -0.6025 -2.1315 -2.8773
 3415TIP3   OH231735   2.171   4.105  15.758 -0.7290  0.6221 -0.4661
 3415TIP3    H131736   2.135   4.047  15.826 -0.3304 -0.9131 -1.5065
 3415TIP3    H231737   2.110   4.098  15.685  1.7374 -2.5905 -2.5515
 3416TIP3   OH231738   4.965   5.343  16.494  0.0594  0.3593 -0.2542
 3416TIP3    H131739   5.038   5.332  16.556 -1.1367  1.4690  1.4418
 3416TIP3    H231740   4.986   5.423  16.447  0.7515 -0.2484 -1.0178
 3417TIP3   OH231741   3.393   3.420  11.363  0.2829 -0.1626  0.1249
 3417TIP3    H131742   3.427   3.337  11.399  0.4172  0.5559  1.7263
 3417TIP3    H231743   3.298   3.411  11.369  0.3074 -0.0026  0.7679
 3418TIP3   OH231744   2.126   3.130   2.079  0.3493 -0.6706 -0.4842
 3418TIP3    H131745   2.176   3.209   2.057 -2.3609  0.2169 -4.4650
 3418TIP3    H231746   2.189   3.058   2.070  1.8324  0.6776 -1.3618
 3419TIP3   OH231747   2.624   4.796   4.788 -0.3031 -0.1832  0.3804
 3419TIP3    H131748   2.568   4.783   4.712 -1.0155  1.0263  0.6813
 3419TIP3    H231749   2.710   4.820   4.751 -0.2447 -1.0440 -0.0571
 3420TIP3   OH231750   5.452   1.814   2.708  0.2771  0.1746  0.3495
 3420TIP3    H131751   5.411   1.901   2.711 -1.4628 -0.6129  0.3050
 3420TIP3    H231752   5.520   1.818   2.775 -0.5162  1.2184  1.1427
 3421TIP3   OH231753   1.172   5.198  16.991  0.4418 -0.0764 -0.3201
 3421TIP3    H131754   1.252   5.191  16.938 -0.2529 -1.3147 -1.2794
 3421TIP3    H231755   1.154   5.292  16.994  2.2421  0.2922  0.4339
 3422TIP3   OH231756   3.442   4.391   4.878 -0.0346 -0.2501  0.3908
 3422TIP3    H131757   3.395   4.406   4.796  0.7297  2.0275  0.2896
 3422TIP3    H231758   3.373   4.367   4.941 -0.6838 -1.5953 -0.7684
 3423TIP3   OH231759   4.918   1.337   0.829  0.1924 -0.6666  0.2139
 3423TIP3    H131760   4.831   1.300   0.819  0.9578 -2.7768  1.0151
 3423TIP3    H231761   4.917   1.379   0.915 -0.5655  0.9773 -0.5511
 3424TIP3   OH231762   4.316   0.659  11.008 -0.2091 -0.8731 -0.1397
 3424TIP3    H131763   4.375   0.718  11.055 -1.2776 -1.8657  2.7107
 3424TIP3    H231764   4.248   0.717  10.972 -0.1169 -0.1391  0.8108
 3425TIP3   OH231765   3.410   2.002   5.222 -0.4039 -0.2510 -0.4243
 3425TIP3    H131766   3.383   2.035   5.136 -1.0285 -1.7572 -0.8401
 3425TIP3    H231767   3.411   1.907   5.212  3.7153 -0.4243  0.0018
 3426TIP3   OH231768   5.855   4.616   0.516  0.2554 -0.1769 -0.2054
 3426TIP3    H131769   5.836   4.558   0.442 -0.8849 -0.9658  0.6777
 3426TIP3    H231770   5.834   4.703   0.483 -1.1812 -0.6156 -0.5351
 3427TIP3   OH231771   3.465   4.576   1.546 -1.0912  0.2487 -0.5196
 3427TIP3    H131772   3.477   4.510   1.614  0.7615  0.5196 -0.5331
 3427TIP3    H231773   3.546   4.627   1.547 -1.1311  0.4795 -2.6659
 3428TIP3   OH231774   3.907   6.362   2.493  0.0019 -0.0531 -0.4199
 3428TIP3    H131775   3.960   6.309   2.434  1.4293  0.3904  0.4173
 3428TIP3    H231776   3.860   6.299   2.548  0.8781 -0.4649 -0.1341
 3429TIP3   OH231777   2.477   3.679  14.789  0.0699  0.0547 -0.2093
 3429TIP3    H131778   2.433   3.623  14.725  0.2627 -1.1446  0.6719
 3429TIP3    H231779   2.405   3.716  14.841 -0.0545  0.5839 -0.7483
 3430TIP3   OH231780   5.226   0.533  17.072 -0.1084 -0.0246 -0.4248
 3430TIP3    H131781   5.226   0.615  17.121  0.2102  0.1167 -0.6570
 3430TIP3    H231782   5.177   0.553  16.992  0.9352  0.2626 -1.0088
 3431TIP3   OH231783   3.927   0.563   1.350 -0.1881  0.6772 -0.0487
 3431TIP3    H131784   4.007   0.611   1.371  0.8196 -0.0819 -1.9204
 3431TIP3    H231785   3.856   0.624   1.372  0.9416  1.8596  0.4519
 3432TIP3   OH231786   4.291   1.573   0.268  0.2605 -0.2648  0.4171
 3432TIP3    H131787   4.371   1.549   0.315  0.6738 -0.5945 -0.4356
 3432TIP3    H231788   4.237   1.494   0.272  0.3504 -0.3360  0.2262
 3433TIP3   OH231789   0.602   3.745  11.801  0.1601  0.2131  0.0962
 3433TIP3    H131790   0.644   3.667  11.766 -0.4079  0.1155 -0.3770
 3433TIP3    H231791   0.591   3.803  11.726  0.1188  0.5364  0.3500
 3434TIP3   OH231792   3.634   1.436   0.142 -0.2893 -0.2748 -0.2208
 3434TIP3    H131793   3.595   1.355   0.178  0.0842 -0.2138  0.3271
 3434TIP3    H231794   3.558   1.488   0.115 -0.5219 -1.0356 -1.0917
 3435TIP3   OH231795   1.163   0.274   1.824  0.7408  0.2495 -0.0268
 3435TIP3    H131796   1.165   0.367   1.801  0.1645  1.1886  3.3009
 3435TIP3    H231797   1.089   0.239   1.774  1.0497  1.5040 -1.4332
 3436TIP3   OH231798   6.630   6.110  11.450 -0.1242  0.2146  0.0887
 3436TIP3    H131799   6.689   6.139  11.380  2.0053 -0.4196  1.5448
 3436TIP3    H231800   6.632   6.015  11.445  0.3610  0.1543  1.2368
 3437TIP3   OH231801   1.769   4.165   3.550 -0.8888 -0.0628  0.9163
 3437TIP3    H131802   1.848   4.198   3.508 -1.4547  1.4057  0.9154
 3437TIP3    H231803   1.800   4.121   3.629  0.0693 -1.5847 -0.2706
 3438TIP3   OH231804   1.910   5.042   4.977  0.0784 -0.0368  0.1436
 3438TIP3    H131805   1.854   4.998   5.042  0.1436  0.2792  0.4158
 3438TIP3    H231806   1.920   5.131   5.010  0.4920 -0.0035 -0.0611
 3439TIP3   OH231807   2.354   4.055  15.086 -0.4660 -0.0261 -0.2874
 3439TIP3    H131808   2.407   4.008  15.151  0.5983 -1.4021 -2.0556
 3439TIP3    H231809   2.305   3.986  15.042 -0.9810  0.8587 -1.1342
 3440TIP3   OH231810   0.581   6.120   4.348 -0.6007 -0.1565 -0.1250
 3440TIP3    H131811   0.625   6.200   4.377 -0.2529 -0.6567  0.7701
 3440TIP3    H231812   0.561   6.135   4.256  1.6261  0.0273 -0.6332
 3441TIP3   OH231813   1.989   1.369  15.232 -0.3203  0.3985 -0.0991
 3441TIP3    H131814   1.964   1.436  15.169 -0.9578 -0.2783 -0.5836
 3441TIP3    H231815   1.915   1.364  15.293 -0.8616 -0.7103 -0.7938
 3442TIP3   OH231816   2.623   4.374  12.753 -0.5609 -0.2479 -0.3178
 3442TIP3    H131817   2.669   4.322  12.818 -1.4665  0.3158  0.8221
 3442TIP3    H231818   2.542   4.325  12.736 -0.8040  0.1146 -0.2305
 3443TIP3   OH231819   1.235   0.068  13.068 -0.4242  0.1241 -0.1878
 3443TIP3    H131820   1.217  -0.013  13.021  1.8091 -0.4717 -0.1258
 3443TIP3    H231821   1.324   0.091  13.043 -0.5291  1.8516  0.8418
 3444TIP3   OH231822   4.582   0.997  14.539  0.5070  0.2995  1.0116
 3444TIP3    H131823   4.640   0.925  14.515  0.6766  0.4224  1.0533
 3444TIP3    H231824   4.639   1.073  14.545  0.2148  0.5902  0.2292
 3445TIP3   OH231825   2.750   4.865  12.034  0.4221  0.7728  0.7016
 3445TIP3    H131826   2.698   4.913  11.970  0.5817 -0.3304 -0.2876
 3445TIP3    H231827   2.836   4.906  12.030  0.8106 -0.1162 -0.7844
 3446TIP3   OH231828   4.835   4.609   5.749  0.3315  0.1636 -0.6008
 3446TIP3    H131829   4.819   4.554   5.672 -0.7246  0.7536 -0.8210
 3446TIP3    H231830   4.886   4.684   5.715  1.8623 -0.6849 -0.2822
 3447TIP3   OH231831   5.711   3.222   6.028 -0.1490  0.0674  0.7016
 3447TIP3    H131832   5.755   3.249   6.109 -0.7600 -1.3452  1.5499
 3447TIP3    H231833   5.759   3.266   5.958 -0.0037  1.8665  1.8551
 3448TIP3   OH231834   1.527   2.970   1.358 -0.0686  0.0151  0.0446
 3448TIP3    H131835   1.584   3.017   1.419 -0.9654  0.0008  0.9271
 3448TIP3    H231836   1.476   3.040   1.316  1.7599  0.2085 -2.0782
 3449TIP3   OH231837   1.669   6.784   1.660  0.1994  0.4964 -1.0144
 3449TIP3    H131838   1.709   6.865   1.630  3.0531 -0.5072 -0.2449
 3449TIP3    H231839   1.741   6.721   1.663 -1.2782 -1.2730  1.2627
 3450TIP3   OH231840   2.929   0.731  14.700 -0.1197 -0.3608  0.0200
 3450TIP3    H131841   2.885   0.770  14.776  0.4051  0.3167 -0.0110
 3450TIP3    H231842   2.996   0.674  14.737  0.7504  0.6809  0.0789
 3451TIP3   OH231843   5.798   3.126  14.790  0.1508  0.5314 -0.0085
 3451TIP3    H131844   5.886   3.109  14.826  0.8574 -0.4948 -2.0553
 3451TIP3    H231845   5.812   3.131  14.696 -1.7205  2.4276 -0.2471
 3452TIP3   OH231846   1.841   5.466  11.870  0.0095  0.3702  0.4186
 3452TIP3    H131847   1.784   5.528  11.826 -0.8415 -0.5420  0.1980
 3452TIP3    H231848   1.920   5.464  11.817 -0.4092  0.4051 -0.2144
 3453TIP3   OH231849   2.536   3.835   1.729 -0.2043 -0.2226  0.2767
 3453TIP3    H131850   2.479   3.791   1.791 -0.0958 -2.6228 -1.1955
 3453TIP3    H231851   2.542   3.775   1.654  0.8471  1.8475 -1.4380
 3454TIP3   OH231852   4.174   4.967   3.420 -0.5317 -0.0256  0.0406
 3454TIP3    H131853   4.087   4.974   3.382 -0.4616  2.2798  0.1762
 3454TIP3    H231854   4.217   4.899   3.368 -2.4485 -1.3752  0.1234
 3455TIP3   OH231855   5.914   6.624  16.311 -0.1440 -0.2345  0.9229
 3455TIP3    H131856   5.829   6.598  16.277 -0.1258  0.5150  0.2622
 3455TIP3    H231857   5.928   6.712  16.276  0.4843  0.0276  1.7853
 3456TIP3   OH231858   5.768   4.761  14.007 -0.3255 -0.1685  0.0201
 3456TIP3    H131859   5.714   4.686  14.031 -1.4805  1.1226  1.6749
 3456TIP3    H231860   5.705   4.827  13.978  0.7456 -0.1859 -2.6706
 3457TIP3   OH231861   6.647   5.961   4.851  0.5278 -0.3684 -0.1263
 3457TIP3    H131862   6.651   6.018   4.928 -0.1783 -0.6867  0.1588
 3457TIP3    H231863   6.723   5.904   4.860  0.2749 -0.6230  0.5279
 3458TIP3   OH231864   2.562   2.557   1.322 -0.2198 -0.5270  0.6457
 3458TIP3    H131865   2.541   2.576   1.413  2.3331  0.1106  1.1725
 3458TIP3    H231866   2.477   2.547   1.280 -1.5631  1.6854  2.5640
 3459TIP3   OH231867   1.868   3.732  13.598  0.2049 -0.0238  0.1136
 3459TIP3    H131868   1.960   3.716  13.576  0.7541  1.2357  1.3085
 3459TIP3    H231869   1.859   3.697  13.687  0.1587  1.7990  0.8645
 3460TIP3   OH231870   1.468   3.325   2.395 -0.2077  0.2343 -0.4639
 3460TIP3    H131871   1.401   3.305   2.461 -0.4678  0.4634 -0.6578
 3460TIP3    H231872   1.551   3.307   2.439 -0.3820  0.3847 -0.0699
 3461TIP3   OH231873   0.779   5.709  10.788 -0.0106 -0.6559 -0.6495
 3461TIP3    H131874   0.753   5.774  10.853  1.1023 -1.1662  0.3506
 3461TIP3    H231875   0.842   5.755  10.732  1.4973 -1.0865  0.6287
 3462TIP3   OH231876   6.303   6.091   3.301  0.0084  0.5834  0.2501
 3462TIP3    H131877   6.254   6.166   3.336 -0.0875  0.5023  0.2882
 3462TIP3    H231878   6.394   6.119   3.305  0.0073  0.5352  0.6607
 3463TIP3   OH231879   0.463   1.247  12.626  0.0281  0.4617  0.5631
 3463TIP3    H131880   0.471   1.338  12.654  1.0479  0.9377 -1.1436
 3463TIP3    H231881   0.536   1.202  12.669 -0.2981  0.4993  1.1674
 3464TIP3   OH231882   1.573   5.257  13.965 -0.4117 -0.6195 -0.1765
 3464TIP3    H131883   1.558   5.213  13.881 -2.5116 -1.9718  0.8148
 3464TIP3    H231884   1.657   5.222  13.996  0.0115 -0.6802 -1.3604
 3465TIP3   OH231885   0.439   0.918  11.887 -0.2064 -0.4967 -0.2068
 3465TIP3    H131886   0.349   0.891  11.871 -0.5641 -0.7626  1.8954
 3465TIP3    H231887   0.435   0.967  11.969  1.7928 -2.1806  1.0178
 3466TIP3   OH231888   3.877   2.291  13.395  0.5798 -0.1320  0.6664
 3466TIP3    H131889   3.823   2.296  13.473  1.3135  0.1642  1.1715
 3466TIP3    H231890   3.912   2.202  13.395  0.0229 -0.3592  0.2795
 3467TIP3   OH231891   6.540   3.849   6.484  0.2114 -0.3240 -0.7032
 3467TIP3    H131892   6.448   3.825   6.471  0.0012  0.3123 -0.4267
 3467TIP3    H231893   6.539   3.910   6.558  1.1746 -2.4440  1.1619
 3468TIP3   OH231894   6.119   2.812  16.474  0.0710  0.2595  0.0556
 3468TIP3    H131895   6.064   2.887  16.494  0.7340  1.0039 -0.8334
 3468TIP3    H231896   6.196   2.823  16.530  0.0518  0.0980  0.1159
 3469TIP3   OH231897   4.529   4.543   0.662  0.1569 -0.1328 -0.1369
 3469TIP3    H131898   4.476   4.592   0.725 -0.6024 -0.5317 -0.4495
 3469TIP3    H231899   4.617   4.542   0.700 -0.8338 -2.9659  2.4715
 3470TIP3   OH231900   3.888   6.274  16.968  0.4649  0.3262  0.3278
 3470TIP3    H131901   3.816   6.214  16.951 -0.5595  2.1444 -2.3726
 3470TIP3    H231902   3.966   6.228  16.936  0.2616 -0.8480  1.4325
 3471TIP3   OH231903   5.070   3.228  13.183 -0.0287  0.1826 -0.1598
 3471TIP3    H131904   5.156   3.244  13.143  0.3171  1.9219  1.1338
 3471TIP3    H231905   5.087   3.162  13.250  0.1874  0.1119 -0.2817
 3472TIP3   OH231906   1.088   1.740   3.725  0.4775 -0.6626 -0.1836
 3472TIP3    H131907   1.101   1.664   3.782  1.9010  0.1385  0.5983
 3472TIP3    H231908   1.056   1.809   3.784  0.3892 -0.2892 -0.6627
 3473TIP3   OH231909   5.899   0.562  11.194  0.1686  0.5275 -0.3762
 3473TIP3    H131910   5.917   0.522  11.109  1.3741  0.8799 -0.3153
 3473TIP3    H231911   5.976   0.542  11.247 -0.5074  0.4316  0.5947
 3474TIP3   OH231912   4.100   1.031  15.227 -0.1700  0.7403 -0.4944
 3474TIP3    H131913   4.159   1.052  15.154  0.2363  0.5960 -0.2069
 3474TIP3    H231914   4.069   0.942  15.208  0.0268  0.6580 -0.4294
 3475TIP3   OH231915   0.956   4.479  10.879  0.2288  0.0217 -0.5214
 3475TIP3    H131916   0.873   4.467  10.834  0.2253  1.0980 -0.8359
 3475TIP3    H231917   0.952   4.568  10.913  1.0445 -0.0947 -0.0969
 3476TIP3   OH231918   1.325   1.284  14.506  0.4271  0.6906  0.1048
 3476TIP3    H131919   1.347   1.224  14.435  0.1788  0.4924  0.1959
 3476TIP3    H231920   1.243   1.325  14.478 -0.8642 -0.9877  1.2569
 3477TIP3   OH231921   1.198   4.870   5.990 -0.3863  0.4055  0.1049
 3477TIP3    H131922   1.104   4.871   6.007 -0.5973  4.1265 -0.5795
 3477TIP3    H231923   1.206   4.884   5.895  0.8262  1.4101  0.3236
 3478TIP3   OH231924   2.133   3.647  17.089 -0.4705  0.6880  0.5227
 3478TIP3    H131925   2.207   3.609  17.135  0.8672  1.4785 -0.8664
 3478TIP3    H231926   2.144   3.742  17.098 -0.7061  0.8412 -0.5744
 3479TIP3   OH231927   5.065   3.067  13.825 -0.5319 -0.1919 -0.2557
 3479TIP3    H131928   4.979   3.039  13.855 -0.4235 -0.0285  0.2109
 3479TIP3    H231929   5.047   3.143  13.770 -0.5873  0.7255  0.9863
 3480TIP3   OH231930   2.133   4.205   5.629  0.2541 -0.0425 -0.4140
 3480TIP3    H131931   2.108   4.296   5.618  0.0528  0.0415  0.6209
 3480TIP3    H231932   2.166   4.178   5.543 -2.8783 -0.0317 -1.7549
 3481TIP3   OH231933   0.478   1.435  13.491 -0.7094  0.1486 -0.2469
 3481TIP3    H131934   0.516   1.421  13.578  1.9294  1.3200 -1.1119
 3481TIP3    H231935   0.430   1.518  13.499 -1.8978 -0.5738  0.4611
 3482TIP3   OH231936   2.266   2.398   0.049 -0.1869  0.3019  0.4892
 3482TIP3    H131937   2.312   2.316   0.065 -0.9547 -0.3045 -0.2813
 3482TIP3    H231938   2.173   2.373   0.046 -0.3611  1.0203 -0.7739
 3483TIP3   OH231939   1.339   2.338  12.224  0.0196  0.1566 -0.0079
 3483TIP3    H131940   1.343   2.314  12.131  1.6313  0.5702 -0.0778
 3483TIP3    H231941   1.269   2.403  12.230 -1.4548 -1.2891 -0.5609
 3484TIP3   OH231942   3.755   3.850  13.871  0.3015  0.3257 -0.1017
 3484TIP3    H131943   3.763   3.827  13.963 -0.8011 -1.2945 -0.3566
 3484TIP3    H231944   3.786   3.773  13.824 -2.1699 -0.1974 -1.0336
 3485TIP3   OH231945   0.106   2.716  16.560  0.3616  0.5652  0.0475
 3485TIP3    H131946   0.139   2.697  16.473  1.2796 -1.3573  0.7613
 3485TIP3    H231947   0.179   2.758  16.605  0.9346 -1.0467  0.7214
 3486TIP3   OH231948   2.167   4.738  12.804 -0.1666 -0.3381 -0.1826
 3486TIP3    H131949   2.115   4.793  12.746 -0.4510 -0.6041 -0.1844
 3486TIP3    H231950   2.205   4.671  12.747 -0.6084 -0.7179 -0.0352
 3487TIP3   OH231951   6.399   3.135  11.488  0.5025  0.1635 -0.0897
 3487TIP3    H131952   6.471   3.183  11.446 -0.0337  0.8947 -0.1954
 3487TIP3    H231953   6.376   3.067  11.426  0.9922  0.0358 -0.1318
 3488TIP3   OH231954   6.120   5.259   2.782 -0.1940 -0.0093  0.8463
 3488TIP3    H131955   6.086   5.331   2.834  1.5877 -0.2739  2.5139
 3488TIP3    H231956   6.086   5.180   2.824 -0.8127 -0.2054  0.0162
 3489TIP3   OH231957   0.375   1.563  11.557 -0.4685  0.5768 -0.3792
 3489TIP3    H131958   0.326   1.491  11.597 -0.2683 -0.1693 -1.4106
 3489TIP3    H231959   0.314   1.598  11.491 -0.1492  0.5860 -0.6720
 3490TIP3   OH231960   5.540   6.266   2.068  0.0115  0.3625  0.0098
 3490TIP3    H131961   5.518   6.326   1.997  0.5993  1.2352  0.5517
 3490TIP3    H231962   5.632   6.244   2.053  0.2887  0.9484  0.7651
 3491TIP3   OH231963   0.745   0.273  14.070 -0.2700  0.3030 -0.6664
 3491TIP3    H131964   0.808   0.341  14.045 -0.5738  0.5677 -0.7245
 3491TIP3    H231965   0.738   0.281  14.165  0.7358 -0.5716 -0.5029
 3492TIP3   OH231966   4.510   1.908   3.185  0.1648 -0.2953 -0.6501
 3492TIP3    H131967   4.538   1.920   3.095  0.6441 -0.1749 -0.4874
 3492TIP3    H231968   4.591   1.913   3.236 -0.1129 -0.2854 -0.2075
 3493TIP3   OH231969   1.969   5.804  16.807  0.1685  0.0448 -0.1844
 3493TIP3    H131970   1.996   5.819  16.716  1.7035 -1.7770 -0.0859
 3493TIP3    H231971   1.926   5.719  16.806 -0.5399  0.3772  0.6678
 3494TIP3   OH231972   2.148   2.852   4.369 -0.1391 -0.4901 -0.8419
 3494TIP3    H131973   2.061   2.871   4.332 -0.6496 -2.5510 -0.8191
 3494TIP3    H231974   2.208   2.867   4.296 -0.2895  2.2029 -0.5236
 3495TIP3   OH231975   4.155   5.682   3.417  0.2932 -0.0723  0.6301
 3495TIP3    H131976   4.120   5.744   3.480  0.4413  1.0611 -0.3589
 3495TIP3    H231977   4.086   5.674   3.350  0.7805  0.0215  0.1055
 3496TIP3   OH231978   3.571   5.972   3.801 -0.2909 -0.4852 -0.8149
 3496TIP3    H131979   3.622   5.919   3.863 -0.3254  0.2552 -0.1355
 3496TIP3    H231980   3.522   5.908   3.750 -1.4433 -1.0906  0.9564
 3497TIP3   OH231981   0.494   2.944  14.391 -0.2559 -0.1412  0.8967
 3497TIP3    H131982   0.434   2.932  14.465 -2.0926 -1.9473 -0.7851
 3497TIP3    H231983   0.515   2.855  14.362  0.8694  0.5177 -0.4190
 3498TIP3   OH231984   0.324   1.650   1.079 -0.0638  0.2523 -0.3771
 3498TIP3    H131985   0.397   1.650   1.140 -0.1421 -0.9760 -0.2689
 3498TIP3    H231986   0.273   1.727   1.103  0.1491  0.0421  0.8096
 3499TIP3   OH231987   0.736   3.056   3.435  0.2408  0.2487 -0.5430
 3499TIP3    H131988   0.773   3.127   3.487  2.0188 -0.5892 -0.5706
 3499TIP3    H231989   0.683   3.100   3.368 -0.3192  1.4256  0.6337
 3500TIP3   OH231990   4.963   2.342   0.198  0.4984 -0.0228  0.0720
 3500TIP3    H131991   5.010   2.278   0.145  3.2455  1.6500  0.2547
 3500TIP3    H231992   5.015   2.422   0.189 -0.5666  1.1134  2.9608
 3501TIP3   OH231993   2.163   0.175   5.226 -0.3046  0.1446 -0.4756
 3501TIP3    H131994   2.131   0.155   5.314  0.3471 -1.6323 -0.6022
 3501TIP3    H231995   2.251   0.137   5.224 -0.0575  0.7459 -1.6894
 3502TIP3   OH231996   4.251   4.589  14.657 -0.2632  0.0991 -0.3332
 3502TIP3    H131997   4.269   4.607  14.564 -0.6927 -0.0598 -0.4478
 3502TIP3    H231998   4.251   4.675  14.698  1.4549  0.0669 -0.1949
 3503TIP3   OH231999   2.220   1.405   4.015  0.1349  0.8878  0.1343
 3503TIP3    H132000   2.218   1.433   3.923  0.0194 -0.4648 -0.3059
 3503TIP3    H232001   2.141   1.351   4.024  0.9174 -0.2210  0.5955
 3504TIP3   OH232002   5.393   4.503   5.640 -0.5611 -0.0638 -0.2239
 3504TIP3    H132003   5.310   4.535   5.677 -0.0876  0.6207  0.2724
 3504TIP3    H232004   5.453   4.577   5.648 -0.6399  0.4481 -3.1597
 3505TIP3   OH232005   5.642   3.406  11.051  0.3711 -0.3289 -0.3860
 3505TIP3    H132006   5.697   3.481  11.025 -0.3425  0.0891 -0.7215
 3505TIP3    H232007   5.639   3.351  10.972 -2.0540  1.0945 -1.4053
 3506TIP3   OH232008   4.474   5.497  15.288  0.2336 -0.3188 -0.8425
 3506TIP3    H132009   4.511   5.410  15.300  0.9013 -0.1011 -1.3402
 3506TIP3    H232010   4.410   5.487  15.218 -1.0877 -0.8107  0.3709
 3507TIP3   OH232011   5.003   6.304  12.355 -0.3424 -0.0761 -0.5883
 3507TIP3    H132012   4.994   6.364  12.429 -0.8415 -1.8992  0.9182
 3507TIP3    H232013   4.923   6.252  12.356  0.3907 -1.2826 -1.3220
 3508TIP3   OH232014   6.590   5.738  16.146  0.0473  0.4528  0.0298
 3508TIP3    H132015   6.622   5.750  16.057 -0.0207  0.4803  0.0086
 3508TIP3    H232016   6.641   5.801  16.198 -0.2223  0.7487 -0.0594
 3509TIP3   OH232017   5.769   5.969  10.614 -0.4087  0.4861  0.1059
 3509TIP3    H132018   5.726   6.054  10.626 -1.5925  0.0882 -1.0366
 3509TIP3    H232019   5.856   5.990  10.580 -1.1085  1.2425 -1.2989
 3510TIP3   OH232020   0.195   6.376   4.066  0.1299  0.1021  0.0029
 3510TIP3    H132021   0.264   6.407   4.008  0.3367  1.2315  0.8104
 3510TIP3    H232022   0.115   6.420   4.035  0.5519  2.2204  1.6093
 3511TIP3   OH232023   4.192   1.126  16.936 -0.1326 -0.0242  0.1238
 3511TIP3    H132024   4.146   1.209  16.930  1.0403  0.5798 -1.1543
 3511TIP3    H232025   4.174   1.082  16.852 -1.3059 -1.4019  1.0474
 3512TIP3   OH232026   6.476   5.073   5.185  0.3822  0.0358 -0.4406
 3512TIP3    H132027   6.410   5.136   5.155 -0.7509 -1.1494 -0.5153
 3512TIP3    H232028   6.497   5.021   5.107  3.9311  2.4241 -1.3448
 3513TIP3   OH232029   1.072   6.485   0.010 -0.0153  0.2582 -0.0353
 3513TIP3    H132030   1.088   6.411   0.069  0.1082  1.2378  1.1974
 3513TIP3    H232031   1.007   6.539   0.055 -0.4940  0.6583 -1.1498
 3514TIP3   OH232032   6.388   3.170  11.766 -0.2838  0.2138  0.7426
 3514TIP3    H132033   6.298   3.137  11.761  0.2344 -1.2828  0.7611
 3514TIP3    H232034   6.417   3.175  11.676  0.0914 -0.7207  0.8043
 3515TIP3   OH232035   2.839   4.599  12.975  0.2027  0.2833 -0.3049
 3515TIP3    H132036   2.816   4.611  13.067 -0.1845 -0.6614 -0.2646
 3515TIP3    H232037   2.880   4.513  12.972  0.9427  0.6470 -0.8910
 3516TIP3   OH232038   2.613   6.393  15.682  0.1622 -0.0222  0.2435
 3516TIP3    H132039   2.626   6.373  15.775  0.1457  0.4136  0.3382
 3516TIP3    H232040   2.569   6.315  15.647 -0.3119  0.0308  0.7146
 3517TIP3   OH232041   6.695   6.610   5.424 -0.4294 -0.4951 -0.6528
 3517TIP3    H132042   6.740   6.665   5.360 -2.6101  0.4201 -1.5057
 3517TIP3    H232043   6.607   6.599   5.388 -1.1212 -1.6224  1.2468
 3518TIP3   OH232044   0.363   0.935   5.697  0.2975 -0.7690  0.4490
 3518TIP3    H132045   0.279   0.960   5.657  0.2277 -0.4801  0.7693
 3518TIP3    H232046   0.341   0.861   5.754  0.4186 -1.2587 -0.1353
 3519TIP3   OH232047   5.213   4.649  16.682 -0.3253  0.3304  0.1750
 3519TIP3    H132048   5.191   4.597  16.604 -1.5430  1.8006 -0.5280
 3519TIP3    H232049   5.308   4.649  16.685 -0.2727 -0.3278 -0.9229
 3520TIP3   OH232050   5.243   3.717   1.163  0.3927 -0.2596  0.0813
 3520TIP3    H132051   5.185   3.774   1.212 -0.4477  0.4740 -1.6788
 3520TIP3    H232052   5.242   3.634   1.211 -1.6738 -0.0906  0.3947
 3521TIP3   OH232053   1.901   5.674  13.547  0.4952 -0.5863 -0.3681
 3521TIP3    H132054   1.819   5.713  13.517  0.3089  1.8063  2.6805
 3521TIP3    H232055   1.886   5.580  13.543 -2.5593 -0.2429  0.3158
 3522TIP3   OH232056   4.883   0.329   3.425 -0.0563  0.2655 -0.6273
 3522TIP3    H132057   4.964   0.337   3.376 -0.3205 -0.2901 -1.1688
 3522TIP3    H232058   4.892   0.392   3.497  1.7891 -1.2929  0.6167
 3523TIP3   OH232059   3.541   2.976  12.675 -0.0498 -0.0012  0.0487
 3523TIP3    H132060   3.635   2.967  12.691  0.1149  0.2303 -0.7555
 3523TIP3    H232061   3.501   2.969  12.762  0.4485 -3.1949  0.1541
 3524TIP3   OH232062   1.567   5.592   5.062 -0.0826  0.4329 -0.4298
 3524TIP3    H132063   1.572   5.497   5.049  0.8832  0.7447 -2.8767
 3524TIP3    H232064   1.481   5.607   5.100  0.6635 -1.5874  2.3565
 3525TIP3   OH232065   3.519   2.648   0.950  0.5462  0.0382 -0.2210
 3525TIP3    H132066   3.494   2.563   0.986  0.5206 -0.5265 -1.5279
 3525TIP3    H232067   3.613   2.640   0.933  0.9732  0.9487  1.3862
 3526TIP3   OH232068   1.935   5.968  11.775 -0.0670 -0.7570  0.4254
 3526TIP3    H132069   1.993   6.044  11.770  1.1725 -1.7352 -1.7188
 3526TIP3    H232070   1.847   6.005  11.781  0.5846  0.8118  0.9068
 3527TIP3   OH232071   0.379   1.751   5.049  0.7949  0.6141  0.0607
 3527TIP3    H132072   0.334   1.679   5.094  0.5646  0.7321  0.0231
 3527TIP3    H232073   0.421   1.710   4.974  0.1041  0.6262 -0.3403
 3528TIP3   OH232074   0.369   0.583   2.962 -0.8471  0.6007  0.7092
 3528TIP3    H132075   0.448   0.636   2.955 -1.1675  1.0776  0.6607
 3528TIP3    H232076   0.382   0.531   3.042  0.4027 -0.8335 -0.3780
 3529TIP3   OH232077   4.785   2.533   5.562 -0.2005  0.5576  0.5169
 3529TIP3    H132078   4.870   2.574   5.576  0.3173 -0.5236  0.6425
 3529TIP3    H232079   4.771   2.479   5.640  0.2812 -1.3902 -0.6557
 3530TIP3   OH232080   0.907   4.486   3.301  0.2874 -0.1410 -0.4039
 3530TIP3    H132081   0.813   4.472   3.314  0.2921 -0.7042 -0.9225
 3530TIP3    H232082   0.917   4.581   3.294 -0.3275 -0.1134 -0.9501
 3531TIP3   OH232083   5.374   5.483   1.853  0.2399  0.5792  0.7522
 3531TIP3    H132084   5.319   5.419   1.808  1.1529 -1.2360  2.1303
 3531TIP3    H232085   5.452   5.490   1.798 -0.2041  1.1667  0.1752
 3532TIP3   OH232086   0.634   1.170   5.246  0.5511  0.0547 -0.2119
 3532TIP3    H132087   0.589   1.249   5.216  0.8614  0.6998  0.9561
 3532TIP3    H232088   0.584   1.142   5.323 -0.3969 -1.7116 -1.4126
 3533TIP3   OH232089   3.700   4.741   1.621  0.0632 -0.8416 -0.3304
 3533TIP3    H132090   3.756   4.817   1.602  0.6859 -1.4862 -1.1626
 3533TIP3    H232091   3.665   4.758   1.708 -0.8427  1.0292 -0.9979
 3534TIP3   OH232092   3.693   2.545  11.180 -0.1874  0.1211 -0.1377
 3534TIP3    H132093   3.747   2.479  11.225  1.6137  1.0374 -0.8437
 3534TIP3    H232094   3.657   2.598  11.251  1.4350  0.6566  0.3386
 3535TIP3   OH232095   4.592   5.994  16.949 -0.8783 -0.3840 -0.3991
 3535TIP3    H132096   4.662   5.977  16.885 -0.2571  0.1041  0.1285
 3535TIP3    H232097   4.639   6.021  17.028 -1.6586 -0.4945  0.1091
 3536TIP3   OH232098   5.477   5.519  14.699 -0.4373  0.2516  0.0371
 3536TIP3    H132099   5.548   5.482  14.751 -1.4118  0.2834  1.4611
 3536TIP3    H232100   5.437   5.444  14.655 -1.2694 -0.1691  1.4687
 3537TIP3   OH232101   0.113   2.461   1.602 -0.3758 -0.1386 -0.4099
 3537TIP3    H132102   0.087   2.537   1.654 -0.2331  1.6694 -2.8060
 3537TIP3    H232103   0.052   2.392   1.628  0.0596  0.4492  2.4936
 3538TIP3   OH232104   1.046   3.620   2.505 -0.4855  0.1074  0.0825
 3538TIP3    H132105   1.125   3.667   2.480 -1.1493  0.5181 -1.3603
 3538TIP3    H232106   1.035   3.554   2.437 -1.7059  0.4607 -0.0912
 3539TIP3   OH232107   2.741   4.208   3.172 -0.0212 -0.1993  0.0479
 3539TIP3    H132108   2.664   4.222   3.117  0.6330  1.6417 -0.4746
 3539TIP3    H232109   2.767   4.118   3.155 -0.8506 -0.2023 -1.3565
 3540TIP3   OH232110   5.139   0.879  13.565 -0.2134 -0.0239 -0.1061
 3540TIP3    H132111   5.159   0.952  13.506 -0.2667  0.8596  0.9468
 3540TIP3    H232112   5.043   0.875  13.564 -0.1960 -0.4363 -0.5750
 3541TIP3   OH232113   4.571   1.156  16.051  0.2731  0.1951 -0.3253
 3541TIP3    H132114   4.589   1.202  16.133  0.1536  0.1625 -0.2815
 3541TIP3    H232115   4.516   1.082  16.076  0.4081  0.0662 -0.4053
 3542TIP3   OH232116   6.107   6.598   3.487 -0.2517 -0.7231 -0.6136
 3542TIP3    H132117   6.082   6.655   3.560  0.0755 -1.2323 -0.0904
 3542TIP3    H232118   6.200   6.579   3.503 -0.9673 -3.6532  0.8409
 3543TIP3   OH232119   6.580   0.449   0.342 -0.2653  0.9736  0.1009
 3543TIP3    H132120   6.675   0.447   0.357 -0.4368 -1.4545  1.2963
 3543TIP3    H232121   6.553   0.537   0.370  1.3871  1.0996  1.4085
 3544TIP3   OH232122   2.451   3.356  12.152 -0.2210 -0.1708  0.3701
 3544TIP3    H132123   2.512   3.340  12.224  0.0546 -2.2848 -0.2682
 3544TIP3    H232124   2.376   3.399  12.194  0.1046 -0.9843  1.8640
 3545TIP3   OH232125   3.203   0.983   3.525 -1.0264 -0.1894  0.7690
 3545TIP3    H132126   3.211   0.919   3.596  0.4227 -1.1049 -0.1677
 3545TIP3    H232127   3.211   1.068   3.568  0.0310 -0.7293  1.6787
 3546TIP3   OH232128   3.967   6.512  14.569  0.4394  0.2328 -0.0331
 3546TIP3    H132129   3.968   6.560  14.652  0.6015  2.9193 -1.4640
 3546TIP3    H232130   3.895   6.551  14.520  1.4686 -0.0293 -1.8215
 3547TIP3   OH232131   1.558   1.454  14.538 -0.4630  0.4593 -0.1938
 3547TIP3    H132132   1.472   1.413  14.547 -0.3533 -0.1355 -1.5463
 3547TIP3    H232133   1.545   1.525  14.475 -0.4482  1.9434  1.4229
 3548TIP3   OH232134   1.235   1.439   4.617 -0.7042 -0.5541 -0.0638
 3548TIP3    H132135   1.282   1.519   4.642  0.9458 -1.7909  1.0100
 3548TIP3    H232136   1.295   1.393   4.559 -1.7254 -0.9466 -0.8374
 3549TIP3   OH232137   5.575   2.475   2.481 -0.6915  0.2874  0.1882
 3549TIP3    H132138   5.559   2.533   2.407  1.6159  1.6985  0.6895
 3549TIP3    H232139   5.566   2.532   2.558  2.8847  0.4891  0.6465
 3550TIP3   OH232140   2.426   2.988  13.341 -0.0245  0.4020 -0.1996
 3550TIP3    H132141   2.379   2.960  13.420  0.9360  1.7275  0.8954
 3550TIP3    H232142   2.514   3.009  13.372  0.2688  1.3125 -1.5704
 3551TIP3   OH232143   4.341   6.095   5.921 -0.1587 -0.1764 -0.0031
 3551TIP3    H132144   4.394   6.021   5.949 -1.1941 -0.8765  0.1753
 3551TIP3    H232145   4.347   6.158   5.993  1.0246  0.0852 -0.3187
 3552TIP3   OH232146   6.136   4.999  14.692 -0.3087  0.0654 -0.3261
 3552TIP3    H132147   6.162   4.985  14.783 -0.3376  0.7022 -0.2091
 3552TIP3    H232148   6.106   5.090  14.690 -1.2633 -0.2514 -0.7506
 3553TIP3   OH232149   0.715   2.463   4.607  0.1104 -0.3158  0.3590
 3553TIP3    H132150   0.795   2.412   4.596 -0.9580 -2.0499  0.0480
 3553TIP3    H232151   0.721   2.500   4.695  1.7777  0.6338 -0.1092
 3554TIP3   OH232152   1.812   2.100  16.132 -0.1607 -0.3047  0.2834
 3554TIP3    H132153   1.851   2.072  16.049  0.7548 -1.3560  1.0381
 3554TIP3    H232154   1.752   2.028  16.155  2.8786 -2.3060  2.6909
 3555TIP3   OH232155   6.668   1.490   0.761  0.5744 -0.3958  0.4304
 3555TIP3    H132156   6.655   1.400   0.731 -3.6469 -0.3757  1.5779
 3555TIP3    H232157   6.707   1.481   0.848  2.8511 -0.8808 -0.5703
 3556TIP3   OH232158   6.151   0.338   4.225  0.5588 -0.2113 -0.3995
 3556TIP3    H132159   6.222   0.330   4.288 -0.3395 -0.5747  0.5989
 3556TIP3    H232160   6.162   0.425   4.187  1.5027 -0.2513 -0.2282
 3557TIP3   OH232161   1.662   4.671  13.803 -0.0631 -0.3604 -0.5587
 3557TIP3    H132162   1.709   4.753  13.819  0.3775  0.7213 -5.5464
 3557TIP3    H232163   1.722   4.618  13.751 -1.6336 -2.3263 -0.5021
 3558TIP3   OH232164   2.601   2.030   4.655  0.4312  0.1435  0.3534
 3558TIP3    H132165   2.638   1.942   4.645  1.4113  0.2854  2.1661
 3558TIP3    H232166   2.525   2.032   4.596  1.3485 -1.3322 -0.9456
 3559TIP3   OH232167   1.500   5.508  16.001 -0.5178  0.0985  0.0370
 3559TIP3    H132168   1.476   5.417  16.013 -0.3890 -0.0084 -0.4774
 3559TIP3    H232169   1.509   5.543  16.090  0.3307 -0.6293  0.2517
 3560TIP3   OH232170   2.610   4.621   5.729  0.2024 -0.2142 -0.0858
 3560TIP3    H132171   2.688   4.572   5.755 -0.1302  0.2792  2.0882
 3560TIP3    H232172   2.537   4.562   5.748 -0.0122 -0.5729 -1.8539
 3561TIP3   OH232173   0.085   2.867   4.988  0.1781 -0.4444 -0.7127
 3561TIP3    H132174   0.066   2.903   4.902  1.4121  2.0136 -0.0305
 3561TIP3    H232175   0.180   2.851   4.988 -0.1164 -2.5776 -0.5179
 3562TIP3   OH232176   0.022   3.762   5.962  0.1126 -0.7212  0.5115
 3562TIP3    H132177   0.018   3.832   6.027  0.5204 -0.8239  0.6532
 3562TIP3    H232178   0.116   3.750   5.947  0.0502 -1.3373  0.6009
 3563TIP3   OH232179   2.057   3.332   2.626  0.1094  0.0432  0.0181
 3563TIP3    H132180   2.100   3.300   2.705  0.4351  1.1609  0.3108
 3563TIP3    H232181   2.116   3.309   2.555 -0.1806 -0.9593  0.0966
 3564TIP3   OH232182   4.664   2.155  15.190 -0.0059  0.1825 -0.0355
 3564TIP3    H132183   4.731   2.087  15.201 -0.0504  0.4204  2.0884
 3564TIP3    H232184   4.583   2.114  15.220 -0.1449  0.9565  0.6953
 3565TIP3   OH232185   6.741   3.791   5.141  0.1297  0.7595 -0.4242
 3565TIP3    H132186   6.665   3.819   5.090 -0.0895 -1.1030 -1.1955
 3565TIP3    H232187   6.810   3.853   5.117 -0.3052  0.6398 -2.1140
 3566TIP3   OH232188   6.466   4.671   5.146 -0.1250  0.4366  0.1460
 3566TIP3    H132189   6.412   4.598   5.115  2.1693 -2.1735  1.7444
 3566TIP3    H232190   6.545   4.667   5.092 -0.6437  3.0195 -0.9570
 3567TIP3   OH232191   4.480   6.657  11.539  0.2119  0.3090 -0.0892
 3567TIP3    H132192   4.559   6.705  11.511  0.2974  0.2936  0.1168
 3567TIP3    H232193   4.421   6.662  11.464  1.5995 -2.4113 -1.4873
 3568TIP3   OH232194   1.803   5.944  13.215 -0.1687  0.5887  0.1910
 3568TIP3    H132195   1.806   5.970  13.123  3.2764  0.9219  0.2867
 3568TIP3    H232196   1.858   6.008  13.260 -0.7882 -0.2814  2.3258
 3569TIP3   OH232197   3.571   3.412   4.577  0.5056  0.6638 -0.2384
 3569TIP3    H132198   3.559   3.321   4.606  0.2784  0.9612  0.6287
 3569TIP3    H232199   3.503   3.461   4.623  1.6307  1.5347  0.5434
 3570TIP3   OH232200   5.127   5.163  12.189  0.3641 -0.2634  0.4720
 3570TIP3    H132201   5.185   5.101  12.145  0.2335 -1.1747  1.5445
 3570TIP3    H232202   5.148   5.248  12.150  0.0804 -1.0594 -1.4905
 3571TIP3   OH232203   0.106   0.019   5.141  0.2222 -0.4698 -0.0804
 3571TIP3    H132204   0.042  -0.052   5.130 -0.4196  0.2218 -0.8624
 3571TIP3    H232205   0.168  -0.016   5.205 -0.3829 -1.5349 -0.0418
 3572TIP3   OH232206   6.061   1.895  12.786  0.2268 -0.4551  0.2399
 3572TIP3    H132207   6.137   1.839  12.769  1.5264  1.2208  0.3040
 3572TIP3    H232208   6.009   1.890  12.706  0.6815 -1.1805 -0.0206
 3573TIP3   OH232209   1.647   5.654   5.462  0.6480 -0.0482  0.0923
 3573TIP3    H132210   1.680   5.638   5.373  0.9946 -1.3363  0.4267
 3573TIP3    H232211   1.703   5.600   5.518  1.4719  1.9398  1.2998
 3574TIP3   OH232212   3.580   4.896   6.235 -0.2342  0.0118 -0.3137
 3574TIP3    H132213   3.587   4.933   6.148 -0.3315  1.6366  0.3388
 3574TIP3    H232214   3.488   4.870   6.242  0.2177 -2.1941 -1.4337
 3575TIP3   OH232215   3.202   2.869   4.066  0.2751  0.6958 -0.0601
 3575TIP3    H132216   3.107   2.871   4.058  0.2794  1.3763  0.0244
 3575TIP3    H232217   3.224   2.776   4.062 -0.5536  0.3639  1.8780
 3576TIP3   OH232218   5.133   3.083   3.243  0.0767  0.6517  0.1102
 3576TIP3    H132219   5.055   3.108   3.193  0.8572  0.4200 -1.2505
 3576TIP3    H232220   5.143   2.989   3.228 -0.5536  0.2413  1.9843
 3577TIP3   OH232221   4.549   6.770  14.151 -0.0746 -0.1165  0.0120
 3577TIP3    H132222   4.542   6.850  14.099 -1.2255 -0.3449 -0.2176
 3577TIP3    H232223   4.462   6.731  14.147  0.0252 -0.5608  1.4517
 3578TIP3   OH232224   6.233   0.084   3.472  0.6803  0.4636 -0.0045
 3578TIP3    H132225   6.255   0.075   3.565  0.7594  0.6085 -0.0100
 3578TIP3    H232226   6.305   0.040   3.426  0.3142 -0.1858  0.0255
 3579TIP3   OH232227   2.903   1.450  15.995  0.4808 -0.6085 -0.4770
 3579TIP3    H132228   2.851   1.375  15.965  0.9630 -1.9589  1.8290
 3579TIP3    H232229   2.987   1.411  16.022  0.9325  0.8491  0.2836
 3580TIP3   OH232230   1.008   2.561   1.041  0.5689 -0.0299 -0.3299
 3580TIP3    H132231   1.067   2.546   1.116 -1.3462 -0.2689  1.2250
 3580TIP3    H232232   1.002   2.656   1.034 -0.3209  0.0241  0.7913
 3581TIP3   OH232233   4.413   0.231  13.068 -0.5862 -0.0258  0.2881
 3581TIP3    H132234   4.354   0.157  13.076 -2.7694  1.4241 -1.4486
 3581TIP3    H232235   4.423   0.245  12.974 -1.4548  2.7418  0.5187
 3582TIP3   OH232236   3.062   1.726   1.099 -0.0391 -0.0485 -0.2780
 3582TIP3    H132237   2.983   1.697   1.144 -0.1779  0.6752 -0.0458
 3582TIP3    H232238   3.107   1.781   1.163  0.0624  0.5018 -0.8177
 3583TIP3   OH232239   6.264   3.489   3.501  0.0316  0.2833 -0.3667
 3583TIP3    H132240   6.274   3.462   3.409 -0.7235  1.9158 -0.9603
 3583TIP3    H232241   6.352   3.484   3.537  0.6825  1.4296 -1.7219
 3584TIP3   OH232242   6.269   1.434   5.253 -0.1011  0.0056 -0.4712
 3584TIP3    H132243   6.216   1.356   5.266 -0.1511 -0.2312 -1.9389
 3584TIP3    H232244   6.302   1.456   5.341 -1.7440 -0.4503  0.2922
 3585TIP3   OH232245   0.911   2.929   4.148 -0.2468 -0.1892 -0.0457
 3585TIP3    H132246   0.922   2.942   4.054 -2.1400 -1.1670 -0.4536
 3585TIP3    H232247   0.867   3.009   4.179  0.4169  0.1514  0.0322
 3586TIP3   OH232248   6.781   5.894   5.850 -0.1947 -0.1705  0.3743
 3586TIP3    H132249   6.854   5.871   5.909 -0.2734  0.6313  0.7949
 3586TIP3    H232250   6.758   5.811   5.809  0.3752 -0.6076  0.8992
 3587TIP3   OH232251   0.539   5.634  13.584  0.2242  0.0085 -0.5519
 3587TIP3    H132252   0.488   5.583  13.647  1.8899 -1.5904 -0.3962
 3587TIP3    H232253   0.522   5.592  13.500  0.0100  0.5028 -0.7563
 3588TIP3   OH232254   6.436   5.148   1.572  0.1866  0.1164 -0.5713
 3588TIP3    H132255   6.366   5.205   1.603  0.0682  0.4542 -1.4157
 3588TIP3    H232256   6.457   5.181   1.484  1.3697 -0.0173 -0.3564
 3589TIP3   OH232257   0.326   1.740   0.801  0.0949 -0.2626 -0.2136
 3589TIP3    H132258   0.342   1.681   0.875  1.9790  0.1337 -0.2409
 3589TIP3    H232259   0.310   1.681   0.727 -1.5654 -0.6626  0.4264
 3590TIP3   OH232260   6.329   0.972  11.731 -0.2964  0.6299  0.1988
 3590TIP3    H132261   6.300   1.020  11.653  0.4366  0.5326 -0.1394
 3590TIP3    H232262   6.298   1.026  11.805 -1.0528  0.6861 -0.1472
 3591TIP3   OH232263   6.389   0.910  15.838  0.3382 -0.4793  0.3093
 3591TIP3    H132264   6.422   0.820  15.838  1.1646 -0.1821  0.8658
 3591TIP3    H232265   6.367   0.928  15.929  0.3018 -0.0776  0.2233
 3592TIP3   OH232266   3.524   0.366   1.771 -0.1624  0.7173 -0.1144
 3592TIP3    H132267   3.581   0.393   1.843  0.7872 -0.7741 -0.2562
 3592TIP3    H232268   3.438   0.401   1.794 -1.1569 -3.5989  4.3717
 3593TIP3   OH232269   3.296   4.344  16.509 -0.5569 -0.2680 -0.0164
 3593TIP3    H132270   3.326   4.363  16.420 -0.8880  1.6280  0.2410
 3593TIP3    H232271   3.354   4.275  16.540 -0.7680 -1.3533 -1.8829
 3594TIP3   OH232272   3.464   3.508   4.305  0.0349  0.2448 -0.2206
 3594TIP3    H132273   3.474   3.417   4.334  0.2443  0.6032  0.9070
 3594TIP3    H232274   3.371   3.527   4.318  0.3080  0.7273  1.3339
 3595TIP3   OH232275   2.410   4.836   4.969  0.1823 -0.2769 -0.3567
 3595TIP3    H132276   2.474   4.779   4.926 -0.2665 -0.2625 -1.0480
 3595TIP3    H232277   2.436   4.834   5.061  0.9021 -0.6382 -0.5538
 3596TIP3   OH232278   2.248   3.428  14.232 -0.9605  0.1365  0.3213
 3596TIP3    H132279   2.310   3.470  14.173 -2.6630  2.6599  0.2071
 3596TIP3    H232280   2.290   3.432  14.318 -0.9917  1.9801  0.2802
 3597TIP3   OH232281   0.917   3.763  13.270  0.3805  0.4681 -0.3609
 3597TIP3    H132282   0.854   3.774  13.342  0.1403 -0.5327 -0.4116
 3597TIP3    H232283   1.003   3.762  13.313  0.2390 -0.1204 -0.0843
 3598TIP3   OH232284   4.398   2.701   2.207  0.1104 -0.3533 -0.2875
 3598TIP3    H132285   4.389   2.751   2.288  0.7531  0.1340 -0.5038
 3598TIP3    H232286   4.488   2.719   2.178 -0.1669 -0.3827 -1.1931
 3599TIP3   OH232287   5.254   0.040   3.602  0.1184 -0.5073 -0.0828
 3599TIP3    H132288   5.308  -0.039   3.596 -0.1909 -0.8045  0.8259
 3599TIP3    H232289   5.206   0.029   3.684  0.7290  1.0404  0.5206
 3600TIP3   OH232290   3.574   0.978   2.581 -0.0556  0.3775 -0.5534
 3600TIP3    H132291   3.490   0.967   2.626  0.9819  1.6110  1.9047
 3600TIP3    H232292   3.616   0.892   2.588 -0.2125  0.3600  0.2598
 3601TIP3   OH232293   4.884   1.618   2.801  0.6529  0.0575  0.2082
 3601TIP3    H132294   4.956   1.605   2.863  0.1110 -2.1113  0.4740
 3601TIP3    H232295   4.909   1.566   2.725 -0.1394  0.1483 -0.1200
 3602TIP3   OH232296   3.654   6.229  11.527 -0.4092  0.0973 -0.5484
 3602TIP3    H132297   3.598   6.182  11.589 -0.3910  0.7459 -0.0389
 3602TIP3    H232298   3.643   6.181  11.445 -0.2168 -0.9380  0.0149
 3603TIP3   OH232299   4.853   5.148   4.157 -0.7153 -0.4965 -0.4971
 3603TIP3    H132300   4.806   5.139   4.241  0.9221 -3.0714  0.2577
 3603TIP3    H232301   4.784   5.145   4.091 -1.8896 -0.4698  0.6690
 3604TIP3   OH232302   2.585   6.123   5.771 -0.6075 -0.6029  0.4325
 3604TIP3    H132303   2.537   6.161   5.697 -0.7237  1.5222  1.5353
 3604TIP3    H232304   2.571   6.184   5.843  0.9792 -1.6924  1.7421
 3605TIP3   OH232305   4.608   2.466  11.966  0.2546  0.1291  0.0142
 3605TIP3    H132306   4.612   2.414  12.047 -0.5340 -0.2846 -0.2028
 3605TIP3    H232307   4.641   2.552  11.991  0.0671 -0.0096  0.7709
 3606TIP3   OH232308   5.727   5.133  17.008  0.0655  0.0875 -0.0724
 3606TIP3    H132309   5.819   5.151  16.990  0.5449  0.9465  2.7483
 3606TIP3    H232310   5.720   5.038  17.004  0.9809  0.0284 -0.5848
 3607TIP3   OH232311   5.999   6.203   3.881  0.2342  0.1607 -0.2948
 3607TIP3    H132312   6.053   6.282   3.879 -1.3920  1.3359  0.2330
 3607TIP3    H232313   5.978   6.186   3.789  1.3904 -0.2702 -0.5017
 3608TIP3   OH232314   6.803   5.706  13.501  0.2972  0.1359  0.1788
 3608TIP3    H132315   6.732   5.675  13.444  1.1162 -0.1890 -0.6839
 3608TIP3    H232316   6.882   5.701  13.447  0.8342  1.5074  0.7795
 3609TIP3   OH232317   4.575   3.944  12.828 -0.2432 -0.7428  0.1841
 3609TIP3    H132318   4.621   3.970  12.908 -0.5693  0.5128 -0.0164
 3609TIP3    H232319   4.632   3.974  12.757 -1.5325  1.2518 -0.0775
 3610TIP3   OH232320   0.521   5.767   4.360  0.8424 -0.2101  0.3671
 3610TIP3    H132321   0.434   5.746   4.392  1.3362 -1.1264  1.1903
 3610TIP3    H232322   0.564   5.682   4.351  1.7587  0.2473  0.2984
 3611TIP3   OH232323   2.630   0.196  11.657  0.0532  0.4213 -0.6211
 3611TIP3    H132324   2.691   0.137  11.614 -1.0760 -1.2173 -0.0753
 3611TIP3    H232325   2.544   0.169  11.626 -0.8502 -0.9138  2.5463
 3612TIP3   OH232326   4.946   3.556  16.542  0.1435 -1.0445 -0.6818
 3612TIP3    H132327   4.956   3.471  16.500  1.9949 -0.8467 -0.7401
 3612TIP3    H232328   4.982   3.619  16.479  1.2180 -0.5369  0.3789
 3613TIP3   OH232329   0.877   3.497  16.120 -0.1510  0.0397  0.4806
 3613TIP3    H132330   0.802   3.444  16.092  0.1422 -0.0632 -0.1160
 3613TIP3    H232331   0.882   3.482  16.215 -1.7531  1.1473  0.7863
 3614TIP3   OH232332   6.078   3.980  11.585 -0.3370  0.1332  0.2966
 3614TIP3    H132333   6.162   3.991  11.630 -0.1252  1.7887 -0.4288
 3614TIP3    H232334   6.089   4.027  11.502 -1.5855 -0.6594 -0.3520
 3615TIP3   OH232335   0.163   1.047   0.370  0.0857 -0.2912  0.6872
 3615TIP3    H132336   0.068   1.055   0.377  0.0179 -1.5759  1.7515
 3615TIP3    H232337   0.184   0.969   0.422  1.5211 -1.1113 -0.9934
 3616TIP3   OH232338   0.045   4.320  13.097  0.2579 -0.0389  0.0938
 3616TIP3    H132339  -0.005   4.256  13.149 -1.5561  0.4357 -0.9737
 3616TIP3    H232340   0.136   4.306  13.123 -0.3426 -1.3962  1.6635
 3617TIP3   OH232341   0.359   4.770   1.547  0.3300 -0.2119 -0.6611
 3617TIP3    H132342   0.399   4.694   1.590  0.7970 -0.2830 -1.2093
 3617TIP3    H232343   0.349   4.835   1.617  0.9093 -0.3917 -0.4051
 3618TIP3   OH232344   6.462   1.680  15.648  0.1941 -0.2038 -0.2326
 3618TIP3    H132345   6.544   1.720  15.617  0.0608 -0.5642 -1.1035
 3618TIP3    H232346   6.491   1.607  15.703  0.4517  0.0977  0.0364
 3619TIP3   OH232347   6.419   5.162  10.542 -0.1677 -0.4224  0.3271
 3619TIP3    H132348   6.378   5.240  10.578  0.6301  0.3697 -0.4267
 3619TIP3    H232349   6.450   5.189  10.455  0.7461 -1.3689  0.3377
 3620TIP3   OH232350   0.130   5.751  12.781  0.1948  0.2736 -0.2996
 3620TIP3    H132351   0.172   5.766  12.866 -0.8235 -0.5166  0.3788
 3620TIP3    H232352   0.202   5.750  12.718  1.1311 -0.4779  0.7360
 3621TIP3   OH232353   2.136   5.562   0.303 -0.1626 -0.1831 -0.4111
 3621TIP3    H132354   2.057   5.520   0.336 -1.6566  1.8002 -1.2526
 3621TIP3    H232355   2.193   5.568   0.380 -1.5479 -0.0873  0.6485
 3622TIP3   OH232356   5.310   0.487   4.896 -0.2039  0.1971  0.2754
 3622TIP3    H132357   5.381   0.551   4.898 -0.6009  0.6531  0.1085
 3622TIP3    H232358   5.256   0.514   4.821 -1.9904  1.4419  1.9263
 3623TIP3   OH232359   3.292   6.216  15.010  0.1067  0.3459  0.1950
 3623TIP3    H132360   3.289   6.152  15.081 -0.2147 -0.1792 -0.2847
 3623TIP3    H232361   3.201   6.243  14.998  0.2265  0.8264  0.3271
 3624TIP3   OH232362   4.192   0.797   6.012 -0.1503 -0.4786 -0.0007
 3624TIP3    H132363   4.179   0.793   6.107  1.2110 -0.2327  0.2101
 3624TIP3    H232364   4.287   0.799   6.001 -0.3009  0.5215 -1.3233
 3625TIP3   OH232365   0.192   5.355  14.922  0.0781 -0.6959 -0.0041
 3625TIP3    H132366   0.119   5.383  14.867  1.2592 -0.2459 -1.4183
 3625TIP3    H232367   0.251   5.430  14.923  0.7504 -1.2159  0.7385
 3626TIP3   OH232368   4.435   3.604   4.064 -0.6997  0.0483  0.1149
 3626TIP3    H132369   4.495   3.663   4.109  1.1833 -1.0508 -0.8196
 3626TIP3    H232370   4.452   3.518   4.104  0.6274 -0.8556 -2.1747
 3627TIP3   OH232371   0.382   6.419   1.492  0.0290  0.3436  0.0450
 3627TIP3    H132372   0.348   6.418   1.582  0.7606  1.7345  0.3680
 3627TIP3    H232373   0.471   6.453   1.501  0.8133 -1.3124 -1.0097
 3628TIP3   OH232374   0.037   6.563  13.380 -0.0358 -0.3761 -0.1678
 3628TIP3    H132375   0.068   6.480  13.344 -0.6572 -0.2228 -1.0811
 3628TIP3    H232376  -0.012   6.538  13.459  1.0367 -0.7409  0.4022
 3629TIP3   OH232377   0.520   3.672   4.915 -0.3477  0.3676  0.0460
 3629TIP3    H132378   0.591   3.626   4.872 -1.2492 -2.5006  1.3619
 3629TIP3    H232379   0.561   3.752   4.950  1.7289 -0.2144 -0.8957
 3630TIP3   OH232380   4.571   0.937  13.819  0.4868 -0.5740 -0.4253
 3630TIP3    H132381   4.663   0.959  13.810  0.7849  0.8078  3.9597
 3630TIP3    H232382   4.541   0.985  13.896 -3.9458 -0.9839 -1.5944
 3631TIP3   OH232383   6.794   0.333   6.468  0.1852  0.1401  0.7045
 3631TIP3    H132384   6.721   0.367   6.416  0.2741  0.4736  0.7915
 3631TIP3    H232385   6.753   0.272   6.529  0.2302 -1.2667 -0.5938
 3632TIP3   OH232386   1.445   5.620   3.704 -0.0231  0.4569  0.4982
 3632TIP3    H132387   1.521   5.636   3.648 -0.8333  1.3714 -0.3606
 3632TIP3    H232388   1.370   5.618   3.644 -1.2146  3.6274  1.6713
 3633TIP3   OH232389   1.226   1.166   3.666 -0.8084 -0.4036  0.5390
 3633TIP3    H132390   1.139   1.126   3.666 -0.8475 -0.4750 -1.7708
 3633TIP3    H232391   1.212   1.255   3.635  0.0992 -1.0478 -1.9737
 3634TIP3   OH232392   4.215   5.352   4.998 -0.3341 -0.5495 -0.2728
 3634TIP3    H132393   4.243   5.444   4.996 -2.2556  0.1143  0.2745
 3634TIP3    H232394   4.120   5.356   4.983 -0.4632 -2.4583 -0.2297
 3635TIP3   OH232395   3.476   1.809  13.081 -0.1911 -0.1920 -0.2865
 3635TIP3    H132396   3.398   1.800  13.136  0.1764  1.3511  0.5394
 3635TIP3    H232397   3.447   1.861  13.006  0.3337  1.6983  0.7607
 3636TIP3   OH232398   0.996   6.840  14.977  0.4607 -0.5500 -0.3376
 3636TIP3    H132399   0.996   6.821  15.070  0.9038 -1.3701 -0.5012
 3636TIP3    H232400   0.969   6.758  14.935 -0.4088 -0.0017 -0.9041
 3637TIP3   OH232401   4.808   3.643   0.613 -0.3789 -0.1408  0.2825
 3637TIP3    H132402   4.821   3.614   0.703  1.0384 -0.1010  0.1183
 3637TIP3    H232403   4.766   3.568   0.570 -0.3915 -0.4395  0.7999
 3638TIP3   OH232404   3.002   4.004   4.625  0.4596  0.0061  0.1541
 3638TIP3    H132405   2.930   4.002   4.562  1.4471  0.8386 -1.0574
 3638TIP3    H232406   3.077   3.968   4.577  1.0557 -0.0452  1.0980
 3639TIP3   OH232407   2.025   3.061  11.931  0.0033 -0.3473  0.4313
 3639TIP3    H132408   2.083   3.016  11.992 -0.6494 -0.6991  0.7939
 3639TIP3    H232409   1.991   3.135  11.980  2.0525  1.3552 -0.5402
 3640TIP3   OH232410   6.516   6.450   1.703 -0.3099  0.2713  0.5372
 3640TIP3    H132411   6.585   6.516   1.706 -1.5066  1.5460  0.7058
 3640TIP3    H232412   6.552   6.380   1.649  1.7305  0.1716  1.9051
 3641TIP3   OH232413   0.101   1.581   2.372  0.2005  0.2740  0.3067
 3641TIP3    H132414   0.075   1.586   2.465 -0.8471 -1.4188  0.1488
 3641TIP3    H232415   0.193   1.555   2.374 -0.4482 -2.2687  0.9349
 3642TIP3   OH232416   2.319   5.399   1.281  0.2276  0.3721  0.0025
 3642TIP3    H132417   2.232   5.359   1.278  0.1456  0.4053  1.4225
 3642TIP3    H232418   2.329   5.428   1.372  1.1591  1.6367 -0.4823
 3643TIP3   OH232419   3.810   4.236   1.176  0.6278 -0.1248  0.8699
 3643TIP3    H132420   3.789   4.257   1.267 -0.1532 -1.7757  1.1100
 3643TIP3    H232421   3.822   4.141   1.175  1.9723  0.0132 -0.5030
 3644TIP3   OH232422   1.127   6.375  13.032  0.1758  0.4031  0.1928
 3644TIP3    H132423   1.152   6.329  12.952  0.4295  0.9231 -0.0272
 3644TIP3    H232424   1.044   6.334  13.058 -0.3330  0.7814 -0.7810
 3645TIP3   OH232425   3.884   5.013  10.661  0.5061 -0.4323 -0.1657
 3645TIP3    H132426   3.853   5.024  10.571 -0.1579  3.9034  0.3990
 3645TIP3    H232427   3.979   5.018  10.654  0.4106  3.1029 -0.5024
 3646TIP3   OH232428   1.240   2.017  16.090  0.3336 -0.2511  0.3601
 3646TIP3    H132429   1.253   1.931  16.131  0.4875  0.1547  1.1933
 3646TIP3    H232430   1.325   2.040  16.054 -0.1583 -1.3095 -1.6514
 3647TIP3   OH232431   5.377   5.716  12.701 -0.5384  0.6006  0.0647
 3647TIP3    H132432   5.396   5.755  12.787  0.8593  0.1801 -0.0345
 3647TIP3    H232433   5.299   5.763  12.671  0.3793  2.4976  0.4913
 3648TIP3   OH232434   2.856   5.539   0.734 -0.3328  0.4631 -0.4738
 3648TIP3    H132435   2.894   5.625   0.717 -1.2431  1.3770  1.7772
 3648TIP3    H232436   2.777   5.537   0.680  0.6041  0.2725 -1.8958
 3649TIP3   OH232437   1.864   0.315  17.029 -0.0400  0.2413 -0.2268
 3649TIP3    H132438   1.896   0.405  17.030  0.9147 -0.0741 -0.7914
 3649TIP3    H232439   1.857   0.293  16.936 -2.0477  0.3240 -0.1245
 3650TIP3   OH232440   6.093   4.364   4.102  0.0315 -0.0452  0.2418
 3650TIP3    H132441   6.102   4.312   4.182 -0.3016  0.8800  0.9031
 3650TIP3    H232442   6.140   4.314   4.036  0.0561 -0.9877  0.9416
 3651TIP3   OH232443   3.540   1.704  14.203  0.2128 -0.2625  0.4693
 3651TIP3    H132444   3.606   1.772  14.213  1.8622 -1.8746  1.0819
 3651TIP3    H232445   3.506   1.716  14.114  1.0627  0.8525  0.2757
 3652TIP3   OH232446   6.354   5.965  13.628 -0.4886  0.5143 -0.0845
 3652TIP3    H132447   6.422   6.019  13.669  1.2675 -0.9884 -0.8898
 3652TIP3    H232448   6.353   5.885  13.679 -1.1888  0.2413 -0.5128
 3653TIP3   OH232449   1.547   6.307   4.265 -0.0901  0.4619 -0.6298
 3653TIP3    H132450   1.636   6.284   4.242  0.1678  0.8794 -0.0686
 3653TIP3    H232451   1.531   6.390   4.220 -0.1909  0.4007 -0.7101
 3654TIP3   OH232452   5.334   0.290  12.541 -0.4814 -0.0618 -0.1317
 3654TIP3    H132453   5.412   0.254  12.582 -0.6485  0.5390  0.7292
 3654TIP3    H232454   5.353   0.287  12.447  1.2130  1.4659  0.1090
 3655TIP3   OH232455   5.443   1.849  11.884  0.0723 -0.3660 -0.3862
 3655TIP3    H132456   5.537   1.862  11.868 -0.2948 -0.5691 -3.1182
 3655TIP3    H232457   5.400   1.913  11.828 -1.4406 -2.8560 -2.2646
 3656TIP3   OH232458   6.643   6.740  16.344 -0.0336 -0.4672  0.4059
 3656TIP3    H132459   6.581   6.727  16.416 -1.6419 -0.3769 -0.9123
 3656TIP3    H232460   6.631   6.831  16.319  0.4866 -0.5148 -0.0170
 3657TIP3   OH232461   1.178   4.925   1.434  0.2275  0.5867  0.2914
 3657TIP3    H132462   1.176   4.998   1.496 -1.2437  0.2307  0.6930
 3657TIP3    H232463   1.090   4.889   1.436  0.2305  0.3603 -1.7979
 3658TIP3   OH232464   6.126   0.153  16.802  0.0035  0.6346 -0.1377
 3658TIP3    H132465   6.142   0.231  16.749 -1.9267  0.3687 -1.1971
 3658TIP3    H232466   6.058   0.180  16.865  1.6626  0.7049  1.7445
 3659TIP3   OH232467   4.139   1.753  14.557  0.0158  0.4254 -0.2994
 3659TIP3    H132468   4.085   1.688  14.601  0.1325  1.0871  0.8535
 3659TIP3    H232469   4.229   1.726  14.577  0.0653  0.8969  0.1303
 3660TIP3   OH232470   5.825   5.352  15.278  0.5162  0.1779  0.0373
 3660TIP3    H132471   5.809   5.257  15.276 -0.4635  0.3338  0.0747
 3660TIP3    H232472   5.816   5.376  15.370 -3.0802  0.8908 -0.3511
 3661TIP3   OH232473   2.713   2.435   4.998 -0.5383 -0.1814 -0.0102
 3661TIP3    H132474   2.752   2.428   5.085 -0.0522  0.0669 -0.2034
 3661TIP3    H232475   2.717   2.346   4.962  0.3161 -0.0686 -0.2203
 3662TIP3   OH232476   2.390   1.482  13.621 -0.4893  0.0058  0.3737
 3662TIP3    H132477   2.477   1.442  13.630 -1.0780 -1.3798  0.1767
 3662TIP3    H232478   2.356   1.483  13.711 -0.0506  1.1063  0.5399
 3663TIP3   OH232479   1.432   3.811   0.572  0.0732  0.2813  0.1837
 3663TIP3    H132480   1.358   3.869   0.555 -1.1142 -1.5482 -1.2081
 3663TIP3    H232481   1.407   3.762   0.650  1.4409  2.0958  1.8730
 3664TIP3   OH232482   3.816   0.237  13.569  0.6490  0.2959  0.0338
 3664TIP3    H132483   3.835   0.280  13.653 -0.1859  0.6638  0.0471
 3664TIP3    H232484   3.742   0.179  13.589  0.9350 -0.1778 -0.2828
 3665TIP3   OH232485   3.963   5.713   1.451  0.6669  0.2154  0.2152
 3665TIP3    H132486   3.934   5.800   1.424  0.1435  0.4494  1.4585
 3665TIP3    H232487   3.926   5.654   1.386 -0.7515  0.7371  0.5030
 3666TIP3   OH232488   0.274   2.753   0.987 -0.2869 -0.3357  0.4903
 3666TIP3    H132489   0.305   2.694   1.055 -1.4584  0.7728  2.0847
 3666TIP3    H232490   0.212   2.701   0.936 -0.2341 -0.8767  0.9663
 3667TIP3   OH232491   5.334   2.619   1.571  0.0089  0.6378  0.5015
 3667TIP3    H132492   5.330   2.524   1.559  1.0171  0.7992 -1.7186
 3667TIP3    H232493   5.263   2.639   1.631 -0.6535 -1.4558  0.4844
 3668TIP3   OH232494   5.808   5.351   4.403  0.2266 -0.4256  0.1565
 3668TIP3    H132495   5.769   5.264   4.405 -0.9455  0.0800 -0.3784
 3668TIP3    H232496   5.817   5.372   4.311  2.0239 -0.6208  0.2516
 3669TIP3   OH232497   1.389   5.667  13.690  0.2494 -0.0812 -0.4430
 3669TIP3    H132498   1.314   5.705  13.736  1.7412  0.1979  1.9209
 3669TIP3    H232499   1.370   5.573  13.688 -1.0617  0.1709 -1.7296
 3670TIP3   OH232500   2.801   3.379  16.631 -0.2898 -0.2025 -0.2025
 3670TIP3    H132501   2.741   3.347  16.699  0.5902 -1.7350 -0.1009
 3670TIP3    H232502   2.749   3.378  16.551 -0.0130 -3.2146 -0.4598
 3671TIP3   OH232503   6.548   3.841   1.886  0.1944 -0.5851  0.2853
 3671TIP3    H132504   6.623   3.848   1.826  0.5651 -1.1332  0.6746
 3671TIP3    H232505   6.524   3.748   1.883 -0.3835 -0.4395  0.2746
 3672TIP3   OH232506   4.102   2.582  14.905  0.4711  0.1898 -0.2301
 3672TIP3    H132507   4.152   2.512  14.948  0.3008  0.2665  0.1032
 3672TIP3    H232508   4.136   2.663  14.944 -1.4855  0.1525  1.7624
 3673TIP3   OH232509   3.529   0.111   3.953 -0.1957 -0.5151  0.0354
 3673TIP3    H132510   3.552   0.077   4.040  1.3316  0.3334 -0.0050
 3673TIP3    H232511   3.594   0.072   3.894 -0.7188 -0.4385 -0.5982
 3674TIP3   OH232512   3.401   4.226  15.604 -0.4336  0.1186 -0.5709
 3674TIP3    H132513   3.487   4.186  15.594 -0.0855  0.5027  0.7268
 3674TIP3    H232514   3.418   4.320  15.609 -1.1518  0.3842 -2.5418
 3675TIP3   OH232515   0.394   6.756  13.240 -0.8331  0.0137 -0.2344
 3675TIP3    H132516   0.353   6.841  13.221  0.4998  0.7773  0.1423
 3675TIP3    H232517   0.478   6.760  13.194 -0.1797 -0.5479  0.8808
 3676TIP3   OH232518   2.509   3.700   4.819  0.0471 -0.2066  0.0087
 3676TIP3    H132519   2.420   3.671   4.795 -0.1796  1.9124 -2.0804
 3676TIP3    H232520   2.549   3.623   4.858 -3.1475 -0.8655  2.4036
 3677TIP3   OH232521   6.727   6.261  14.375  0.0546 -0.0024 -0.3895
 3677TIP3    H132522   6.795   6.266  14.307  0.2660 -0.9174 -0.2584
 3677TIP3    H232523   6.674   6.340  14.362  0.8723  0.4916 -0.7836
 3678TIP3   OH232524   0.715   1.179  14.487 -0.2458 -0.0051  0.9029
 3678TIP3    H132525   0.729   1.145  14.398 -0.2376 -0.3582  1.0358
 3678TIP3    H232526   0.653   1.117  14.526  1.1036 -0.8867  1.7391
 3679TIP3   OH232527   5.761   3.165   4.927  0.2893 -0.7524  0.0788
 3679TIP3    H132528   5.803   3.216   4.858  1.9250 -2.0604  0.0691
 3679TIP3    H232529   5.793   3.204   5.009  0.3429 -0.8254  0.0916
 3680TIP3   OH232530   1.386   0.292   5.116 -0.1682  0.2506  0.4989
 3680TIP3    H132531   1.352   0.341   5.191  2.2832 -0.8752  2.4647
 3680TIP3    H232532   1.460   0.343   5.085 -0.9945  0.5709 -1.0835
 3681TIP3   OH232533   0.361   4.505  12.664 -0.1996 -0.0286  0.1273
 3681TIP3    H132534   0.346   4.450  12.741 -0.0346 -0.3652 -0.0767
 3681TIP3    H232535   0.345   4.594  12.694 -0.1163 -0.1568  0.5544
 3682TIP3   OH232536   6.644   0.321  12.333  0.3884 -0.6830 -0.1992
 3682TIP3    H132537   6.643   0.416  12.327  0.4304 -0.7425 -1.2426
 3682TIP3    H232538   6.601   0.291  12.253 -0.8273 -1.5261  0.7338
 3683TIP3   OH232539   3.047   5.378  16.048 -0.2778  0.6464 -0.1309
 3683TIP3    H132540   3.065   5.469  16.026 -0.5242  0.4547 -1.1744
 3683TIP3    H232541   3.031   5.335  15.964  0.7305 -0.5599  0.2479
 3684TIP3   OH232542   6.411   6.304   6.014 -0.4903 -0.0732 -0.2258
 3684TIP3    H132543   6.385   6.219   6.050  1.2108 -0.3767  0.3695
 3684TIP3    H232544   6.369   6.368   6.072 -2.5449 -0.4386 -1.2167
 3685TIP3   OH232545   5.356   5.871  14.447  0.2277 -0.5739  0.0622
 3685TIP3    H132546   5.391   5.830  14.525 -0.1488 -1.7282 -0.3516
 3685TIP3    H232547   5.272   5.907  14.474 -0.3021 -1.7276  0.0011
 3686TIP3   OH232548   3.919   1.312   4.220 -0.0280 -0.3959  0.0716
 3686TIP3    H132549   3.887   1.232   4.262 -0.3667 -0.9175 -1.1328
 3686TIP3    H232550   3.843   1.345   4.172  0.0825  0.7255  0.6340
 3687TIP3   OH232551   2.418   6.836  15.187  0.0325 -0.2603 -0.6965
 3687TIP3    H132552   2.333   6.826  15.231 -0.2475 -0.7766 -1.3349
 3687TIP3    H232553   2.395   6.854  15.096  0.6113  0.2764 -0.7363
 3688TIP3   OH232554   6.177   5.978   6.324  0.2194 -0.9288  0.4132
 3688TIP3    H132555   6.115   5.910   6.351 -0.1770 -0.7750 -0.1035
 3688TIP3    H232556   6.248   5.972   6.388  0.4300 -2.1644  0.1099
 3689TIP3   OH232557   3.396   0.417  11.077 -0.7349  0.3396 -0.2370
 3689TIP3    H132558   3.458   0.358  11.119  1.9240  2.7559 -0.4216
 3689TIP3    H232559   3.310   0.387  11.106  0.2991 -4.1195 -1.1045
 3690TIP3   OH232560   1.092   1.513  16.202 -0.2847  0.6155  0.5164
 3690TIP3    H132561   1.086   1.486  16.110 -2.8475 -1.3342  1.1129
 3690TIP3    H232562   1.147   1.446  16.243 -0.9529  0.1915  0.7502
 3691TIP3   OH232563   3.486   5.182  10.860  0.4987 -0.7358  0.1886
 3691TIP3    H132564   3.448   5.097  10.839 -2.8584  0.5696  0.3415
 3691TIP3    H232565   3.414   5.231  10.900  2.6003  1.8320  1.1263
 3692TIP3   OH232566   3.819   5.563   0.828  0.0681  0.0545 -0.5166
 3692TIP3    H132567   3.852   5.473   0.830 -2.0916 -0.8122  1.5177
 3692TIP3    H232568   3.851   5.602   0.910 -0.3659  0.5946 -0.5959
 3693TIP3   OH232569   5.930   1.491   1.362 -0.2316  0.1649 -0.0690
 3693TIP3    H132570   5.893   1.577   1.342  0.2044  0.0159 -1.6403
 3693TIP3    H232571   6.015   1.511   1.403 -0.0800  0.4911 -0.5287
 3694TIP3   OH232572   4.932   1.757  16.125 -0.3743 -0.8659  0.5911
 3694TIP3    H132573   4.888   1.673  16.112  0.6822 -1.1615 -1.6276
 3694TIP3    H232574   4.910   1.808  16.047  0.2392  0.3268  1.1751
 3695TIP3   OH232575   5.806   2.675  12.598  0.6400 -0.4924 -0.0145
 3695TIP3    H132576   5.833   2.583  12.591  0.3870 -0.5004 -1.1233
 3695TIP3    H232577   5.722   2.679  12.553 -0.2239 -0.0460  1.5474
 3696TIP3   OH232578   0.509   4.994  12.054  0.1951  0.1843  0.2458
 3696TIP3    H132579   0.430   4.992  12.001 -0.3350 -1.1977  1.0529
 3696TIP3    H232580   0.579   5.013  11.992 -0.5466 -0.2914 -0.7535
 3697TIP3   OH232581   0.798   2.999  13.885  0.1123  0.4849 -0.3157
 3697TIP3    H132582   0.789   2.958  13.799 -1.5848  0.8461 -0.3488
 3697TIP3    H232583   0.723   2.967  13.935  0.5013  1.0915  0.6964
 3698TIP3   OH232584   5.127   3.607   1.983 -0.1967 -0.2309 -0.0015
 3698TIP3    H132585   5.127   3.681   1.922  0.3839 -0.1697  0.0599
 3698TIP3    H232586   5.035   3.594   2.006 -0.3353  0.2784 -0.2483
 3699TIP3   OH232587   1.577   5.047   0.514  0.4724  0.2507 -0.5395
 3699TIP3    H132588   1.639   4.977   0.532  0.1982 -0.1004 -0.9480
 3699TIP3    H232589   1.611   5.089   0.435 -0.1655 -0.3758 -1.1663
 3700TIP3   OH232590   5.274   3.745   5.530 -0.3053  0.7923  0.1187
 3700TIP3    H132591   5.330   3.767   5.456 -0.2955 -0.0660 -0.1360
 3700TIP3    H232592   5.300   3.656   5.554 -2.7961 -0.3555 -1.1688
 3701TIP3   OH232593   2.571   2.282   3.131 -0.9606 -0.1244  0.0578
 3701TIP3    H132594   2.571   2.193   3.095 -0.0904  0.6516 -2.0192
 3701TIP3    H232595   2.481   2.296   3.161 -0.8281 -2.1226  1.6789
 3702TIP3   OH232596   1.947   2.629   1.016  0.7148 -0.4535  0.3594
 3702TIP3    H132597   1.958   2.612   0.922  0.9378 -1.3788  0.5456
 3702TIP3    H232598   2.007   2.568   1.059 -0.0357 -0.6638  1.1419
 3703TIP3   OH232599   3.334   6.378  12.534 -0.5730  0.1818  0.6969
 3703TIP3    H132600   3.328   6.385  12.439 -0.4555  2.0999  0.7944
 3703TIP3    H232601   3.246   6.354  12.562 -0.3190 -1.6828  0.0609
 3704TIP3   OH232602   0.510   6.341  13.060 -0.4465  0.0331 -0.1728
 3704TIP3    H132603   0.436   6.366  13.005  1.5282  2.8105 -1.8403
 3704TIP3    H232604   0.496   6.388  13.142 -0.7157  0.1917 -0.3077
 3705TIP3   OH232605   6.410   6.524  13.854 -0.3965  0.4591 -0.3127
 3705TIP3    H132606   6.412   6.618  13.836  1.6524  0.6223  0.4706
 3705TIP3    H232607   6.324   6.508  13.893  0.2484  2.5823  2.2264
 3706TIP3   OH232608   2.831   4.633   3.917  0.1120  0.2353  0.2373
 3706TIP3    H132609   2.833   4.593   4.004  0.6820 -2.5302 -0.9226
 3706TIP3    H232610   2.919   4.671   3.906 -0.0790  0.9086  0.9716
 3707TIP3   OH232611   2.808   1.265   5.603 -0.0714 -0.2741 -0.3020
 3707TIP3    H132612   2.802   1.171   5.620  0.6628 -0.2406  0.1781
 3707TIP3    H232613   2.860   1.273   5.524 -0.7244 -0.2924 -0.7430
 3708TIP3   OH232614   6.043   5.258   1.453 -0.3160  0.4259  0.0681
 3708TIP3    H132615   6.058   5.253   1.359 -1.3441  1.7553 -0.1996
 3708TIP3    H232616   6.033   5.351   1.471 -2.7701  0.0437  1.0456
 3709TIP3   OH232617   4.950   6.182   5.583  0.4892 -0.0442  0.3274
 3709TIP3    H132618   4.874   6.217   5.631  0.1350  0.3834 -0.5372
 3709TIP3    H232619   5.006   6.146   5.652 -0.6935 -0.7587  0.9664
 3710TIP3   OH232620   3.555   3.709   1.454  0.2231 -0.3522  0.6784
 3710TIP3    H132621   3.541   3.674   1.542 -1.6186 -1.1902  0.1092
 3710TIP3    H232622   3.489   3.777   1.445 -1.0121 -1.6583 -0.7221
 3711TIP3   OH232623   4.077   4.739   2.515 -0.1815  0.2244 -0.2167
 3711TIP3    H132624   4.121   4.741   2.600  0.6017 -0.6259 -0.5770
 3711TIP3    H232625   4.148   4.751   2.452 -0.3272 -1.7979 -0.8500
 3712TIP3   OH232626   4.567   5.439   3.889  0.3200  0.1619  0.2260
 3712TIP3    H132627   4.535   5.519   3.930  0.4811  0.3405  0.0086
 3712TIP3    H232628   4.659   5.457   3.869 -0.1067  0.6101 -1.4898
 3713TIP3   OH232629   3.793   5.400  16.881  0.0070  0.1939  0.5549
 3713TIP3    H132630   3.740   5.325  16.856  0.3369 -0.2094  1.0340
 3713TIP3    H232631   3.738   5.476  16.863 -0.2572 -0.1491 -0.1165
 3714TIP3   OH232632   1.860   0.234   5.994 -0.2928 -0.2599 -0.0961
 3714TIP3    H132633   1.779   0.190   6.020 -1.5225  1.9254  0.1068
 3714TIP3    H232634   1.862   0.226   5.899 -0.8053 -0.2640 -0.1117
 3715TIP3   OH232635   4.741   4.734   4.577  0.2074  0.1154 -0.0144
 3715TIP3    H132636   4.726   4.698   4.664 -1.1282 -0.0383 -0.2985
 3715TIP3    H232637   4.723   4.828   4.587  3.4368  0.7945  0.6666
 3716TIP3   OH232638   4.223   2.749  14.238 -0.1261 -0.0007 -0.0959
 3716TIP3    H132639   4.173   2.826  14.210  0.0856  0.5928  1.0668
 3716TIP3    H232640   4.166   2.675  14.217 -0.1226  0.4244 -1.6867
 3717TIP3   OH232641   4.659   6.829  17.047  0.0960 -0.3674  0.0903
 3717TIP3    H132642   4.708   6.909  17.028  0.4010 -0.0394  2.0434
 3717TIP3    H232643   4.700   6.794  17.126 -0.3752 -2.1825 -0.4198
 3718TIP3   OH232644   2.870   3.471   5.828  0.2505  0.2085  0.7005
 3718TIP3    H132645   2.776   3.452   5.829  0.2441  0.1782  2.0293
 3718TIP3    H232646   2.902   3.436   5.911  1.1922  1.3705  0.8555
 3719TIP3   OH232647   4.997   0.995  16.546 -0.1848  0.3228  0.0658
 3719TIP3    H132648   5.079   1.004  16.497 -0.4823 -2.0296 -0.9831
 3719TIP3    H232649   5.010   1.050  16.624  0.6732  3.4232 -2.0920
 3720TIP3   OH232650   5.536   2.991  12.061 -0.4207  0.3590  0.1791
 3720TIP3    H132651   5.570   2.909  12.024 -2.8066 -0.3533 -0.6617
 3720TIP3    H232652   5.588   3.059  12.018  0.7376 -0.6526 -0.1109
 3721TIP3   OH232653   1.673   0.004  16.523  0.0216 -0.1051 -0.1056
 3721TIP3    H132654   1.731   0.071  16.488  0.1998 -0.7544 -1.1166
 3721TIP3    H232655   1.586   0.043  16.517  0.2574  0.5495  0.6120
 3722TIP3   OH232656   4.428   3.948  14.762  0.7613 -0.0456 -0.3995
 3722TIP3    H132657   4.520   3.945  14.789  0.3100 -1.1402  1.2030
 3722TIP3    H232658   4.408   3.858  14.736  0.3321  0.3571 -1.5058
 3723TIP3   OH232659   1.087   0.872   3.301 -0.0544  0.0197  0.4314
 3723TIP3    H132660   1.035   0.941   3.341  0.3684 -0.2541  1.4802
 3723TIP3    H232661   1.052   0.863   3.213 -0.6231  1.0340  0.5481
 3724TIP3   OH232662   0.051   1.294   5.922  0.4683 -0.1477  0.3090
 3724TIP3    H132663   0.139   1.283   5.959 -0.1422  1.1818  2.2591
 3724TIP3    H232664   0.057   1.374   5.870  0.3941 -0.0014  0.5242
 3725TIP3   OH232665   4.628   2.130   1.629 -0.2302 -0.3946 -0.1675
 3725TIP3    H132666   4.589   2.200   1.577 -1.6189 -1.0826 -0.0938
 3725TIP3    H232667   4.679   2.079   1.566 -1.4734 -0.9126 -0.7867
 3726TIP3   OH232668   1.991   5.754  11.991  0.2257 -0.4567 -1.0040
 3726TIP3    H132669   1.986   5.845  11.959  2.0543 -0.0104 -0.1132
 3726TIP3    H232670   1.914   5.712  11.953 -0.7861  1.5115 -1.2840
 3727TIP3   OH232671   2.557   2.444   5.714  0.4004 -0.6988  0.5689
 3727TIP3    H132672   2.581   2.521   5.663 -0.6520 -0.1524  0.8675
 3727TIP3    H232673   2.505   2.479   5.786  0.4284 -1.6334  1.0538
 3728TIP3   OH232674   0.602   4.471   1.930 -0.2824 -0.0338  0.3007
 3728TIP3    H132675   0.579   4.499   2.018 -0.6637  0.2830  0.1077
 3728TIP3    H232676   0.683   4.518   1.910 -0.8031  0.7838  0.0619
 3729TIP3   OH232677   1.237   2.356  12.534 -0.5196  0.5702  0.0051
 3729TIP3    H132678   1.237   2.297  12.609 -0.9120  1.9184  1.0921
 3729TIP3    H232679   1.226   2.298  12.459  0.5624 -0.8688  0.9080
 3730TIP3   OH232680   0.463   2.207  14.644 -0.5178  0.0981 -0.3691
 3730TIP3    H132681   0.525   2.279  14.651  0.2520 -0.7166  2.7072
 3730TIP3    H232682   0.417   2.207  14.727 -0.7069 -2.7417 -0.3777
 3731TIP3   OH232683   0.011   4.681   0.786  0.4197 -0.2540 -0.4332
 3731TIP3    H132684   0.101   4.660   0.810  0.8835  2.5068  0.6440
 3731TIP3    H232685  -0.042   4.654   0.861  0.2798 -1.9695 -1.1083
 3732TIP3   OH232686   5.630   4.818  13.693  0.5472 -0.3304 -0.0220
 3732TIP3    H132687   5.712   4.860  13.718  0.2056  0.2198  0.1900
 3732TIP3    H232688   5.631   4.822  13.597  0.8027 -0.3977 -0.0245
 3733TIP3   OH232689   3.512   4.484  15.399 -0.3319  0.3091  0.1708
 3733TIP3    H132690   3.593   4.435  15.415 -0.6865 -0.6761 -0.9098
 3733TIP3    H232691   3.460   4.470  15.478 -0.9313 -2.1685 -0.5666
 3734TIP3   OH232692   4.539   2.887  16.930  0.4358  0.3049 -0.8327
 3734TIP3    H132693   4.475   2.816  16.940  0.3632  0.5599  0.7333
 3734TIP3    H232694   4.623   2.842  16.921  0.5042 -0.0170  1.0073
 3735TIP3   OH232695   3.997   5.338   3.797 -0.3469  0.0163  0.0905
 3735TIP3    H132696   4.069   5.332   3.859 -0.7450 -1.8505  0.4461
 3735TIP3    H232697   4.019   5.276   3.728 -1.1043  0.2139 -0.3467
 3736TIP3   OH232698   0.146   5.498  14.210 -0.1507  0.3329 -0.5386
 3736TIP3    H132699   0.066   5.481  14.161  0.6145 -2.1024 -1.0780
 3736TIP3    H232700   0.188   5.412  14.218  1.7698  1.3287  0.8458
 3737TIP3   OH232701   6.250   4.191   3.299 -0.6657 -0.0042  0.0851
 3737TIP3    H132702   6.240   4.096   3.307 -1.6694  0.1115  0.2318
 3737TIP3    H232703   6.284   4.218   3.384  0.0938 -0.2834 -0.1185
 3738TIP3   OH232704   3.046   2.941   1.731  0.3150 -0.1334  0.1836
 3738TIP3    H132705   3.141   2.940   1.722  0.3018 -0.3159  0.0284
 3738TIP3    H232706   3.016   2.875   1.667  0.1379 -0.7224  0.8600
 3739TIP3   OH232707   5.761   3.161   2.984  0.4185 -0.0087  0.2181
 3739TIP3    H132708   5.778   3.252   3.008 -0.4802  0.4327 -0.7667
 3739TIP3    H232709   5.698   3.131   3.049 -4.2773  2.0433 -2.7807
 3740TIP3   OH232710   5.528   3.967  14.352  0.5825 -0.1461  0.5812
 3740TIP3    H132711   5.555   3.895  14.295  0.4019  0.1786  0.0798
 3740TIP3    H232712   5.605   4.025  14.355 -0.5786  1.7428 -2.3588
 3741TIP3   OH232713   4.803   3.708  14.592  0.1008  0.3974  0.5746
 3741TIP3    H132714   4.865   3.739  14.526 -0.5912 -0.6035 -0.5643
 3741TIP3    H232715   4.728   3.678  14.542  0.0016 -1.4140  1.7522
 3742TIP3   OH232716   6.754   4.196  14.417 -0.5044  0.7727 -0.1026
 3742TIP3    H132717   6.756   4.279  14.466  0.3733  1.3855 -1.1318
 3742TIP3    H232718   6.762   4.129  14.484  1.1280  1.6076  0.5925
 3743TIP3   OH232719   3.080   6.430   4.896  0.0010  0.6929 -0.4465
 3743TIP3    H132720   3.017   6.482   4.846 -0.6301  3.1201  2.5931
 3743TIP3    H232721   3.028   6.356   4.928 -0.4263  0.8677 -0.7148
 3744TIP3   OH232722   0.492   4.230  12.948  0.0966  0.1692  0.1845
 3744TIP3    H132723   0.529   4.318  12.953  0.1498  0.1540  0.0403
 3744TIP3    H232724   0.453   4.216  13.035 -3.6161  1.9668 -0.9792
 3745TIP3   OH232725   4.887   6.675   0.828  0.2503  0.2077  0.0648
 3745TIP3    H132726   4.940   6.718   0.896  1.9230  0.4218 -1.2973
 3745TIP3    H232727   4.838   6.746   0.787  0.3562  0.2909  0.0823
 3746TIP3   OH232728   1.030   0.778  11.449  0.0530  0.3714  0.5653
 3746TIP3    H132729   0.959   0.757  11.389  1.2514 -2.6700  0.0262
 3746TIP3    H232730   0.992   0.838  11.512 -2.9526 -1.0154  0.2155
 3747TIP3   OH232731   3.083   6.310   2.393 -0.3685 -0.1599 -0.5612
 3747TIP3    H132732   3.105   6.390   2.440  1.5920 -0.6095 -0.6107
 3747TIP3    H232733   3.002   6.279   2.434 -0.7395  1.4197 -0.0334
 3748TIP3   OH232734   6.444   4.183  16.598 -0.4461 -0.2426 -0.3542
 3748TIP3    H132735   6.462   4.207  16.507  1.1312 -1.0569 -0.2891
 3748TIP3    H232736   6.444   4.267  16.645 -0.4077  0.1042 -0.9595
 3749TIP3   OH232737   2.483   1.543  16.868  0.6086 -0.6175 -0.1202
 3749TIP3    H132738   2.395   1.559  16.834  0.6913 -0.6286 -0.3415
 3749TIP3    H232739   2.532   1.508  16.793  0.7593 -0.7579  0.0420
 3750TIP3   OH232740   1.916   2.855  11.194  0.5527 -0.4621 -0.3696
 3750TIP3    H132741   1.996   2.861  11.143  0.8181  1.1776  0.1622
 3750TIP3    H232742   1.869   2.781  11.158  3.2080 -2.7780  0.5987
 3751TIP3   OH232743   3.811   6.244   4.588  0.0345  0.4139  1.1369
 3751TIP3    H132744   3.832   6.191   4.665 -2.0394 -1.1550  0.7249
 3751TIP3    H232745   3.729   6.207   4.556  0.5014  1.4206 -1.4721
 3752TIP3   OH232746   3.702   0.056   1.246  0.1964 -0.2405  0.5838
 3752TIP3    H132747   3.626   0.036   1.192  2.7046 -3.0600 -2.3053
 3752TIP3    H232748   3.713   0.151   1.238 -0.6768 -0.2993 -2.3619
 3753TIP3   OH232749   3.350   4.875  17.051 -0.1232  0.1851 -0.4299
 3753TIP3    H132750   3.428   4.822  17.038 -0.0197 -0.0679  1.0063
 3753TIP3    H232751   3.312   4.842  17.133 -1.9274  0.0832 -1.2458
 3754TIP3   OH232752   2.858   1.136   2.013 -0.2271  0.0275 -0.4226
 3754TIP3    H132753   2.908   1.214   1.990  0.1767 -0.5918 -1.7261
 3754TIP3    H232754   2.908   1.096   2.085 -0.2270  0.7523 -0.0150
 3755TIP3   OH232755   2.840   2.916   5.639 -0.1439  0.6311  0.0181
 3755TIP3    H132756   2.863   3.006   5.664  0.0155  0.5323  0.2214
 3755TIP3    H232757   2.923   2.870   5.635 -0.3226  0.2050  1.0235
 3756TIP3   OH232758   4.069   0.164   0.971  0.0486 -0.2081  0.1332
 3756TIP3    H132759   4.045   0.113   1.049 -3.3717  0.1101 -0.5628
 3756TIP3    H232760   4.015   0.243   0.977  0.7005  0.4476 -1.9168
 3757TIP3   OH232761   6.766   2.000   4.716 -0.1568 -0.3579 -0.1294
 3757TIP3    H132762   6.726   1.974   4.633 -2.6296  0.4725  0.7265
 3757TIP3    H232763   6.761   2.095   4.717 -0.6943 -0.3837  1.2181
 3758TIP3   OH232764   3.350   3.600   0.642  0.3672  0.0703  0.5938
 3758TIP3    H132765   3.424   3.576   0.587 -0.8207 -0.4941 -0.8446
 3758TIP3    H232766   3.355   3.540   0.716  0.3446 -1.2063 -0.4007
 3759TIP3   OH232767   4.214   3.087  15.503  0.3872  0.2380  0.3632
 3759TIP3    H132768   4.303   3.121  15.509  1.0058 -1.2908  0.1657
 3759TIP3    H232769   4.159   3.162  15.527  1.7028  1.2260  0.4417
 3760TIP3   OH232770   5.605   2.623  13.480  0.3547 -0.0064  0.2766
 3760TIP3    H132771   5.580   2.715  13.492  2.8214  0.7855 -0.1534
 3760TIP3    H232772   5.542   2.589  13.416 -0.5045  1.4130  0.3249
 3761TIP3   OH232773   2.968   1.977  15.426  0.2449  0.4556 -0.4165
 3761TIP3    H132774   3.041   1.939  15.376 -1.2434 -0.9733 -1.5944
 3761TIP3    H232775   2.923   2.033  15.364 -1.3979 -1.0265 -0.6303
 3762TIP3   OH232776   5.455   3.992  12.693  0.0091  0.3883  0.2375
 3762TIP3    H132777   5.468   4.087  12.694  2.6292  0.1014 -0.8137
 3762TIP3    H232778   5.408   3.975  12.612  3.6795  0.4552 -2.0917
 3763TIP3   OH232779   0.060   6.552  13.681  0.0486 -0.2956  0.3790
 3763TIP3    H132780  -0.028   6.527  13.711  0.5415 -1.8486  0.6070
 3763TIP3    H232781   0.065   6.646  13.697 -1.8397 -0.0281 -0.3181
 3764TIP3   OH232782   2.170   6.313  15.116 -0.0270  0.2017  0.0761
 3764TIP3    H132783   2.076   6.300  15.099 -0.1394  0.6368  0.3483
 3764TIP3    H232784   2.212   6.239  15.073 -0.7323 -1.9042  2.7367
 3765TIP3   OH232785   0.592   5.892  14.598 -0.4697 -0.6248 -0.1058
 3765TIP3    H132786   0.603   5.917  14.506  2.4130  1.3069  0.6461
 3765TIP3    H232787   0.627   5.966  14.647 -1.2225 -1.9325  2.5685
 3766TIP3   OH232788   3.493   1.163  16.444  0.1943  0.2376  0.1474
 3766TIP3    H132789   3.498   1.256  16.422 -0.4788 -0.1660 -1.9317
 3766TIP3    H232790   3.566   1.148  16.504 -0.6722  2.4197  1.8662
 3767TIP3   OH232791   1.817   1.695   6.573 -0.1100  0.1084 -0.1459
 3767TIP3    H132792   1.789   1.610   6.539  1.4301 -1.2360  1.7298
 3767TIP3    H232793   1.780   1.699   6.661  1.1561  0.6349  0.3857
 3768TIP3   OH232794   4.695   4.423  11.941 -0.6443 -0.1398 -0.4174
 3768TIP3    H132795   4.661   4.449  11.855 -1.6983  1.5391  0.4464
 3768TIP3    H232796   4.779   4.468  11.949  0.0712 -1.3217 -1.0557
 3769TIP3   OH232797   1.338   0.039   3.423  0.0355 -0.0589  0.2124
 3769TIP3    H132798   1.371   0.095   3.353 -0.5615  0.2299  0.1578
 3769TIP3    H232799   1.249   0.015   3.396 -0.1496 -0.0645  0.7940
 3770TIP3   OH232800   0.013   5.496   3.111  0.7099 -0.0687  0.2459
 3770TIP3    H132801   0.069   5.523   3.038  2.2520 -1.6344  0.7825
 3770TIP3    H232802  -0.066   5.462   3.069 -0.3266  3.0246 -0.4961
 3771TIP3   OH232803   6.729   6.060   3.548  0.3335  0.2101 -0.2874
 3771TIP3    H132804   6.758   5.969   3.538 -0.9895 -0.4147  1.1391
 3771TIP3    H232805   6.668   6.058   3.622  0.0051  2.2075 -0.4451
 3772TIP3   OH232806   1.411   5.887  15.700  0.3129 -0.1819  0.3935
 3772TIP3    H132807   1.404   5.850  15.789 -0.1943 -1.3696 -0.1134
 3772TIP3    H232808   1.425   5.810  15.644  1.3482  0.6201 -0.4890
 3773TIP3   OH232809   1.062   1.802   1.699 -0.2373  0.3326  0.2103
 3773TIP3    H132810   1.034   1.760   1.781 -1.7541 -1.6315 -1.2081
 3773TIP3    H232811   1.004   1.877   1.688 -1.3067 -0.5011  0.0381
 3774TIP3   OH232812   3.880   1.078   2.628  0.3054 -0.0258 -0.2874
 3774TIP3    H132813   3.801   1.055   2.578 -0.4820  0.8440  0.5121
 3774TIP3    H232814   3.927   1.140   2.572  0.1380 -0.1143 -0.5283
 3775TIP3   OH232815   6.804   6.851   2.222 -0.3554 -0.2167  0.2260
 3775TIP3    H132816   6.841   6.766   2.200  0.2096  0.1998 -0.4921
 3775TIP3    H232817   6.873   6.895   2.272 -0.1693  0.2638 -0.4358
 3776TIP3   OH232818   5.523   5.936   4.013  0.5252 -0.7765 -0.2428
 3776TIP3    H132819   5.488   5.878   4.081  0.0307 -0.8094 -0.5221
 3776TIP3    H232820   5.570   6.004   4.062 -0.8804 -0.0898  0.2013
 3777TIP3   OH232821   3.075   2.468  12.130  0.6417 -0.1913  0.1432
 3777TIP3    H132822   3.057   2.375  12.119 -0.7850  0.1173 -0.3840
 3777TIP3    H232823   2.995   2.511  12.101  0.8390  1.1517  1.4679
 3778TIP3   OH232824   1.921   5.054   0.661 -0.1791 -0.3421 -0.0483
 3778TIP3    H132825   1.907   5.023   0.571 -0.7963 -1.8607  0.5287
 3778TIP3    H232826   1.887   5.143   0.661 -2.0997 -1.0031 -0.8547
 3779TIP3   OH232827   3.613   6.036  10.988 -0.0542 -0.0602  0.3712
 3779TIP3    H132828   3.567   5.953  10.980  1.0517 -0.7662  1.0746
 3779TIP3    H232829   3.642   6.056  10.899 -0.6221 -0.2367  0.1402
 3780TIP3   OH232830   3.997   2.732  16.514  0.1110  0.6595  0.1947
 3780TIP3    H132831   4.070   2.740  16.576 -0.1033 -0.4383  0.6068
 3780TIP3    H232832   3.922   2.708  16.568  0.3130 -2.1651 -0.6516
 3781TIP3   OH232833   5.123   2.187   3.596  0.0497  0.0369 -0.1294
 3781TIP3    H132834   5.143   2.280   3.588 -0.7499  0.1832 -0.5692
 3781TIP3    H232835   5.190   2.143   3.543  0.9802  0.2780  0.8085
 3782TIP3   OH232836   0.615   3.264  12.619  0.4658  0.1668  0.0653
 3782TIP3    H132837   0.553   3.321  12.574  1.0722 -0.2865 -1.4122
 3782TIP3    H232838   0.560   3.205  12.671 -0.2456  0.9478  0.2102
 3783TIP3   OH232839   5.938   1.159  16.279 -0.1371  0.3304 -0.3515
 3783TIP3    H132840   5.972   1.087  16.228 -0.2665  0.7547 -1.0491
 3783TIP3    H232841   5.965   1.140  16.369 -0.6589 -0.8694 -0.4325
 3784TIP3   OH232842   4.313   0.672  15.699 -0.1524  0.5778 -0.3374
 3784TIP3    H132843   4.262   0.723  15.762 -0.0525 -0.3132  0.4899
 3784TIP3    H232844   4.401   0.710  15.704 -0.6769  2.1016 -1.7516
 3785TIP3   OH232845   4.683   2.448  15.748 -0.3909  0.4347 -0.4283
 3785TIP3    H132846   4.733   2.523  15.715 -0.2991  0.2172 -0.7885
 3785TIP3    H232847   4.615   2.487  15.802  0.2053  0.7317  0.1131
 3786TIP3   OH232848   6.620   2.001   3.558 -0.3607 -0.0980  0.6083
 3786TIP3    H132849   6.584   2.085   3.530 -0.6368  0.2855  2.0116
 3786TIP3    H232850   6.545   1.942   3.561 -0.3204 -0.1559  0.4808
 3787TIP3   OH232851   1.474   1.712  16.421  0.6801  0.2839 -0.5482
 3787TIP3    H132852   1.381   1.693  16.419  0.5271  0.9309 -0.0148
 3787TIP3    H232853   1.511   1.664  16.347 -0.2689  1.0545 -1.5544
 3788TIP3   OH232854   1.908   3.746   3.433 -0.1350  0.2277 -0.1630
 3788TIP3    H132855   1.843   3.745   3.362 -1.3220  0.5262  0.8853
 3788TIP3    H232856   1.937   3.837   3.437 -0.0025  0.1930 -0.3143
 3789TIP3   OH232857   6.107   6.279  15.460  0.3511 -0.0943 -0.1479
 3789TIP3    H132858   6.201   6.278  15.478  0.0381  0.7258  1.7532
 3789TIP3    H232859   6.101   6.271  15.365  2.5033  3.4155 -0.7762
 3790TIP3   OH232860   2.940   1.568   0.666  0.0625 -0.3416  0.4870
 3790TIP3    H132861   2.870   1.503   0.674 -0.1203 -0.0152  1.8591
 3790TIP3    H232862   2.922   1.630   0.736  1.7072 -0.2348  0.8433
 3791TIP3   OH232863   0.225   5.588  12.450  0.1491 -0.0193 -0.3243
 3791TIP3    H132864   0.289   5.529  12.412  0.1167 -0.7316  0.7094
 3791TIP3    H232865   0.172   5.617  12.375  0.2860 -1.1402 -0.8711
 3792TIP3   OH232866   2.566   6.737  14.607 -0.1193 -0.7280 -0.0380
 3792TIP3    H132867   2.534   6.827  14.603 -0.2192 -0.7944 -1.0596
 3792TIP3    H232868   2.612   6.732  14.690  0.7795  0.5728 -0.4205
 3793TIP3   OH232869   6.707   2.858   6.321 -0.0148 -0.3179 -0.2570
 3793TIP3    H132870   6.619   2.879   6.354 -0.7353 -0.1685 -2.1442
 3793TIP3    H232871   6.738   2.941   6.284  1.3600 -0.1205  1.2510
 3794TIP3   OH232872   3.666   2.756   0.573 -0.8491 -0.2302  0.3318
 3794TIP3    H132873   3.742   2.795   0.616  1.6496 -2.8154 -1.3274
 3794TIP3    H232874   3.654   2.807   0.494  0.1243 -0.6477 -0.0995
 3795TIP3   OH232875   1.595   6.382  16.559  0.1493 -0.3460  0.5378
 3795TIP3    H132876   1.687   6.396  16.582 -0.0696  1.0655  0.6551
 3795TIP3    H232877   1.553   6.466  16.578 -1.1373 -0.9241  0.3385
 3796TIP3   OH232878   4.033   1.046   2.137 -0.4738 -0.1972 -0.0853
 3796TIP3    H132879   4.038   1.123   2.080  0.1546  0.2034  0.5066
 3796TIP3    H232880   4.067   1.075   2.221  0.6560 -1.3683 -0.1096
 3797TIP3   OH232881   2.337   3.610  11.527 -0.5840  0.3252  0.2222
 3797TIP3    H132882   2.418   3.618  11.478  0.0198 -0.2878  1.0777
 3797TIP3    H232883   2.354   3.540  11.591 -2.1111 -0.5053 -0.2204
 3798TIP3   OH232884   4.394   5.124  11.858 -0.4494  0.3536  0.4415
 3798TIP3    H132885   4.321   5.064  11.876 -0.2485 -0.2870 -0.7632
 3798TIP3    H232886   4.458   5.103  11.926  0.8647 -2.9637 -1.5555
 3799TIP3   OH232887   1.133   0.479   3.937  0.1251  0.4414  1.0951
 3799TIP3    H132888   1.079   0.408   3.970 -1.2689  1.9448  2.2109
 3799TIP3    H232889   1.091   0.558   3.969  0.2192  1.9482 -2.0627
 3800TIP3   OH232890   5.411   5.350  11.627  0.6561  0.2218  0.5543
 3800TIP3    H132891   5.412   5.280  11.562 -0.7950  1.6661 -1.1417
 3800TIP3    H232892   5.407   5.305  11.711 -0.1025 -1.7339 -0.4734
 3801TIP3   OH232893   4.183   3.639   4.638  0.1649 -0.3349 -0.1795
 3801TIP3    H132894   4.128   3.619   4.713  0.7137  1.0558  0.6232
 3801TIP3    H232895   4.253   3.574   4.641  0.5120  0.0745  0.8660
 3802TIP3   OH232896   2.709   6.045   4.195  0.1791  0.2849  0.1839
 3802TIP3    H132897   2.677   6.040   4.105  0.2152  0.2361  0.1737
 3802TIP3    H232898   2.671   5.968   4.238 -2.6983  2.0694  1.1277
 3803TIP3   OH232899   4.079   2.432   1.120 -0.1817 -0.2279 -0.5469
 3803TIP3    H132900   4.063   2.406   1.029 -0.4877 -0.0493 -0.5461
 3803TIP3    H232901   4.125   2.516   1.114  0.0295 -0.3424 -0.5392
 3804TIP3   OH232902   4.048   0.757  14.286 -0.3525 -0.4131 -0.3146
 3804TIP3    H132903   4.041   0.766  14.381 -0.6008 -0.7143 -0.3023
 3804TIP3    H232904   4.044   0.662  14.271 -3.2998 -0.2971 -0.8411
 3805TIP3   OH232905   6.559   2.485  14.441 -1.0639 -0.2260 -0.6390
 3805TIP3    H132906   6.542   2.488  14.347  0.0117  1.6506 -0.8243
 3805TIP3    H232907   6.525   2.567  14.474  0.9303  0.3457  0.1366
 3806TIP3   OH232908   4.322   2.651  16.136 -0.8556 -0.0055  0.0745
 3806TIP3    H132909   4.252   2.592  16.107 -2.1262  1.5478 -0.1561
 3806TIP3    H232910   4.307   2.663  16.230  0.3416 -1.2088  0.4620
 3807TIP3   OH232911   1.345   3.983  10.881  0.5304  0.3804 -0.0557
 3807TIP3    H132912   1.425   4.034  10.893 -0.2333  1.5203  0.3605
 3807TIP3    H232913   1.368   3.916  10.817  1.8335  0.6358  0.1218
 3808TIP3   OH232914   5.182   6.700   2.267  0.2677  0.4914 -0.1077
 3808TIP3    H132915   5.121   6.769   2.244 -0.0509 -0.1383 -1.2839
 3808TIP3    H232916   5.173   6.689   2.361 -1.0789  0.7394 -0.1923
 3809TIP3   OH232917   3.513   1.817  16.824 -0.4014 -0.0684  0.2561
 3809TIP3    H132918   3.473   1.865  16.751 -0.8458 -0.7940  0.0049
 3809TIP3    H232919   3.576   1.758  16.782  0.9996  1.0874  0.6520
 3810TIP3   OH232920   0.796   5.187  15.598 -0.0232 -0.4318 -0.2297
 3810TIP3    H132921   0.848   5.153  15.671 -0.1014 -0.5480 -0.2274
 3810TIP3    H232922   0.825   5.277  15.588 -2.4875  0.7797  2.2745
 3811TIP3   OH232923   6.689   1.186   6.130  0.2925 -0.6388  0.5693
 3811TIP3    H132924   6.611   1.134   6.150  0.1529 -2.2307 -3.2862
 3811TIP3    H232925   6.663   1.276   6.148 -1.5909 -1.3274  1.6134
 3812TIP3   OH232926   3.296   6.517   3.699 -0.1510 -0.1768  0.5847
 3812TIP3    H132927   3.376   6.567   3.716 -0.9280  0.7316  1.8031
 3812TIP3    H232928   3.305   6.486   3.609  0.7012  1.5472  0.0338
 3813TIP3   OH232929   0.166   1.039   0.943 -0.1331 -0.1414 -0.5055
 3813TIP3    H132930   0.071   1.044   0.940 -0.1676 -1.0177 -1.7044
 3813TIP3    H232931   0.196   1.115   0.893 -0.1303  1.1370  1.3389
 3814TIP3   OH232932   6.812   1.210  13.820  0.3859 -0.1066  0.3136
 3814TIP3    H132933   6.875   1.138  13.824 -0.2999 -0.7698 -0.2287
 3814TIP3    H232934   6.794   1.220  13.726 -2.2432 -1.7305  0.5358
 3815TIP3   OH232935   1.644   4.037   1.487  0.0607  0.0493  0.0828
 3815TIP3    H132936   1.592   4.092   1.546  1.3824  0.7544  0.6385
 3815TIP3    H232937   1.580   3.992   1.432 -1.0963  1.5542  0.1513
 3816TIP3   OH232938   6.501   4.334  12.859  0.1718  0.8902 -0.2716
 3816TIP3    H132939   6.457   4.323  12.774 -0.3295 -1.3465  0.2275
 3816TIP3    H232940   6.594   4.319  12.840 -0.0597 -0.6961 -0.2804
 3817TIP3   OH232941   4.921   2.206  11.982  0.1527 -0.4929 -0.0998
 3817TIP3    H132942   5.000   2.243  12.022 -2.3930  3.3621  1.9977
 3817TIP3    H232943   4.901   2.265  11.909 -1.2699 -0.8254 -0.0163
 3818TIP3   OH232944   2.880   6.005  11.921  0.3280 -0.4573  0.1972
 3818TIP3    H132945   2.803   6.062  11.921  1.9404  1.8701  1.3001
 3818TIP3    H232946   2.863   5.941  11.990  0.1717  1.2990  1.8740
 3819TIP3   OH232947   4.379   2.300   3.762 -0.1158 -0.3317 -0.2645
 3819TIP3    H132948   4.368   2.305   3.857  1.1520 -0.8210 -0.0630
 3819TIP3    H232949   4.290   2.294   3.727 -0.7624  2.2290  0.7172
 3820TIP3   OH232950   1.948   3.075   0.845  0.8510  0.3377 -0.1466
 3820TIP3    H132951   1.973   3.011   0.911  0.5926 -1.4560 -1.7066
 3820TIP3    H232952   2.025   3.083   0.789  0.5803  0.7148 -0.4697
 3821TIP3   OH232953   2.685   6.492  14.317  0.3493  0.2051 -0.0712
 3821TIP3    H132954   2.692   6.465  14.409 -0.3785 -0.7147 -0.2775
 3821TIP3    H232955   2.591   6.496  14.300  0.4718 -0.4566 -1.0047
 3822TIP3   OH232956   0.938   4.352  15.799  0.4105 -0.1400 -0.2400
 3822TIP3    H132957   0.865   4.401  15.837  1.2815  0.3815  0.7986
 3822TIP3    H232958   0.968   4.294  15.869  0.6988 -0.7047 -0.8114
 3823TIP3   OH232959   5.452   2.096   0.239 -0.2018  0.7047  0.5317
 3823TIP3    H132960   5.491   2.055   0.162  0.8089 -0.0139  1.3990
 3823TIP3    H232961   5.511   2.074   0.311 -2.0053 -0.1386  1.8389
 3824TIP3   OH232962   5.936   5.762   1.827  0.3289  0.4532 -0.1856
 3824TIP3    H132963   5.878   5.764   1.903  2.1654  2.5404  1.3081
 3824TIP3    H232964   6.010   5.709   1.856  1.2008  1.5523 -0.3334
 3825TIP3   OH232965   1.544   0.725   4.241  0.2730  0.0399  0.3882
 3825TIP3    H132966   1.615   0.669   4.210  1.3778  1.1722  0.8042
 3825TIP3    H232967   1.510   0.680   4.319  0.3374 -0.6578  0.0152
 3826TIP3   OH232968   3.535   1.561  12.645 -0.3692 -0.2381  0.0928
 3826TIP3    H132969   3.492   1.519  12.570  1.5777 -1.3004 -0.5106
 3826TIP3    H232970   3.478   1.634  12.668 -1.3458 -0.2566 -2.0312
 3827TIP3   OH232971   5.764   3.918   5.303  0.0959  0.3977  0.0892
 3827TIP3    H132972   5.724   3.832   5.316 -0.2844  0.5638  0.0231
 3827TIP3    H232973   5.773   3.954   5.391  0.8521  0.0260  0.1714
 3828TIP3   OH232974   2.627   0.207   4.655 -0.4204 -0.4613  0.0612
 3828TIP3    H132975   2.616   0.219   4.560  0.2418  0.6048  0.1012
 3828TIP3    H232976   2.565   0.268   4.694 -0.9035 -1.1120  0.3332
 3829TIP3   OH232977   2.073   5.390  12.180 -0.1221 -0.2045 -0.4765
 3829TIP3    H132978   2.146   5.378  12.118 -0.0394  0.3787 -0.4893
 3829TIP3    H232979   2.098   5.338  12.256  0.8199  0.8561 -0.0443
 3830TIP3   OH232980   1.290   3.156   5.146  0.1525  0.5541 -0.0640
 3830TIP3    H132981   1.367   3.108   5.116 -0.3020  0.5498 -1.2597
 3830TIP3    H232982   1.325   3.235   5.187  0.8427 -0.1093  0.6751
 3831TIP3   OH232983   4.443   3.763   2.008 -0.1225  0.0203 -0.3039
 3831TIP3    H132984   4.422   3.852   2.035  1.6748  0.2409  0.4595
 3831TIP3    H232985   4.395   3.752   1.926  1.3558  2.5114 -1.6376
 3832TIP3   OH232986   5.473   1.123   3.724  0.5648  0.3536  0.1116
 3832TIP3    H132987   5.516   1.056   3.778  1.8815 -0.2394 -1.5664
 3832TIP3    H232988   5.426   1.178   3.786  0.0412 -1.6945  1.6257
 3833TIP3   OH232989   5.111   6.762   0.414 -0.1885  1.0381  0.0428
 3833TIP3    H132990   5.166   6.729   0.343 -0.2121 -1.6031  1.1156
 3833TIP3    H232991   5.038   6.700   0.419 -0.4101  1.3733  2.0598
 3834TIP3   OH232992   4.517   0.139  13.667  1.2315  0.2942 -0.0342
 3834TIP3    H132993   4.434   0.141  13.618  0.7551  0.7206  0.7719
 3834TIP3    H232994   4.518   0.052  13.708  0.3507  0.8893  1.3228
 3835TIP3   OH232995   1.773   4.685   2.038  0.1400  0.0571  0.3387
 3835TIP3    H132996   1.802   4.600   2.072  2.0005  0.8588  0.9197
 3835TIP3    H232997   1.842   4.711   1.977 -0.1017  1.3908  0.5909
 3836TIP3   OH232998   0.810   2.783  11.630  0.6250 -0.2065  0.6573
 3836TIP3    H132999   0.828   2.816  11.541  0.4304  2.3671  1.4848
 3836TIP3    H233000   0.715   2.786  11.638  0.6979  0.7245  1.3222
 3837TIP3   OH233001   6.166   1.567   2.860  0.3136  0.3719  0.0111
 3837TIP3    H133002   6.080   1.544   2.825  1.1772  1.2081 -2.9119
 3837TIP3    H233003   6.228   1.517   2.806  1.7232  0.2725  1.6310
 3838TIP3   OH233004   0.888   5.843  13.513  0.2601 -0.2046 -0.3768
 3838TIP3    H133005   0.956   5.900  13.477 -0.4997  1.0312  0.1069
 3838TIP3    H233006   0.807   5.871  13.470 -0.0710 -1.1872 -0.4239
 3839TIP3   OH233007   2.735   1.764   4.652  0.3738  0.9324 -0.7019
 3839TIP3    H133008   2.768   1.710   4.723 -0.2735 -0.4899 -1.4198
 3839TIP3    H233009   2.765   1.720   4.572 -1.0509  1.0133 -1.3301
 3840TIP3   OH233010   1.308   3.365  13.109 -0.2736  0.2306  0.1876
 3840TIP3    H133011   1.274   3.453  13.092 -0.8009 -0.2036 -1.1795
 3840TIP3    H233012   1.391   3.362  13.061 -2.2273 -1.3278 -3.6032
 3841TIP3   OH233013   3.443   3.432   0.878  0.8025  0.0507  0.0227
 3841TIP3    H133014   3.499   3.357   0.856  0.0314 -0.9479  1.3499
 3841TIP3    H233015   3.362   3.393   0.910  0.3462  1.4581  0.6511
 3842TIP3   OH233016   6.831   3.794   4.312  0.3815 -0.0295 -0.5417
 3842TIP3    H133017   6.808   3.738   4.386 -0.0345  0.2716 -0.4404
 3842TIP3    H233018   6.925   3.781   4.300  0.9169  1.4930  1.3842
 3843TIP3   OH233019   5.256   4.659  12.083 -0.2354 -0.4003 -0.2289
 3843TIP3    H133020   5.241   4.587  12.145  1.2846  0.3167  1.0294
 3843TIP3    H233021   5.196   4.728  12.111  0.0998 -0.2579  0.1438
 3844TIP3   OH233022   2.727   0.774   3.382  0.4157  0.0462  0.0524
 3844TIP3    H133023   2.681   0.855   3.360 -0.3693 -0.6090 -0.7895
 3844TIP3    H233024   2.819   0.798   3.385  0.1437  1.0806  0.3507
 3845TIP3   OH233025   5.282   1.437   4.792 -0.2926 -0.2351  0.1103
 3845TIP3    H133026   5.258   1.474   4.877  2.2300  1.1002  0.3625
 3845TIP3    H233027   5.305   1.346   4.811  0.8288  0.2079  1.0443
 3846TIP3   OH233028   6.131   3.166   0.397  0.0746  0.0900  0.2613
 3846TIP3    H133029   6.113   3.078   0.432 -0.5488 -0.1347 -0.6027
 3846TIP3    H233030   6.203   3.152   0.335  0.9769  0.4430  1.1926
 3847TIP3   OH233031   1.699   2.660   4.156  0.5040 -0.1995 -0.1820
 3847TIP3    H133032   1.637   2.695   4.092 -0.0356 -1.1491 -0.2098
 3847TIP3    H233033   1.652   2.586   4.196  2.1587 -1.9039 -1.2713
 3848TIP3   OH233034   3.817   0.810   0.695 -0.1289  0.1565 -0.3153
 3848TIP3    H133035   3.812   0.895   0.740  1.9327 -0.1318  0.6076
 3848TIP3    H233036   3.902   0.813   0.650 -0.4720 -1.0508 -1.0732
 3849TIP3   OH233037   5.326   1.238   5.260 -0.0157  0.8622 -0.0993
 3849TIP3    H133038   5.380   1.270   5.333  0.7509  2.6307 -1.3606
 3849TIP3    H233039   5.256   1.303   5.252  1.1748  2.0265 -2.2712
 3850TIP3   OH233040   2.422   0.245   3.796 -0.0863  0.3277  0.0107
 3850TIP3    H133041   2.345   0.239   3.739 -0.3035  1.5546  0.1287
 3850TIP3    H233042   2.475   0.169   3.774 -2.3823 -1.8672  1.5009
 3851TIP3   OH233043   0.437   6.159   5.528 -0.5048  0.0105  0.2873
 3851TIP3    H133044   0.513   6.101   5.517  0.1158  0.8156  0.2070
 3851TIP3    H233045   0.364   6.100   5.547  0.2014 -0.7598  0.6758
 3852TIP3   OH233046   4.262   6.692  14.149 -0.0107  0.3354 -0.4616
 3852TIP3    H133047   4.223   6.665  14.232  1.7063  1.2563  0.7210
 3852TIP3    H233048   4.251   6.616  14.091  0.9862 -1.3387  1.4163
 3853TIP3   OH233049   1.529   1.452  10.161 -0.1594 -0.5318  0.4711
 3853TIP3    H133050   1.449   1.475  10.208 -1.6411 -0.5807 -1.8450
 3853TIP3    H233051   1.600   1.480  10.219 -1.8028  3.3911  0.8933
 3854TIP3   OH233052   5.399   1.751  13.554 -0.6465  0.7507  0.0284
 3854TIP3    H133053   5.362   1.745  13.643  0.7297 -0.5019  0.5570
 3854TIP3    H233054   5.485   1.791  13.567 -0.4100  0.4995 -0.7322
 3855TIP3   OH233055   4.810   6.652  15.759 -0.4821  0.1457 -0.2390
 3855TIP3    H133056   4.819   6.584  15.826  0.7960  0.7095  0.1889
 3855TIP3    H233057   4.715   6.659  15.746 -0.6334 -2.5174 -1.1665
 3856TIP3   OH233058   3.931   5.939  12.141 -0.0502 -0.0915  0.1482
 3856TIP3    H133059   3.973   6.010  12.189  0.5156 -0.1173 -0.2900
 3856TIP3    H233060   3.839   5.963  12.136 -0.3005 -0.5508  2.0668
 3857TIP3   OH233061   3.643   4.138   2.631 -0.0181  0.0338  0.2076
 3857TIP3    H133062   3.622   4.084   2.708 -1.4063  0.4355  0.1440
 3857TIP3    H233063   3.649   4.227   2.665 -0.7539  0.2292 -0.1502
 3858TIP3   OH233064   2.098   0.862  13.339 -0.3798 -0.6436 -0.2006
 3858TIP3    H133065   2.129   0.933  13.284  0.6937 -1.4804 -0.7164
 3858TIP3    H233066   2.017   0.833  13.298 -0.2760 -0.3952 -0.5857
 3859TIP3   OH233067   0.936   0.241   5.466 -0.2294  0.4814 -0.4241
 3859TIP3    H133068   0.868   0.270   5.528  0.4628 -1.4430  1.3576
 3859TIP3    H233069   1.004   0.308   5.474 -1.3355  1.7804 -1.3199
 3860TIP3   OH233070   0.797   0.459  15.308  0.6105  0.3618 -0.2124
 3860TIP3    H133071   0.769   0.477  15.397 -0.2055  0.5850 -0.5060
 3860TIP3    H233072   0.775   0.367  15.293 -0.1661  0.5834 -0.5020
 3861TIP3   OH233073   4.610   6.754   3.399 -0.1702 -0.9873  0.0565
 3861TIP3    H133074   4.520   6.784   3.412  0.2091  0.2266 -0.0105
 3861TIP3    H233075   4.658   6.789   3.474  0.6214  0.0415 -0.8950
 3862TIP3   OH233076   2.775   2.259   4.595  0.3576 -0.7473  0.4634
 3862TIP3    H133077   2.702   2.208   4.630 -0.4480 -0.8621 -1.3015
 3862TIP3    H233078   2.841   2.193   4.573  0.4009 -0.7764  0.6746
 3863TIP3   OH233079   5.287   5.696  11.531  0.6020 -0.3117  0.6083
 3863TIP3    H133080   5.279   5.716  11.438  0.4124 -1.5085  0.3408
 3863TIP3    H233081   5.230   5.620  11.544  0.2321  0.1486  1.8134
 3864TIP3   OH233082   3.404   0.734  16.983 -0.1870 -0.0965  0.6479
 3864TIP3    H133083   3.418   0.765  16.894 -1.8315 -1.0078  0.0337
 3864TIP3    H233084   3.436   0.806  17.038  3.6087 -0.6416 -0.5120
 3865TIP3   OH233085   2.388   2.393  16.467  0.1137 -0.1884 -0.2502
 3865TIP3    H133086   2.353   2.411  16.554 -0.7083  0.1968 -0.6390
 3865TIP3    H233087   2.423   2.304  16.473 -0.5893 -0.4441  0.2851
 3866TIP3   OH233088   6.665   4.678   4.933 -0.8918 -0.6293  0.2072
 3866TIP3    H133089   6.738   4.690   4.873  0.4321 -1.4308  1.5847
 3866TIP3    H233090   6.600   4.630   4.882 -0.4433  0.0307 -1.0257
 3867TIP3   OH233091   0.096   2.947  15.817  0.1020  0.2882  0.1209
 3867TIP3    H133092   0.055   3.005  15.753  0.2179  2.9527  2.2532
 3867TIP3    H233093   0.152   2.889  15.765 -0.3151  1.8390 -2.2054
 3868TIP3   OH233094   1.483   4.619  15.083  0.0222 -0.4946 -0.4918
 3868TIP3    H133095   1.419   4.674  15.038 -2.0401 -2.6671 -0.4321
 3868TIP3    H233096   1.550   4.679  15.113 -1.7628  1.8720 -0.9771
 3869TIP3   OH233097   3.953   4.250  12.755 -0.1629 -0.3307 -0.5752
 3869TIP3    H133098   3.951   4.340  12.723  2.8423  0.1206  0.1326
 3869TIP3    H233099   3.900   4.252  12.835  0.3352  1.0107 -0.2418
 3870TIP3   OH233100   6.333   2.179  13.237  0.1058 -0.5364 -0.1714
 3870TIP3    H133101   6.370   2.216  13.157 -1.8839  1.4983 -0.2366
 3870TIP3    H233102   6.336   2.250  13.301 -2.6437 -0.5503  0.0998
 3871TIP3   OH233103   2.460   5.109   5.236  0.2723 -0.4267 -0.3941
 3871TIP3    H133104   2.418   5.167   5.172  0.1879 -1.5965 -1.4127
 3871TIP3    H233105   2.387   5.061   5.276  0.4891 -1.1223 -0.8348
 3872TIP3   OH233106   1.064   2.238  14.933 -0.9599 -0.0079  0.7965
 3872TIP3    H133107   1.027   2.322  14.959 -1.3264  0.3252 -0.6987
 3872TIP3    H233108   1.152   2.238  14.971 -1.1454  0.8132  1.2586
 3873TIP3   OH233109   5.854   2.745  11.145  0.0088 -0.0626 -0.1189
 3873TIP3    H133110   5.837   2.681  11.076  0.5542 -2.0269  1.4924
 3873TIP3    H233111   5.771   2.791  11.157  0.0226  0.6957 -2.3551
 3874TIP3   OH233112   1.063   5.459  16.949  0.1921  0.2446 -0.4470
 3874TIP3    H133113   1.113   5.495  17.023  0.5294  0.4100 -0.7553
 3874TIP3    H233114   1.046   5.534  16.892 -0.2610  0.1559 -0.4281
 3875TIP3   OH233115   1.690   2.957  15.689 -0.2185 -0.0010 -0.5524
 3875TIP3    H133116   1.734   3.030  15.644  1.2979 -0.3911  0.2430
 3875TIP3    H233117   1.711   2.970  15.781  0.6100 -1.7685 -0.4527
 3876TIP3   OH233118   2.911   3.065   3.818 -0.0034  0.1360  0.1588
 3876TIP3    H133119   2.847   3.097   3.883  0.7046  0.1249  0.8788
 3876TIP3    H233120   2.858   3.020   3.753 -0.7148 -0.0965  0.8782
 3877TIP3   OH233121   2.885   5.509   0.237 -0.5289  0.2945 -0.5931
 3877TIP3    H133122   2.918   5.482   0.152 -1.7419  0.7037 -1.2173
 3877TIP3    H233123   2.953   5.567   0.272  0.1396 -0.1637 -1.1152
 3878TIP3   OH233124   3.856   6.047  13.264 -0.0289  0.2478 -0.1303
 3878TIP3    H133125   3.796   6.119  13.243 -1.0348  0.3751  2.7576
 3878TIP3    H233126   3.821   5.972  13.215 -0.5240  1.0854 -1.1085
 3879TIP3   OH233127   4.367   1.219  11.592  0.1076  0.1296  0.4093
 3879TIP3    H133128   4.362   1.238  11.686  0.3807 -0.2350  0.4977
 3879TIP3    H233129   4.289   1.166  11.575  1.6579 -2.5831  1.0990
 3880TIP3   OH233130   4.262   0.538  12.900 -0.0850 -0.1926  0.3945
 3880TIP3    H133131   4.318   0.593  12.956  0.8119 -0.7896  0.0999
 3880TIP3    H233132   4.252   0.589  12.819 -1.7720  0.8910  1.2052
 3881TIP3   OH233133   5.068   3.337   2.698 -0.0240  1.0711  0.1729
 3881TIP3    H133134   5.032   3.424   2.681 -0.4418  0.9720  0.5172
 3881TIP3    H233135   5.097   3.340   2.790 -1.8496  0.2655  0.8308
 3882TIP3   OH233136   6.580   5.410  12.148 -0.1200  0.2164 -0.1482
 3882TIP3    H133137   6.632   5.330  12.143  1.5198  1.2431  0.1069
 3882TIP3    H233138   6.591   5.452  12.062  1.1156  1.4062  0.5543
 3883TIP3   OH233139   6.701   4.731   5.285 -0.0491  0.0131 -0.0827
 3883TIP3    H133140   6.711   4.685   5.368  0.6056 -0.6889 -0.5397
 3883TIP3    H233141   6.613   4.706   5.255  0.3032 -0.9812 -0.3352
 3884TIP3   OH233142   4.652   0.227  15.632 -0.1214  0.5006 -0.3914
 3884TIP3    H133143   4.700   0.309  15.637  1.6186 -0.4166 -1.0538
 3884TIP3    H233144   4.709   0.169  15.581 -1.5665 -0.9292 -0.4749
 3885TIP3   OH233145   5.086   5.547  12.455 -0.0995  0.5177  0.3016
 3885TIP3    H133146   5.087   5.455  12.482  0.4670  0.1924 -0.7450
 3885TIP3    H233147   5.094   5.596  12.537 -0.4263 -0.3638  0.8772
 3886TIP3   OH233148   6.061   4.040   0.646 -0.0592 -0.1106 -0.2975
 3886TIP3    H133149   6.117   3.962   0.645 -0.9849 -0.8288 -2.1685
 3886TIP3    H233150   5.974   4.006   0.663 -0.2278  0.7625  0.6557
 3887TIP3   OH233151   3.716   2.775   3.204 -0.1371 -0.0472  0.0665
 3887TIP3    H133152   3.777   2.774   3.130  0.7396  0.5664  0.7679
 3887TIP3    H233153   3.678   2.863   3.203 -0.9591 -0.3925 -0.3037
 3888TIP3   OH233154   4.370   5.933   3.440  0.0744 -0.4266 -0.4735
 3888TIP3    H133155   4.464   5.945   3.457 -0.0668  0.8510 -0.4908
 3888TIP3    H233156   4.342   5.868   3.504  1.2099 -1.7330 -1.2654
 3889TIP3   OH233157   5.894   0.765   3.260  0.2991  0.7655  0.5733
 3889TIP3    H133158   5.980   0.734   3.229 -0.0999  1.1460 -1.0070
 3889TIP3    H233159   5.900   0.759   3.355  2.1678  0.9750  0.5213
 3890TIP3   OH233160   6.192   0.733   5.703  0.0078  0.0584  0.0583
 3890TIP3    H133161   6.118   0.794   5.697  0.6560  0.7726 -1.0807
 3890TIP3    H233162   6.159   0.660   5.756 -1.4645  0.4101 -0.3298
 3891TIP3   OH233163   0.989   5.796  16.560  0.4116 -0.2007  0.4695
 3891TIP3    H133164   1.058   5.760  16.504  0.5963 -2.0990  1.7876
 3891TIP3    H233165   0.928   5.723  16.572 -1.7445  1.3674 -0.4562
 3892TIP3   OH233166   5.351   1.254  16.100  0.0163  0.1565  0.2004
 3892TIP3    H133167   5.392   1.314  16.037 -0.6210 -1.3112 -1.6903
 3892TIP3    H233168   5.396   1.171  16.087 -0.2141 -0.2112  1.6421
 3893TIP3   OH233169   5.802   2.210  15.089 -0.5235  0.4429 -0.5545
 3893TIP3    H133170   5.842   2.178  15.170 -0.2826  0.8146 -0.5235
 3893TIP3    H233171   5.793   2.133  15.034 -0.3759  0.2445 -0.3035
 3894TIP3   OH233172   3.111   5.846  14.112 -0.7600  0.1572 -0.1874
 3894TIP3    H133173   3.106   5.803  14.026  0.8921  0.1213 -0.2838
 3894TIP3    H233174   3.047   5.798  14.165  0.3992 -1.8961 -0.5255
 3895TIP3   OH233175   1.836   2.749   6.460  0.1419  0.0079  0.1234
 3895TIP3    H133176   1.800   2.818   6.516  0.6062 -1.3399  2.1955
 3895TIP3    H233177   1.927   2.740   6.489  0.1492 -1.3280 -0.2610
 3896TIP3   OH233178   2.881   4.102  14.143 -0.1338 -0.2201  0.0764
 3896TIP3    H133179   2.836   4.044  14.081 -0.8800 -0.0798  0.4756
 3896TIP3    H233180   2.973   4.092  14.122 -0.2754 -1.2780 -0.1098
 3897TIP3   OH233181   5.405   2.873   4.968 -0.3836  0.2895 -0.5351
 3897TIP3    H133182   5.388   2.853   5.060  2.9159  0.5383  0.2597
 3897TIP3    H233183   5.322   2.905   4.935 -1.7437  0.0525  2.3067
 3898TIP3   OH233184   5.172   2.574   0.196 -0.0748  0.0936  0.1937
 3898TIP3    H133185   5.186   2.665   0.222 -0.5801  0.0511  0.6239
 3898TIP3    H233186   5.256   2.532   0.211  0.3452  0.6164 -0.5886
 3899TIP3   OH233187   3.211   0.185  14.945  0.2601 -0.0324  0.7793
 3899TIP3    H133188   3.182   0.128  15.016 -1.0759 -0.2442  0.0829
 3899TIP3    H233189   3.134   0.196  14.889  1.3738 -0.1853 -0.8606
 3900TIP3   OH233190   3.255   4.790  13.326  0.0359 -0.6533  0.1505
 3900TIP3    H133191   3.231   4.842  13.402 -1.4305  0.5613 -1.0838
 3900TIP3    H233192   3.201   4.711  13.333 -1.4828  0.2889 -0.5538
 3901TIP3   OH233193   3.408   3.497  15.889 -0.1989  0.4306  0.5356
 3901TIP3    H133194   3.354   3.418  15.894  1.2070 -0.5066  1.4540
 3901TIP3    H233195   3.487   3.469  15.842 -0.0386  1.5185  0.1290
 3902TIP3   OH233196   3.963   4.689  13.324  0.1618 -0.2515  0.4812
 3902TIP3    H133197   4.010   4.634  13.387  1.2361  0.7801  0.6399
 3902TIP3    H233198   3.874   4.693  13.358  0.3481 -0.9484  1.0968
 3903TIP3   OH233199   2.416   3.129  16.980  0.5747  0.7269 -0.5376
 3903TIP3    H133200   2.363   3.163  17.052  0.6001  0.3089 -0.3228
 3903TIP3    H233201   2.352   3.097  16.917  0.5684 -0.8172  0.2171
 3904TIP3   OH233202   2.529   0.744  12.783 -0.4322  0.4166  0.1403
 3904TIP3    H133203   2.508   0.741  12.876  0.6168  1.2701  0.4324
 3904TIP3    H233204   2.503   0.659  12.749 -1.1618  0.2255  1.1370
 3905TIP3   OH233205   6.299   6.856   2.304  0.9468 -0.5287 -0.6349
 3905TIP3    H133206   6.285   6.881   2.396  1.0066  1.6110 -1.1714
 3905TIP3    H233207   6.272   6.764   2.301  0.7122 -0.5928  1.4696
 3906TIP3   OH233208   1.880   0.167   1.874  0.3278 -0.2071  0.5163
 3906TIP3    H133209   1.952   0.214   1.916  0.7993 -0.1976 -0.2911
 3906TIP3    H233210   1.906   0.075   1.879  0.6357 -0.1668 -0.2021
 3907TIP3   OH233211   6.560   3.352   1.771 -1.2060 -0.6690 -0.0963
 3907TIP3    H133212   6.643   3.392   1.745 -1.7963  1.9985  1.6230
 3907TIP3    H233213   6.555   3.271   1.721  3.0851 -1.7408  0.8021
 3908TIP3   OH233214   5.453   3.849  11.967  0.2518 -0.4657  0.6309
 3908TIP3    H133215   5.393   3.777  11.984  0.4276 -1.0475 -1.0490
 3908TIP3    H233216   5.434   3.876  11.877  0.0470  1.7520  1.2677
 3909TIP3   OH233217   0.369   2.018  11.413  0.4890  0.5733 -0.4582
 3909TIP3    H133218   0.277   1.995  11.424  0.3999  0.7840 -0.7401
 3909TIP3    H233219   0.417   1.944  11.451  0.2087 -0.0688 -1.3265
 3910TIP3   OH233220   0.542   3.035  13.219 -0.3036 -0.7412 -0.1816
 3910TIP3    H133221   0.606   3.058  13.286 -1.7598 -0.3075  1.1387
 3910TIP3    H233222   0.586   2.970  13.165  2.0620  1.2238 -0.7760
 3911TIP3   OH233223   5.894   5.904  13.266 -0.4606 -0.1733  0.0496
 3911TIP3    H133224   5.871   5.821  13.222  1.0792  1.1087 -3.5744
 3911TIP3    H233225   5.822   5.963  13.244 -0.6574 -0.0179  1.0644
 3912TIP3   OH233226   5.361   5.794   3.044 -0.0338 -0.3773 -0.4050
 3912TIP3    H133227   5.413   5.757   3.116 -0.3449 -0.7361 -0.3624
 3912TIP3    H233228   5.325   5.875   3.080  0.1286 -0.3567 -0.2863
 3913TIP3   OH233229   4.932   2.694   0.569  0.2952 -0.5152  0.9623
 3913TIP3    H133230   4.970   2.621   0.519 -0.2687  0.5034 -1.0415
 3913TIP3    H233231   4.958   2.772   0.521 -0.9064  0.4725  1.8613
 3914TIP3   OH233232   0.503   0.912   2.758  0.0034  0.1975 -0.7840
 3914TIP3    H133233   0.572   0.890   2.820 -0.1913  1.0244 -0.2532
 3914TIP3    H233234   0.493   1.007   2.766 -2.2089 -0.0730  0.2450
 3915TIP3   OH233235   4.966   4.472  12.477 -0.2381 -0.4352 -0.4823
 3915TIP3    H133236   4.885   4.522  12.471 -0.9703 -1.6584 -1.1845
 3915TIP3    H233237   5.009   4.505  12.556 -2.0807 -0.7014  0.6831
 3916TIP3   OH233238   1.438   2.270   2.220 -0.6745 -0.5227  0.3625
 3916TIP3    H133239   1.461   2.359   2.193 -0.8709 -0.2549  1.0690
 3916TIP3    H233240   1.479   2.214   2.154  1.6546 -0.0478  1.3064
 3917TIP3   OH233241   5.715   4.898  15.816  0.6294 -0.4039  0.1655
 3917TIP3    H133242   5.690   4.921  15.905  0.1735  0.1490 -0.0981
 3917TIP3    H233243   5.768   4.819  15.825  0.7568 -0.2324  0.9409
 3918TIP3   OH233244   3.762   4.882  16.352  0.1423  0.7521 -0.6048
 3918TIP3    H133245   3.851   4.852  16.373 -0.6157 -1.8253 -0.7590
 3918TIP3    H233246   3.770   4.978  16.345  2.3692  0.8464  1.8395
 3919TIP3   OH233247   3.564   2.591  14.352 -0.4585  0.3169 -0.0504
 3919TIP3    H133248   3.470   2.594  14.331 -1.0871 -0.9841  2.2717
 3919TIP3    H233249   3.576   2.659  14.418  1.1047  3.0959 -2.9384
 3920TIP3   OH233250   1.241   5.851  13.965 -0.0552  0.0895  0.2234
 3920TIP3    H133251   1.170   5.825  14.024 -1.0194  0.4509 -0.7539
 3920TIP3    H233252   1.318   5.806  14.000 -0.9233 -1.0101  0.7991
 3921TIP3   OH233253   6.794   2.920  16.940 -0.2164 -0.2469  0.5158
 3921TIP3    H133254   6.856   2.853  16.967  1.1621  0.5133 -0.6090
 3921TIP3    H233255   6.709   2.876  16.937  0.4843 -1.6489  0.8125
 3922TIP3   OH233256   5.865   5.387   0.595  0.1033  0.7642 -0.0094
 3922TIP3    H133257   5.851   5.364   0.686  0.1449  0.7441 -0.0080
 3922TIP3    H233258   5.785   5.433   0.569 -0.0897  0.3770 -0.0939
 3923TIP3   OH233259   3.671   4.418  11.319 -0.3151 -0.6342 -0.7159
 3923TIP3    H133260   3.595   4.454  11.365  0.3185  1.0058 -0.8801
 3923TIP3    H233261   3.634   4.356  11.256 -1.3845 -0.9909  0.2471
 3924TIP3   OH233262   0.707   0.792  16.208 -0.1038  0.2254 -0.2980
 3924TIP3    H133263   0.751   0.764  16.288 -0.9116  0.0177  0.0832
 3924TIP3    H233264   0.775   0.789  16.141  0.1718 -1.3392  0.0065
 3925TIP3   OH233265   3.114   4.320   3.204 -0.4656  0.4239 -0.3166
 3925TIP3    H133266   3.039   4.380   3.198  0.9677  2.2492 -0.7881
 3925TIP3    H233267   3.087   4.255   3.269 -3.2154 -0.1603 -1.8702
 3926TIP3   OH233268   4.258   3.675   1.269 -0.0508 -0.2214  0.1039
 3926TIP3    H133269   4.248   3.628   1.187 -1.6573 -0.0579  0.1834
 3926TIP3    H233270   4.264   3.607   1.336 -1.9084 -0.3712  0.1670
 3927TIP3   OH233271   3.771   2.500   3.219 -0.1301  0.1919  0.2907
 3927TIP3    H133272   3.758   2.593   3.201  0.1517  0.2853  0.5507
 3927TIP3    H233273   3.850   2.477   3.170 -0.1119  0.1298  0.3479
 3928TIP3   OH233274   2.878   1.634  15.724  0.0683 -0.0317  0.4551
 3928TIP3    H133275   2.973   1.619  15.717  0.1030  0.7778 -1.1957
 3928TIP3    H233276   2.868   1.729  15.721 -0.7322 -0.0334  2.0615
 3929TIP3   OH233277   2.946   2.901   1.972 -0.4145  0.2797  0.6133
 3929TIP3    H133278   2.988   2.913   1.887 -2.8936  0.6600 -0.6257
 3929TIP3    H233279   2.958   2.984   2.017  1.3294 -0.0813  0.8890
 3930TIP3   OH233280   3.349   3.758  15.822 -0.2506  0.4779 -0.0812
 3930TIP3    H133281   3.256   3.767  15.843 -0.9242  1.4166 -2.9537
 3930TIP3    H233282   3.369   3.667  15.840 -2.9430 -0.9354 -3.2136
 3931TIP3   OH233283   4.197   2.495   1.875 -0.2222  0.4661  0.3115
 3931TIP3    H133284   4.264   2.562   1.888  0.6462 -0.3811  0.2638
 3931TIP3    H233285   4.210   2.434   1.948 -0.6800  0.0724  0.0680
 3932TIP3   OH233286   3.542   4.424  14.919  0.6326 -0.5378 -0.1695
 3932TIP3    H133287   3.619   4.442  14.974  0.5789 -1.4527  0.2315
 3932TIP3    H233288   3.539   4.497  14.858  0.2807  0.9089  1.4857
 3933TIP3   OH233289   3.187   6.414  13.041 -0.1277  0.0998  0.2787
 3933TIP3    H133290   3.142   6.384  13.120 -3.2565  1.3446 -0.8676
 3933TIP3    H233291   3.137   6.374  12.969  0.0956  2.1674 -1.0934
 3934TIP3   OH233292   3.182   0.761   4.334 -0.9724  0.3423  0.2842
 3934TIP3    H133293   3.121   0.708   4.282 -1.9052  0.5273  1.1555
 3934TIP3    H233294   3.268   0.739   4.299 -1.3211 -1.7838  0.6339
 3935TIP3   OH233295   5.208   3.794  14.675 -0.0963  0.1921 -0.6321
 3935TIP3    H133296   5.120   3.824  14.699  0.1013 -0.0201  0.3729
 3935TIP3    H233297   5.200   3.699  14.669  1.0934 -0.4553  4.2768
 3936TIP3   OH233298   6.795   0.814  14.165  0.5150  0.1248  0.2027
 3936TIP3    H133299   6.865   0.840  14.225  1.2362 -0.6005 -0.2911
 3936TIP3    H233300   6.841   0.782  14.088 -0.3943  0.7932 -0.6436
 3937TIP3   OH233301   2.534   4.387  15.886 -0.0526 -0.1005  0.7220
 3937TIP3    H133302   2.547   4.475  15.851 -0.4301 -0.1739  0.3962
 3937TIP3    H233303   2.596   4.332  15.837 -2.0676 -0.6001 -1.4204
 3938TIP3   OH233304   5.587   3.591  16.367  0.2457  0.4626  0.1029
 3938TIP3    H133305   5.654   3.605  16.299  1.0575 -0.7360  0.6141
 3938TIP3    H233306   5.505   3.617  16.326  0.9936  1.8593 -0.5925
 3939TIP3   OH233307   3.242   2.526  14.631 -0.3074 -0.0051  0.1927
 3939TIP3    H133308   3.245   2.581  14.553 -1.4553  1.1394  0.9282
 3939TIP3    H233309   3.153   2.535  14.664 -0.1502 -1.3008  1.0693
 3940TIP3   OH233310   4.238   2.011  11.730  0.1829 -0.2141 -0.1659
 3940TIP3    H133311   4.158   2.064  11.727  1.0580  1.2421  0.9324
 3940TIP3    H233312   4.303   2.063  11.682  1.1210 -0.1621  1.1307
 3941TIP3   OH233313   5.166   3.163   1.880  0.1398 -0.2950  0.2249
 3941TIP3    H133314   5.181   3.237   1.822 -0.3721 -0.2359  0.1600
 3941TIP3    H233315   5.109   3.198   1.949  0.4649 -0.4501  0.5743
 3942TIP3   OH233316   1.940   3.218  16.023  0.1460 -0.2040 -0.2400
 3942TIP3    H133317   2.013   3.230  15.963 -0.4276  0.3459 -0.8345
 3942TIP3    H233318   1.929   3.303  16.065 -0.3859 -0.1882 -0.4126
 3943TIP3   OH233319   4.662   1.559   1.848 -0.2385  0.3575 -0.0344
 3943TIP3    H133320   4.744   1.536   1.806 -0.1201  0.8055 -0.0459
 3943TIP3    H233321   4.668   1.653   1.865  0.4768 -0.1029  2.6293
 3944TIP3   OH233322   4.061   0.817   0.503 -0.3157  0.0791 -0.6578
 3944TIP3    H133323   4.075   0.902   0.461  0.8758  0.1576 -0.1473
 3944TIP3    H233324   4.098   0.754   0.441  1.6028  0.2095  0.2973
 3945TIP3   OH233325   0.104   6.677   5.990  0.4670 -0.0948 -0.1000
 3945TIP3    H133326   0.016   6.639   5.995 -0.0933  0.9273 -1.6203
 3945TIP3    H233327   0.154   6.630   6.058 -0.7038 -2.0897 -0.5234
 3946TIP3   OH233328   1.318   4.168  15.955 -0.1940 -0.2510 -0.1884
 3946TIP3    H133329   1.408   4.144  15.936  0.1147  1.1108 -0.5669
 3946TIP3    H233330   1.266   4.116  15.894  0.3884 -0.5652 -0.4252
 3947TIP3   OH233331   1.553   5.107   2.465 -0.9594  0.2096  0.3658
 3947TIP3    H133332   1.571   5.043   2.534 -1.9504 -1.0249 -0.4937
 3947TIP3    H233333   1.639   5.126   2.428 -0.6276 -0.4980  0.7425
 3948TIP3   OH233334   6.179   1.414  10.612 -0.3433 -0.0456 -0.3373
 3948TIP3    H133335   6.196   1.409  10.518  0.3143 -0.2954 -0.2158
 3948TIP3    H233336   6.104   1.357  10.626 -0.1545 -0.3766 -0.6507
 3949TIP3   OH233337   3.541   2.647  11.962 -0.0406 -0.3200 -0.9080
 3949TIP3    H133338   3.597   2.579  11.923 -1.5701 -1.1177 -1.7917
 3949TIP3    H233339   3.455   2.606  11.969 -1.0062  1.5342 -1.4483
 3950TIP3   OH233340   2.762   2.572   1.779  0.0188 -0.3186 -0.3086
 3950TIP3    H133341   2.779   2.646   1.721 -0.3139  1.5315  1.7831
 3950TIP3    H233342   2.849   2.542   1.807  0.1971 -1.4603 -1.9289
 3951TIP3   OH233343   3.151   1.916  11.700 -0.0442  0.7854  0.2904
 3951TIP3    H133344   3.185   1.863  11.773  0.5010  0.4838 -0.1695
 3951TIP3    H233345   3.191   1.877  11.622 -0.2968  1.3612 -0.1328
 3952TIP3   OH233346   0.097   6.129  11.799 -0.5304  0.3019 -0.7202
 3952TIP3    H133347   0.141   6.076  11.865 -2.7318  1.2329  1.6798
 3952TIP3    H233348   0.090   6.072  11.722 -0.1781 -1.7920  0.7269
 3953TIP3   OH233349   0.027   5.908  12.040  0.6276  0.0932 -0.1700
 3953TIP3    H133350  -0.038   5.894  11.972 -0.1691 -0.4528  0.6894
 3953TIP3    H233351   0.025   6.002  12.056 -1.2354 -0.1177  1.0751
 3954TIP3   OH233352   6.722   5.964  15.550  1.0163  0.0577 -0.2384
 3954TIP3    H133353   6.666   5.891  15.577  1.1342  0.1968  0.3897
 3954TIP3    H233354   6.809   5.943  15.584  1.3741 -0.1921 -1.2755
 3955TIP3   OH233355   5.884   6.607  15.495  0.2725 -0.5557  0.0583
 3955TIP3    H133356   5.962   6.606  15.439  2.3212 -0.7129  2.6688
 3955TIP3    H233357   5.899   6.682  15.554 -1.9565 -0.1460  0.1679
 3956TIP3   OH233358   6.186   4.913  10.640  0.3828  0.4770 -0.3576
 3956TIP3    H133359   6.148   4.841  10.589  0.3205  0.6673 -0.5781
 3956TIP3    H233360   6.280   4.895  10.639  0.3100  0.0452  0.1288
 3957TIP3   OH233361   0.790   0.856   3.395  0.6773  0.3364  0.2419
 3957TIP3    H133362   0.705   0.899   3.389  0.3787 -0.3792 -1.1620
 3957TIP3    H233363   0.810   0.831   3.305  1.5641 -1.0653  0.7965
 3958TIP3   OH233364   3.695   3.113   3.996 -0.0243  0.4223 -0.1241
 3958TIP3    H133365   3.629   3.051   4.027  0.3956  0.1064  0.1409
 3958TIP3    H233366   3.645   3.179   3.946 -0.5279  0.1556  0.0286
 3959TIP3   OH233367   6.569   4.476   3.007  0.2914 -0.3716  0.3741
 3959TIP3    H133368   6.504   4.520   2.951 -0.9894 -0.7526  1.4891
 3959TIP3    H233369   6.522   4.400   3.042  0.7095  0.3361  2.6557
 3960TIP3   OH233370   5.168   2.909  12.559  0.2891  0.3086  0.1737
 3960TIP3    H133371   5.209   2.914  12.472  3.8179 -2.1124  1.4564
 3960TIP3    H233372   5.089   2.858  12.546  0.8855 -0.2348 -1.6086
 3961TIP3   OH233373   1.034   3.543  11.578 -0.3929 -0.2180 -0.0101
 3961TIP3    H133374   1.048   3.449  11.595  0.8195  0.1414  1.1457
 3961TIP3    H233375   1.046   3.585  11.663  1.7291  1.2470 -0.9390
 3962TIP3   OH233376   4.788   4.747  16.474  0.5342  0.2537  0.4566
 3962TIP3    H133377   4.883   4.744  16.458  1.1655 -1.6210  3.5622
 3962TIP3    H233378   4.771   4.838  16.498  1.4581  0.7095 -0.5228
 3963TIP3   OH233379   2.428   3.724  13.738  0.1322  0.6078  0.2710
 3963TIP3    H133380   2.400   3.725  13.830  1.5432 -0.3207  0.7488
 3963TIP3    H233381   2.508   3.671  13.738 -0.0848  0.2193 -1.5798
 3964TIP3   OH233382   0.146   4.658   4.412 -0.0659 -0.0305  0.0306
 3964TIP3    H133383   0.144   4.746   4.451 -0.1128 -0.0165 -0.0045
 3964TIP3    H233384   0.234   4.652   4.375  0.4258 -0.5061  1.2150
 3965TIP3   OH233385   1.920   3.336   1.393  0.2886 -0.3873  0.6429
 3965TIP3    H133386   1.924   3.248   1.356 -0.2599 -0.1544  0.0181
 3965TIP3    H233387   1.872   3.388   1.328  1.2373  0.5500  0.6526
 3966TIP3   OH233388   2.127   6.240   4.372 -0.0824  0.4178 -0.1595
 3966TIP3    H133389   2.178   6.162   4.392 -0.5029  0.4604  1.1434
 3966TIP3    H233390   2.108   6.280   4.457 -0.4065  1.6019 -0.7602
 3967TIP3   OH233391   3.232   1.096  15.805 -0.0859  0.2740 -0.4180
 3967TIP3    H133392   3.264   1.006  15.808  1.5311  0.8093 -0.6760
 3967TIP3    H233393   3.265   1.131  15.722  1.3086  1.7941  0.7135
 3968TIP3   OH233394   4.222   2.302   5.623  0.6058  0.4589  0.4023
 3968TIP3    H133395   4.194   2.261   5.542  0.7130 -0.1572  0.6630
 3968TIP3    H233396   4.197   2.239   5.691  1.4505  0.4784  0.7456
 3969TIP3   OH233397   0.864   3.843   0.998  0.2312  0.3584 -0.0137
 3969TIP3    H133398   0.835   3.771   1.055  0.8296 -0.7122 -1.0092
 3969TIP3    H233399   0.788   3.862   0.943  0.1745  0.2664  0.0325
 3970TIP3   OH233400   1.254   3.258  10.878 -0.0330 -0.1866  0.5553
 3970TIP3    H133401   1.323   3.202  10.843  1.3746  0.7150  1.7753
 3970TIP3    H233402   1.279   3.346  10.851 -1.5261  0.0256 -0.2449
 3971TIP3   OH233403   6.550   0.449   5.957  0.1846  0.6245  0.5248
 3971TIP3    H133404   6.476   0.467   6.016 -0.1531  2.1179 -0.2992
 3971TIP3    H233405   6.598   0.378   6.000 -1.6790 -0.3413  1.1206
 3972TIP3   OH233406   4.758   1.858  10.183  0.3589 -0.2907 -0.0083
 3972TIP3    H133407   4.720   1.872  10.096  1.3912 -2.2364 -0.8337
 3972TIP3    H233408   4.816   1.933  10.196  0.8765 -0.4270 -1.4104
 3973TIP3   OH233409   2.865   0.317   3.296  0.0846 -0.1192 -0.0474
 3973TIP3    H133410   2.865   0.341   3.389  2.9730 -2.0991  0.6013
 3973TIP3    H233411   2.958   0.309   3.274 -0.5056 -3.7430 -1.9333
 3974TIP3   OH233412   0.980   3.118  16.352 -0.5299 -0.7373 -0.6586
 3974TIP3    H133413   0.947   3.040  16.396 -0.4901 -0.4943 -0.1955
 3974TIP3    H233414   0.902   3.161  16.317 -0.6939 -0.2920  0.2252
 3975TIP3   OH233415   5.723   0.818  12.408 -0.0466 -0.0592 -0.2429
 3975TIP3    H133416   5.806   0.856  12.378 -1.0116  0.2839 -2.6773
 3975TIP3    H233417   5.661   0.890  12.403 -0.8400 -0.7230 -0.0285
 3976TIP3   OH233418   0.966   1.018   4.951  0.5894  0.7990  0.2529
 3976TIP3    H133419   0.974   1.106   4.914 -0.4723  1.2971  1.1640
 3976TIP3    H233420   0.889   0.981   4.907  1.4161  0.0621 -0.6092
 3977TIP3   OH233421   3.300   3.003   1.683  0.3684 -0.4634 -0.4182
 3977TIP3    H133422   3.367   3.040   1.627  0.2902  0.0611 -0.1678
 3977TIP3    H233423   3.331   3.018   1.772  0.2677 -0.8715 -0.3088
 3978TIP3   OH233424   0.353   6.175  14.382 -0.1216 -0.1424 -0.5463
 3978TIP3    H133425   0.350   6.135  14.469  1.2062 -0.3202 -0.5562
 3978TIP3    H233426   0.271   6.148  14.340 -1.2051  0.6936  0.9530
 3979TIP3   OH233427   3.679   0.478   6.269 -0.2967 -0.0332 -0.1254
 3979TIP3    H133428   3.753   0.517   6.316 -1.3192 -0.7124  2.1825
 3979TIP3    H233429   3.686   0.384   6.287 -0.1854 -0.4575 -2.2071
 3980TIP3   OH233430   0.400   2.398   5.135  0.0290 -0.2655 -0.0079
 3980TIP3    H133431   0.310   2.374   5.116 -0.2979 -0.4131  1.5839
 3980TIP3    H233432   0.453   2.337   5.084 -0.7859 -1.8043  0.9287
 3981TIP3   OH233433   3.944   6.633  15.171  0.3247  0.5366 -0.0808
 3981TIP3    H133434   4.019   6.675  15.128 -0.6262  2.3546 -0.0455
 3981TIP3    H233435   3.869   6.688  15.148 -0.6665 -0.0401  1.6134
 3982TIP3   OH233436   3.199   0.143   5.529 -0.3991 -0.4062 -0.0612
 3982TIP3    H133437   3.219   0.172   5.440 -1.3420 -1.6421 -0.7069
 3982TIP3    H233438   3.209   0.221   5.583 -0.9555  0.6383 -1.4277
 3983TIP3   OH233439   2.009   3.997  13.220  0.2014  0.5153  0.4464
 3983TIP3    H133440   1.968   3.945  13.151  1.7003  0.7912 -0.6786
 3983TIP3    H233441   1.941   4.059  13.247 -0.5971 -0.0001 -0.3440
 3984TIP3   OH233442   4.737   4.769  14.969 -1.1113 -0.3926  0.1117
 3984TIP3    H133443   4.662   4.825  14.950 -1.2967 -0.8586 -0.5735
 3984TIP3    H233444   4.715   4.685  14.928  0.1243 -0.3096 -0.7526
 3985TIP3   OH233445   0.755   0.894  14.749  0.0224 -0.4563 -0.4272
 3985TIP3    H133446   0.750   0.978  14.702 -2.8058 -0.3134 -0.0841
 3985TIP3    H233447   0.817   0.910  14.820  1.2829  0.5916 -1.6941
 3986TIP3   OH233448   5.940   5.717  11.335 -0.4567 -0.6748 -0.2663
 3986TIP3    H133449   5.969   5.771  11.408 -0.7815 -0.2616 -0.4388
 3986TIP3    H233450   6.014   5.718  11.274 -1.0391  0.9202 -1.0051
 3987TIP3   OH233451   2.757   1.748  15.056  0.1422 -0.0875 -0.0286
 3987TIP3    H133452   2.735   1.839  15.076 -1.4705 -0.0578 -1.6671
 3987TIP3    H233453   2.849   1.750  15.031 -0.4998  1.6552 -2.7392
 3988TIP3   OH233454   5.660   1.219  15.293  0.0632  0.0198 -0.3961
 3988TIP3    H133455   5.666   1.303  15.339 -0.7124 -0.6726  1.0402
 3988TIP3    H233456   5.674   1.241  15.201 -2.1401  2.0315 -0.3351
 3989TIP3   OH233457   1.190   3.259  13.350 -0.1710 -0.2578 -0.2210
 3989TIP3    H133458   1.196   3.287  13.259  2.3601 -0.9622 -0.3453
 3989TIP3    H233459   1.213   3.166  13.348 -1.3366 -0.5951  1.0028
 3990TIP3   OH233460   1.536   2.762  13.598  0.2285 -0.0579 -0.5626
 3990TIP3    H133461   1.525   2.810  13.516  0.6512 -0.2940 -0.7606
 3990TIP3    H233462   1.454   2.777  13.645 -0.1627 -0.2076 -1.1804
 3991TIP3   OH233463   3.435   3.829  13.904  0.0659  0.3083 -0.6249
 3991TIP3    H133464   3.457   3.739  13.930 -0.5746 -0.1078 -1.4954
 3991TIP3    H233465   3.451   3.881  13.983  0.0057 -0.6333  0.0234
 3992TIP3   OH233466   0.744   1.439   5.876  0.0844 -0.2080  0.5258
 3992TIP3    H133467   0.810   1.410   5.940  0.0873 -0.4522  0.4121
 3992TIP3    H233468   0.661   1.414   5.916  0.0627  0.0331  0.6344
 3993TIP3   OH233469   3.430   0.181  14.797  0.3013 -0.3902 -0.1555
 3993TIP3    H133470   3.349   0.178  14.847 -0.5863  1.8920 -1.3161
 3993TIP3    H233471   3.403   0.209  14.709  2.3356  0.3347 -0.5980
 3994TIP3   OH233472   4.613   5.147   3.982  0.0366  0.1506  0.1918
 3994TIP3    H133473   4.554   5.222   3.975  0.2874  0.2823 -0.6096
 3994TIP3    H233474   4.577   5.083   3.921  0.7720  0.2754 -0.3819
 3995TIP3   OH233475   2.645   0.187  13.591 -0.4068 -0.2567  0.5032
 3995TIP3    H133476   2.719   0.243  13.614  0.3190  0.0470 -2.2837
 3995TIP3    H233477   2.643   0.121  13.661  0.1571  1.7972  2.6111
 3996TIP3   OH233478   6.275   3.087  12.179  0.2304 -0.2876 -0.2221
 3996TIP3    H133479   6.245   3.080  12.270 -0.2965  0.0030 -0.3681
 3996TIP3    H233480   6.370   3.095  12.186  0.3342 -1.6003  0.2340
 3997TIP3   OH233481   5.128   5.629   2.875 -0.3995  0.7036  0.1951
 3997TIP3    H133482   5.116   5.722   2.893  2.2470  1.8893 -3.1157
 3997TIP3    H233483   5.214   5.608   2.911  0.2753  0.3729 -1.4895
 3998TIP3   OH233484   0.998   3.295   1.451 -0.7766 -0.1762  0.2997
 3998TIP3    H133485   0.951   3.243   1.385  0.0676  0.7257 -1.0595
 3998TIP3    H233486   1.091   3.276   1.434 -0.5387 -0.0136  1.3316
 3999TIP3   OH233487   2.162   4.713   0.177  0.1709 -0.1563 -0.4669
 3999TIP3    H133488   2.237   4.749   0.131  0.0319 -0.0517 -0.6139
 3999TIP3    H233489   2.090   4.774   0.157 -0.0992 -0.5932 -0.8292
 4000TIP3   OH233490   0.090   1.062   2.661  0.2965  0.0558  0.4108
 4000TIP3    H133491   0.002   1.070   2.626 -0.1036 -2.5008  0.6633
 4000TIP3    H233492   0.136   1.140   2.629 -1.5797  0.6143 -1.0760
 4001TIP3   OH233493   5.554   5.417  10.766 -0.5764  0.2398  0.5178
 4001TIP3    H133494   5.629   5.475  10.759 -0.1325 -0.3132  0.6049
 4001TIP3    H233495   5.551   5.371  10.682 -2.5300  2.2690 -0.6208
 4002TIP3   OH233496   5.046   5.855   2.989 -0.3109  0.0244  0.2205
 4002TIP3    H133497   5.106   5.889   3.056  0.0252 -0.3435  0.1074
 4002TIP3    H233498   4.967   5.908   3.000 -0.1995  0.0856  0.7975
 4003TIP3   OH233499   4.352   1.399  12.565  0.0479 -0.5531  0.0812
 4003TIP3    H133500   4.285   1.443  12.513  0.1589 -0.3069  0.1458
 4003TIP3    H233501   4.316   1.398  12.654  0.4477  0.2396  0.2596
 4004TIP3   OH233502   0.695   2.487   1.629  0.2280  0.4912  0.3083
 4004TIP3    H133503   0.609   2.461   1.596  1.7933 -2.4845 -2.0014
 4004TIP3    H233504   0.678   2.521   1.716 -3.4491  1.9148 -0.7508
 4005TIP3   OH233505   0.955   4.567  12.818 -0.3529  0.3496 -0.2271
 4005TIP3    H133506   0.960   4.585  12.912 -0.2154  0.1822 -0.2020
 4005TIP3    H233507   0.874   4.608  12.790 -0.3174  0.5350 -0.0633
 4006TIP3   OH233508   5.665   1.175  16.046  0.3309  0.2751 -0.7146
 4006TIP3    H133509   5.639   1.150  15.958  0.9443  0.9616 -1.1029
 4006TIP3    H233510   5.720   1.103  16.077  2.0755  1.0555 -1.8189
 4007TIP3   OH233511   0.620   4.640   1.676 -0.3126 -0.6939 -0.2777
 4007TIP3    H133512   0.620   4.700   1.750 -0.3119 -0.0129 -0.8282
 4007TIP3    H233513   0.533   4.599   1.678 -0.1777 -0.9673  0.3223
 4008TIP3   OH233514   0.111   3.847  14.808  0.8689 -0.2147  0.3744
 4008TIP3    H133515   0.180   3.826  14.745  0.1810  0.7646 -0.7653
 4008TIP3    H233516   0.156   3.895  14.878  1.3726  0.3853 -0.3394
 4009TIP3   OH233517   4.740   6.127  12.565  0.2720 -1.0060 -0.2101
 4009TIP3    H133518   4.669   6.182  12.598  0.3755 -0.3849 -1.0044
 4009TIP3    H233519   4.739   6.140  12.470 -0.1461 -2.9070 -0.5143
 4010TIP3   OH233520   2.931   3.685  14.303  0.6232 -0.5310 -0.0711
 4010TIP3    H133521   2.941   3.624  14.230  0.8204  0.1494 -0.6355
 4010TIP3    H233522   2.994   3.656  14.368 -1.0130 -2.4264  0.7605
 4011TIP3   OH233523   5.636   5.731  13.900 -0.0401 -0.2752  0.4211
 4011TIP3    H133524   5.632   5.819  13.861 -0.4142  0.8250  2.7782
 4011TIP3    H233525   5.700   5.685  13.847  0.6244  1.6193 -0.5363
 4012TIP3   OH233526   6.259   0.505  11.722 -0.2697 -0.4994 -0.2381
 4012TIP3    H133527   6.185   0.511  11.661 -0.1440  0.7453 -0.3057
 4012TIP3    H233528   6.289   0.596  11.730  2.0295 -1.1250 -1.1469
 4013TIP3   OH233529   1.365   2.466   1.027  0.5506 -0.1990  0.1500
 4013TIP3    H133530   1.449   2.432   0.998  0.5653 -0.2488  0.2523
 4013TIP3    H233531   1.348   2.422   1.110  0.0530 -0.7867 -0.2492
 4014TIP3   OH233532   5.273   4.373   0.899 -0.2506  0.3400  0.0228
 4014TIP3    H133533   5.181   4.346   0.909 -0.5022  0.8401 -0.8502
 4014TIP3    H233534   5.268   4.458   0.855  0.6781 -0.2857 -1.3517
 4015TIP3   OH233535   4.707   5.673   1.315  0.2868  0.3282  0.5962
 4015TIP3    H133536   4.723   5.767   1.301  0.2309  0.5046  1.6262
 4015TIP3    H233537   4.615   5.668   1.338  0.4433  0.0980  1.1772
 4016TIP3   OH233538   0.445   5.939  11.743 -0.1326 -0.4006  0.1826
 4016TIP3    H133539   0.397   5.863  11.710  0.0729  0.4957 -2.3650
 4016TIP3    H233540   0.405   5.957  11.828 -2.5582 -1.2354 -0.7035
 4017TIP3   OH233541   1.987   4.312   2.453 -0.1165 -0.1546  0.1726
 4017TIP3    H133542   2.022   4.319   2.541 -1.6620  0.9648  0.7446
 4017TIP3    H233543   1.933   4.233   2.455 -0.5572  0.1460  0.3997
 4018TIP3   OH233544   6.633   1.651   0.151  0.2271  0.0975 -0.0377
 4018TIP3    H133545   6.706   1.713   0.157 -0.1986  0.6532 -0.4764
 4018TIP3    H233546   6.627   1.631   0.057 -0.8457  0.8729 -0.1471
 4019TIP3   OH233547   3.681   2.167   4.944  0.1528  0.4222 -0.6913
 4019TIP3    H133548   3.590   2.164   4.916 -0.1259 -2.2693  0.2276
 4019TIP3    H233549   3.682   2.232   5.015 -1.5314 -0.8996  0.6365
 4020TIP3   OH233550   0.824   0.951  15.544  0.1091 -0.0928 -0.2215
 4020TIP3    H133551   0.825   1.029  15.488  0.6633  0.1551  0.1305
 4020TIP3    H233552   0.909   0.952  15.588 -0.6168  0.1484  1.2226
 4021TIP3   OH233553   1.109   1.384   5.733  0.1353  0.7427 -0.8377
 4021TIP3    H133554   1.180   1.393   5.669  2.4114  1.9651  1.6651
 4021TIP3    H233555   1.108   1.468   5.779 -2.2127  0.3318 -0.0269
 4022TIP3   OH233556   1.664   0.719   6.432 -0.0263  0.5019  0.8367
 4022TIP3    H133557   1.610   0.676   6.366 -0.1544  1.5433  0.2447
 4022TIP3    H233558   1.698   0.797   6.388  2.1121 -0.2007  1.1194
 4023TIP3   OH233559   0.221   2.630  12.643  0.6145 -0.5067 -0.1833
 4023TIP3    H133560   0.146   2.571  12.641  1.0895 -1.1938  0.8081
 4023TIP3    H233561   0.240   2.650  12.552 -1.7795  1.0303 -0.4249
 4024TIP3   OH233562   5.585   3.898  16.946  0.1386 -0.1842 -0.3586
 4024TIP3    H133563   5.647   3.927  16.879 -0.3513 -0.9525 -1.1623
 4024TIP3    H233564   5.530   3.833  16.902 -0.4595 -0.4048  0.6761
 4025TIP3   OH233565   2.451   3.095   2.884 -0.3704 -0.6420 -0.1637
 4025TIP3    H133566   2.455   3.024   2.947  0.9510 -1.2477 -0.8917
 4025TIP3    H233567   2.520   3.155   2.910  0.8367 -1.3712 -1.5382
 4026TIP3   OH233568   5.898   4.671   3.441 -0.0591 -0.2253  0.3280
 4026TIP3    H133569   5.892   4.749   3.495 -2.3101  0.3719 -0.6575
 4026TIP3    H233570   5.826   4.680   3.378  0.8304 -2.1528 -1.0599
 4027TIP3   OH233571   0.154   2.873  11.690  0.1815  0.4414  0.0898
 4027TIP3    H133572   0.102   2.819  11.750  2.1316  0.3544  1.8382
 4027TIP3    H233573   0.090   2.924  11.641 -1.5519  0.5502  2.3073
 4028TIP3   OH233574   2.552   1.350   4.603  0.3943  0.6187 -0.2240
 4028TIP3    H133575   2.483   1.286   4.584  0.0244  1.1923 -0.8741
 4028TIP3    H233576   2.632   1.298   4.608  0.1229  0.1188 -0.9038
 4029TIP3   OH233577   2.861   2.337  15.229 -1.5087 -0.4060 -0.0880
 4029TIP3    H133578   2.823   2.267  15.282 -0.5042 -0.5519  0.4610
 4029TIP3    H233579   2.785   2.383  15.193 -2.2235 -0.6275  1.0621
 4030TIP3   OH233580   5.582   0.708   3.870  0.2979 -0.1131 -0.1594
 4030TIP3    H133581   5.575   0.625   3.822  3.6302 -0.6612  0.0705
 4030TIP3    H233582   5.655   0.754   3.829 -0.9822  2.4565  0.2130
 4031TIP3   OH233583   0.747   5.063  14.637 -0.2936  0.3291 -0.1740
 4031TIP3    H133584   0.798   5.127  14.587  0.7713 -0.5547 -0.2559
 4031TIP3    H233585   0.656   5.082  14.615  0.1244  0.0791 -2.3458
 4032TIP3   OH233586   4.657   4.051  14.116  0.0750  0.0050  0.2190
 4032TIP3    H133587   4.699   3.980  14.068 -0.1363 -0.6969  1.0536
 4032TIP3    H233588   4.640   4.118  14.049 -0.9221 -1.2586 -0.8620
 4033TIP3   OH233589   3.458   4.755  14.690  0.0548 -0.1559 -0.6684
 4033TIP3    H133590   3.475   4.849  14.691  0.9548 -0.3079 -0.4313
 4033TIP3    H233591   3.414   4.739  14.607  0.1584  0.4313 -0.8436
 4034TIP3   OH233592   0.197   2.023   0.535 -0.4275  0.1410 -0.0526
 4034TIP3    H133593   0.177   2.074   0.614  1.0738  1.7231 -0.6320
 4034TIP3    H233594   0.166   2.077   0.463 -0.3205 -0.5413 -0.6170
 4035TIP3   OH233595   6.745   1.381   2.584  0.2263  0.2303 -0.2377
 4035TIP3    H133596   6.753   1.313   2.651  1.7124 -0.5750 -1.1968
 4035TIP3    H233597   6.736   1.333   2.502  0.4189  1.1976 -0.8375
 4036TIP3   OH233598   6.395   0.993  12.169  0.0420  0.7454 -0.1044
 4036TIP3    H133599   6.425   1.027  12.254 -0.3449  1.5586 -0.2817
 4036TIP3    H233600   6.473   0.997  12.114 -0.1308  1.9824 -0.3028
 4037TIP3   OH233601   0.734   3.799   2.027  0.9336 -0.0729 -0.0135
 4037TIP3    H133602   0.798   3.816   2.096  0.9239  2.2428 -0.5098
 4037TIP3    H233603   0.649   3.801   2.072  1.0407 -0.8238  0.2476
 4038TIP3   OH233604   6.814   5.145  15.599 -0.0533 -0.5359  0.6838
 4038TIP3    H133605   6.823   5.137  15.694 -3.4185  2.0705  1.4398
 4038TIP3    H233606   6.721   5.128  15.583  0.6506 -2.0665 -2.3953
 4039TIP3   OH233607   2.225   2.140  15.072 -0.2866 -0.2943 -0.3357
 4039TIP3    H133608   2.219   2.045  15.082 -1.1250 -0.4839 -2.1901
 4039TIP3    H233609   2.134   2.169  15.069 -0.0848  0.2942 -1.7237
 4040TIP3   OH233610   2.077   5.044  12.995 -0.5072 -0.0019 -0.1546
 4040TIP3    H133611   2.005   4.987  12.967  0.6642 -1.5967 -0.0814
 4040TIP3    H233612   2.113   5.080  12.914  0.0195 -1.0041 -0.3804
 4041TIP3   OH233613   3.809   0.514  14.966 -0.3495 -0.0255  0.3935
 4041TIP3    H133614   3.777   0.444  15.023  0.3875  0.0444  0.9050
 4041TIP3    H233615   3.748   0.515  14.893 -0.0039 -1.6219  0.0585
 4042TIP3   OH233616   0.188   6.181  16.577 -1.0794  0.2581 -0.0624
 4042TIP3    H133617   0.155   6.182  16.487  0.2891  2.9128 -0.6354
 4042TIP3    H233618   0.118   6.220  16.629 -0.5659  2.0148 -0.6100
 4043TIP3   OH233619   4.206   1.813   0.821 -0.0349 -0.3128  0.2776
 4043TIP3    H133620   4.161   1.805   0.737  1.7490 -0.8301 -0.6586
 4043TIP3    H233621   4.162   1.887   0.864  0.0490  0.9995 -1.7657
 4044TIP3   OH233622   1.245   3.131   3.879 -0.0083  0.0789 -0.9303
 4044TIP3    H133623   1.192   3.167   3.950  1.3213 -0.1785  0.2203
 4044TIP3    H233624   1.331   3.171   3.890 -0.0707  1.0219 -3.1848
 4045TIP3   OH233625   5.808   1.608  11.855  0.4441 -0.9000  0.4056
 4045TIP3    H133626   5.868   1.637  11.786 -0.0372 -2.7290 -0.8918
 4045TIP3    H233627   5.778   1.522  11.825 -1.5628 -0.7661  1.8005
 4046TIP3   OH233628   2.021   6.718   1.442 -0.2353 -0.4668 -0.2322
 4046TIP3    H133629   2.080   6.708   1.367  1.6432 -1.1971  1.2565
 4046TIP3    H233630   2.022   6.812   1.461 -1.3705 -0.1436 -1.5409
 4047TIP3   OH233631   4.414   4.271   1.617 -0.1544  0.4974 -0.5486
 4047TIP3    H133632   4.331   4.317   1.624 -1.0720 -1.1391  0.0221
 4047TIP3    H233633   4.411   4.206   1.687  1.0255 -0.4829 -1.3632
 4048TIP3   OH233634   3.568   3.410  16.794  0.3362 -0.1853  0.1307
 4048TIP3    H133635   3.528   3.328  16.767 -2.1529  0.6730  0.8663
 4048TIP3    H233636   3.499   3.475  16.782  2.2519  1.8429 -0.5318
 4049TIP3   OH233637   2.243   1.293  11.224 -0.1567 -0.1424 -0.7391
 4049TIP3    H133638   2.322   1.294  11.169  1.5506 -2.9800  1.3670
 4049TIP3    H233639   2.274   1.314  11.312 -2.0721  0.2636 -0.1165
 4050TIP3   OH233640   1.534   5.612  16.458  0.2567  0.3716  0.0885
 4050TIP3    H133641   1.552   5.665  16.381 -0.3061 -0.1243 -0.3913
 4050TIP3    H233642   1.568   5.526  16.437 -1.4522 -0.2387 -0.3213
 4051TIP3   OH233643   6.474   4.188  14.576  0.3157  0.2070 -0.1270
 4051TIP3    H133644   6.568   4.172  14.577  0.4897  1.2365  0.5882
 4051TIP3    H233645   6.453   4.221  14.663  0.0781  4.2279 -1.4965
 4052TIP3   OH233646   2.539   3.331   4.479 -0.5772 -0.5719  0.1585
 4052TIP3    H133647   2.533   3.236   4.487 -0.1443 -0.8337 -2.1510
 4052TIP3    H233648   2.589   3.358   4.557 -1.3573 -2.1166  1.2445
 4053TIP3   OH233649   5.598   2.417  11.104  0.3105 -0.0223  0.6819
 4053TIP3    H133650   5.562   2.502  11.129  0.7753  0.0127  1.2620
 4053TIP3    H233651   5.528   2.354  11.123 -0.3379  0.3210 -0.5396
 4054TIP3   OH233652   6.336   5.931   5.562  0.1409  0.2781  0.4507
 4054TIP3    H133653   6.413   5.988   5.566  0.6892 -0.4347  0.2848
 4054TIP3    H233654   6.281   5.969   5.494  1.6059 -0.7093 -1.3697
 4055TIP3   OH233655   2.917   2.184  14.403  0.0582  0.7240  0.5599
 4055TIP3    H133656   2.976   2.148  14.470 -2.3035 -1.0599  1.8050
 4055TIP3    H233657   2.872   2.108  14.367 -0.1125  1.8457 -1.8059
 4056TIP3   OH233658   4.873   0.575   5.574 -0.2196 -0.4397 -0.2500
 4056TIP3    H133659   4.833   0.576   5.661  0.2790 -0.3650 -0.0152
 4056TIP3    H233660   4.949   0.518   5.583 -0.1403 -0.3991 -0.6282
 4057TIP3   OH233661   3.769   4.083   3.036 -0.3497  0.5927 -0.6732
 4057TIP3    H133662   3.824   4.093   2.957 -1.4266  0.8662 -1.4049
 4057TIP3    H233663   3.689   4.131   3.016 -0.5725  0.8148  0.6747
 4058TIP3   OH233664   6.337   0.077  12.342 -0.2536  0.0515  0.2757
 4058TIP3    H133665   6.391   0.112  12.413 -2.2000  0.2257  1.7776
 4058TIP3    H233666   6.377   0.110  12.262  0.1854  2.5506  1.4393
 4059TIP3   OH233667   3.181   4.924  11.207 -0.4142 -0.3293  0.1066
 4059TIP3    H133668   3.270   4.896  11.188 -0.5656 -1.3161  0.8170
 4059TIP3    H233669   3.134   4.844  11.230 -1.2124  0.3162  0.8054
 4060TIP3   OH233670   4.683   5.257  16.250  0.5102  0.0311  0.3247
 4060TIP3    H133671   4.610   5.197  16.240  0.9918 -0.6583  0.8581
 4060TIP3    H233672   4.744   5.234  16.181  0.3226  0.4752  0.0036
 4061TIP3   OH233673   5.377   0.018   0.268 -0.2105  0.0131 -0.2267
 4061TIP3    H133674   5.377  -0.020   0.356 -1.8337 -0.6716 -0.4938
 4061TIP3    H233675   5.338  -0.050   0.213  3.1847 -0.7066 -2.0391
 4062TIP3   OH233676   6.513   3.868  15.448 -0.1842 -0.0125  0.1750
 4062TIP3    H133677   6.606   3.847  15.433 -0.2240  0.0132 -0.1071
 4062TIP3    H233678   6.507   3.962  15.432  0.0668  0.3075  1.8014
 4063TIP3   OH233679   2.810   4.882  14.666 -0.0097  0.5552 -0.5750
 4063TIP3    H133680   2.794   4.870  14.760 -1.9984 -0.7604 -1.0145
 4063TIP3    H233681   2.898   4.847  14.652 -0.0257 -0.0489  0.6584
 4064TIP3   OH233682   2.794   4.185  14.376  0.3123  0.2135  0.2525
 4064TIP3    H133683   2.849   4.165  14.300 -1.6231 -1.2470 -0.8719
 4064TIP3    H233684   2.820   4.121  14.442  0.8900  0.4340  0.2447
 4065TIP3   OH233685   4.857   3.713  15.673 -0.4137  0.4036 -0.7321
 4065TIP3    H133686   4.769   3.751  15.673  0.0135  1.5279  1.2789
 4065TIP3    H233687   4.913   3.782  15.638  0.1209  1.0425  1.2733
 4066TIP3   OH233688   1.508   0.257  10.713  0.1005 -0.1215  0.2967
 4066TIP3    H133689   1.423   0.222  10.688 -0.4717  1.3119  0.1622
 4066TIP3    H233690   1.496   0.287  10.803  0.0415  1.3115 -0.1619
 4067TIP3   OH233691   2.954   3.406  12.397  0.3031  0.0352  0.1516
 4067TIP3    H133692   2.945   3.399  12.302  0.6061 -0.9281  0.1901
 4067TIP3    H233693   2.982   3.319  12.425  0.8319  0.4877  1.0540
 4068TIP3   OH233694   2.751   4.595  11.187 -0.6133  0.0395  0.0009
 4068TIP3    H133695   2.752   4.550  11.271  0.8430  1.6535  0.9125
 4068TIP3    H233696   2.696   4.672  11.201  2.5101  2.3277  0.7155
 4069TIP3   OH233697   0.496   5.543   4.778  0.3062  0.0290  0.1491
 4069TIP3    H133698   0.458   5.629   4.796 -0.7681 -0.6429  1.2226
 4069TIP3    H233699   0.529   5.513   4.863 -0.2320 -1.0398 -0.0007
 4070TIP3   OH233700   3.917   4.926   4.722 -0.6308 -0.1348 -0.2215
 4070TIP3    H133701   4.001   4.973   4.717 -0.6262  0.1451  1.8771
 4070TIP3    H233702   3.934   4.842   4.680 -0.0834  0.9172 -2.2506
 4071TIP3   OH233703   6.183   4.749   0.399  0.1593  0.4484  0.4426
 4071TIP3    H133704   6.249   4.809   0.435  0.3906 -0.1350  1.0097
 4071TIP3    H233705   6.183   4.767   0.305  0.2237  1.3391  0.6015
 4072TIP3   OH233706   0.138   2.789   1.366 -0.4807 -0.1434 -0.6423
 4072TIP3    H133707   0.123   2.867   1.314  1.1338 -0.1832 -1.2146
 4072TIP3    H233708   0.176   2.821   1.448 -2.5949 -0.1181  0.4013
 4073TIP3   OH233709   0.073   0.706   5.223 -0.3866 -0.2322  0.1929
 4073TIP3    H133710   0.120   0.643   5.168 -0.8524 -0.9942  0.6598
 4073TIP3    H233711   0.027   0.762   5.160 -0.8466 -1.0407 -0.2020
 4074TIP3   OH233712   2.305   0.998  12.795 -0.2782  0.3358 -0.1853
 4074TIP3    H133713   2.326   0.977  12.886 -0.2372  0.4239 -0.1747
 4074TIP3    H233714   2.233   1.061  12.801 -0.7160 -0.1539 -0.2248
 4075TIP3   OH233715   3.492   1.697  13.936 -0.2518 -0.3306  0.0351
 4075TIP3    H133716   3.569   1.645  13.912  1.0604  1.5949 -0.1649
 4075TIP3    H233717   3.495   1.772  13.877 -2.2709 -0.1590  0.0879
 4076TIP3   OH233718   1.184   2.702  14.831  0.0415  0.4289 -0.7688
 4076TIP3    H133719   1.252   2.738  14.887 -0.5134  1.5390 -0.7781
 4076TIP3    H233720   1.208   2.610  14.819  1.8634  0.9417 -1.2893
 4077TIP3   OH233721   3.864   1.097  11.025 -0.8892 -0.1086 -0.4637
 4077TIP3    H133722   3.892   1.100  11.117  0.1985 -0.9575 -0.7385
 4077TIP3    H233723   3.775   1.132  11.026 -0.4551  1.0801  0.7310
 4078TIP3   OH233724   2.521   4.456   4.349  0.3132 -0.2956  0.3384
 4078TIP3    H133725   2.465   4.458   4.427 -1.4085 -2.4207 -0.7317
 4078TIP3    H233726   2.524   4.364   4.324 -0.2241  0.4214 -2.7930
 4079TIP3   OH233727   0.655   0.402  11.453  0.6147  0.3975 -0.1953
 4079TIP3    H133728   0.580   0.409  11.394  0.0034 -0.4937  0.4505
 4079TIP3    H233729   0.626   0.341  11.521  2.2510 -0.7279 -0.4445
 4080TIP3   OH233730   6.635   4.614   5.522 -0.2917 -0.1819  0.1678
 4080TIP3    H133731   6.647   4.533   5.571 -0.4856 -0.5668 -0.4074
 4080TIP3    H233732   6.543   4.638   5.537 -0.2948 -0.1873  0.1567
 4081TIP3   OH233733   0.671   2.762  16.379  0.2880 -0.0190  0.2881
 4081TIP3    H133734   0.741   2.802  16.327  0.8394  0.8611  1.6450
 4081TIP3    H233735   0.632   2.697  16.321  1.6803  0.0657 -0.7941
 4082TIP3   OH233736   6.072   0.067  15.609 -0.2637 -0.2576 -0.0478
 4082TIP3    H133737   6.119   0.093  15.530 -0.7437 -0.6089 -0.4468
 4082TIP3    H233738   6.116  -0.013  15.639 -0.2940 -0.3103 -0.1452
 4083TIP3   OH233739   0.234   0.131  14.529  0.0693  0.0621  0.0602
 4083TIP3    H133740   0.235   0.226  14.524 -0.0008  0.0008 -1.4029
 4083TIP3    H233741   0.287   0.101  14.455  2.2774 -1.0316  1.9523
 4084TIP3   OH233742   2.756   6.390  16.328  0.1624 -0.0558  0.4201
 4084TIP3    H133743   2.675   6.421  16.286 -0.0216 -0.9834  0.0755
 4084TIP3    H233744   2.811   6.468  16.333  0.0908  0.1476 -1.3194
 4085TIP3   OH233745   0.415   6.796   5.851  0.0963 -0.2276 -0.0272
 4085TIP3    H133746   0.473   6.726   5.881 -0.7957 -1.1831 -0.4453
 4085TIP3    H233747   0.424   6.864   5.918  0.4600 -1.0323  0.7793
 4086TIP3   OH233748   5.381   3.207   3.237 -0.0456 -0.0690  0.4873
 4086TIP3    H133749   5.296   3.168   3.253 -0.6646  1.0390  0.0216
 4086TIP3    H233750   5.437   3.134   3.211 -0.8163 -0.8188  0.8839
 4087TIP3   OH233751   0.361   0.029   0.207 -0.1506  0.2735  0.3681
 4087TIP3    H133752   0.396  -0.034   0.269 -1.1628 -1.3234 -0.6137
 4087TIP3    H233753   0.345  -0.022   0.127  0.0302  2.0063 -0.8334
 4088TIP3   OH233754   4.619   3.583  14.400  0.0620 -0.5608  0.0720
 4088TIP3    H133755   4.554   3.588  14.469  1.0221 -0.7170  1.0199
 4088TIP3    H233756   4.570   3.560  14.321 -1.7830  3.7478 -0.3109
 4089TIP3   OH233757   2.432   6.611   1.191  0.1320 -0.5906  0.6487
 4089TIP3    H133758   2.374   6.564   1.251 -0.7906 -0.5446 -0.1793
 4089TIP3    H233759   2.517   6.570   1.203 -0.3581 -1.5505  0.9460
 4090TIP3   OH233760   0.436   5.629  11.785  0.0133 -0.1976 -0.1609
 4090TIP3    H133761   0.514   5.593  11.744  0.1815 -0.4162  0.3355
 4090TIP3    H233762   0.467   5.663  11.869 -0.3613  0.0370 -0.1159
 4091TIP3   OH233763   1.153   6.373  10.355 -0.6706  0.3665  0.4759
 4091TIP3    H133764   1.110   6.380  10.440  2.3086  1.4216  2.0252
 4091TIP3    H233765   1.234   6.327  10.372  0.6695  1.8118 -1.5098
 4092TIP3   OH233766   2.198   6.299   2.639 -0.4875  0.1265 -0.1214
 4092TIP3    H133767   2.199   6.314   2.734  0.3693 -1.8855  0.2275
 4092TIP3    H233768   2.146   6.219   2.628 -1.7125  1.0515 -1.5132
 4093TIP3   OH233769   0.312   5.820  13.012  0.2771 -0.1253 -0.4962
 4093TIP3    H133770   0.303   5.891  13.075 -0.0152 -0.8367  0.2915
 4093TIP3    H233771   0.334   5.743  13.066 -0.5294 -0.8676 -1.2018
 4094TIP3   OH233772   0.281   4.659   1.307  0.2119 -0.3777  0.0948
 4094TIP3    H133773   0.324   4.712   1.375 -2.4522 -0.8524  2.3660
 4094TIP3    H233774   0.293   4.569   1.337 -1.9612 -0.5321  0.6754
 4095TIP3   OH233775   3.444   3.740  16.343  0.3154  0.1639  0.2625
 4095TIP3    H133776   3.480   3.789  16.269 -0.1010 -0.2543 -0.2226
 4095TIP3    H233777   3.408   3.807  16.400 -2.2074  0.3833 -1.4200
 4096TIP3   OH233778   2.500   4.102  14.790 -0.2623 -0.2513 -0.0060
 4096TIP3    H133779   2.461   4.138  14.870  0.3651  0.6925 -0.1186
 4096TIP3    H233780   2.425   4.085  14.733 -0.6328  0.1158  0.3645
 4097TIP3   OH233781   4.625   3.413  16.645 -0.3120  0.6372  0.6758
 4097TIP3    H133782   4.657   3.502  16.633  2.0802 -0.2814 -0.5349
 4097TIP3    H233783   4.604   3.383  16.557  0.9911 -0.6469  0.7559
 4098TIP3   OH233784   5.677   0.705  12.853 -0.4743  0.5160 -0.7636
 4098TIP3    H133785   5.591   0.700  12.811 -0.3168  0.7788 -1.1290
 4098TIP3    H233786   5.691   0.618  12.889 -1.2359  0.6956 -0.0112
 4099TIP3   OH233787   2.958   6.249  15.985  0.0494  0.3755 -0.6790
 4099TIP3    H133788   3.002   6.288  15.909  0.6445  0.0091 -0.5282
 4099TIP3    H233789   3.028   6.236  16.049  0.0105 -1.5950 -0.9821
 4100TIP3   OH233790   2.850   3.005   2.463 -0.1947  0.0102 -0.4989
 4100TIP3    H133791   2.940   2.981   2.486 -0.4488  1.0621  1.9068
 4100TIP3    H233792   2.858   3.093   2.425 -0.3693  1.3330  2.2984
 4101TIP3   OH233793   0.238   0.827   0.137 -0.1847 -0.2784  0.0473
 4101TIP3    H133794   0.226   0.798   0.047  0.2285 -0.0054 -0.1008
 4101TIP3    H233795   0.162   0.883   0.155 -0.2745 -0.3437 -0.1261
 4102TIP3   OH233796   5.207   0.550  14.280 -0.1915 -0.0390 -0.7354
 4102TIP3    H133797   5.141   0.598  14.231  0.3445 -0.4511 -1.8781
 4102TIP3    H233798   5.171   0.461  14.289 -0.8723  0.3486  0.7826
 4103TIP3   OH233799   3.335   4.866   0.272 -0.2066 -0.0376 -0.1184
 4103TIP3    H133800   3.358   4.782   0.312 -1.2580 -0.1235  0.3544
 4103TIP3    H233801   3.286   4.842   0.193 -0.6747  0.1230  0.1193
 4104TIP3   OH233802   1.772   4.081   2.086  0.6104  0.2167  0.0826
 4104TIP3    H133803   1.743   4.079   2.177 -0.2093 -0.8522 -0.1777
 4104TIP3    H233804   1.694   4.056   2.036  0.6204  2.2121 -1.0370
 4105TIP3   OH233805   1.496   1.998  11.981 -0.4984 -0.4763  0.4383
 4105TIP3    H133806   1.471   1.951  11.902 -0.8159 -1.6060  1.1799
 4105TIP3    H233807   1.582   1.964  12.004 -0.6434 -0.5715  0.8675
 4106TIP3   OH233808   5.168   4.078  14.278  0.5667  0.0686  0.2259
 4106TIP3    H133809   5.203   4.156  14.322 -1.7020  0.2650  1.8794
 4106TIP3    H233810   5.191   4.006  14.336 -1.9570  0.2612  1.6401
 4107TIP3   OH233811   2.984   0.244   3.736 -0.5952  0.4842  0.2960
 4107TIP3    H133812   3.029   0.243   3.820 -0.1733 -2.1265  0.1130
 4107TIP3    H233813   3.042   0.293   3.678  0.6360 -0.4098  0.7561
 4108TIP3   OH233814   1.179   4.217  13.320 -0.8484 -0.0138 -0.1757
 4108TIP3    H133815   1.114   4.158  13.359 -0.7774 -1.3132 -1.9485
 4108TIP3    H233816   1.181   4.292  13.380 -1.7044 -1.3177  1.5752
 4109TIP3   OH233817   1.480   4.196   1.643 -0.1676 -0.8607 -0.0641
 4109TIP3    H133818   1.486   4.291   1.653 -0.0341 -0.8173 -0.5298
 4109TIP3    H233819   1.421   4.168   1.713  1.2382 -0.6535  1.2740
 4110TIP3   OH233820   1.759   6.851   2.612 -0.0541 -0.5799 -0.5658
 4110TIP3    H133821   1.800   6.932   2.643  0.1889 -0.7955 -0.3091
 4110TIP3    H233822   1.666   6.870   2.607 -0.1907 -0.7345  0.9675
 4111TIP3   OH233823   0.436   6.797  15.840 -0.4876  0.3556 -0.4108
 4111TIP3    H133824   0.398   6.850  15.771 -3.3643  0.7859  1.3238
 4111TIP3    H233825   0.454   6.713  15.798  1.2673  1.6568 -2.4556
 4112TIP3   OH233826   1.926   2.024   1.158 -0.2626 -0.1965  0.0094
 4112TIP3    H133827   2.001   2.075   1.187 -0.2372  0.3862 -1.0411
 4112TIP3    H233828   1.932   2.024   1.062 -2.3074  1.0074 -0.1770
 4113TIP3   OH233829   0.411   3.863   3.358  0.2524 -0.0605  0.6343
 4113TIP3    H133830   0.344   3.880   3.424  0.0523 -0.8148  0.6402
 4113TIP3    H233831   0.494   3.879   3.403  0.0742  1.7663  0.3654
 4114TIP3   OH233832   1.127   6.695   3.999 -0.8242 -0.7217 -0.6739
 4114TIP3    H133833   1.079   6.614   3.980 -2.8459  0.2357 -0.0018
 4114TIP3    H233834   1.185   6.672   4.071 -2.1160 -1.3724  0.2196
 4115TIP3   OH233835   3.614   6.590   6.639 -0.1907  0.3923 -0.7860
 4115TIP3    H133836   3.666   6.593   6.559 -1.8283 -0.1215 -1.9091
 4115TIP3    H233837   3.675   6.557   6.706  0.5999 -1.5168 -2.3377
 4116TIP3   OH233838   6.509   2.312   4.050 -0.2620  0.3996 -0.5145
 4116TIP3    H133839   6.444   2.330   3.982  0.8961  0.1246 -1.7367
 4116TIP3    H233840   6.592   2.340   4.012  0.3107  1.0432  1.1414
 4117TIP3   OH233841   3.234   6.794   6.581 -0.1569  0.0287 -0.2410
 4117TIP3    H133842   3.224   6.699   6.585 -0.6532  0.1118  1.2602
 4117TIP3    H233843   3.317   6.811   6.625 -0.8443  0.3858  0.9462
 4118TIP3   OH233844   3.495   0.328  16.517 -0.1218  0.6522 -0.0613
 4118TIP3    H133845   3.450   0.323  16.432  0.1397  0.3923 -0.1880
 4118TIP3    H233846   3.538   0.244  16.526 -0.6774  0.4382  0.6349
 4119TIP3   OH233847   4.004   0.623  15.413 -0.0864  0.1161 -0.5478
 4119TIP3    H133848   4.033   0.538  15.447  1.0283  0.5323 -0.4146
 4119TIP3    H233849   3.942   0.601  15.343  1.4027 -0.8560 -1.6184
 4120TIP3   OH233850   6.771   4.715  11.792 -0.2112 -0.8789  0.2981
 4120TIP3    H133851   6.761   4.800  11.836  0.0552 -1.0310  0.6591
 4120TIP3    H233852   6.756   4.651  11.861 -1.4086 -1.1420 -0.1861
 4121TIP3   OH233853   2.192   3.251   2.829 -0.8692 -0.0468 -0.0280
 4121TIP3    H133854   2.190   3.311   2.903  0.3802  2.6831 -2.0398
 4121TIP3    H233855   2.280   3.214   2.830  0.3365  2.4342 -1.7603
 4122TIP3   OH233856   6.752   4.925  11.982  0.3969 -0.3639 -0.4683
 4122TIP3    H133857   6.657   4.938  11.980  0.2087 -1.5062  0.0092
 4122TIP3    H233858   6.768   4.877  12.064  1.6122  1.3284  0.3474
 4123TIP3   OH233859   5.628   2.858  15.391  0.2975  0.4889  0.3953
 4123TIP3    H133860   5.675   2.940  15.377  0.1017  0.3298 -1.4795
 4123TIP3    H233861   5.693   2.790  15.377  0.1851  0.2999  0.7707
 4124TIP3   OH233862   0.842   5.884   2.971 -0.1043 -0.1906  0.1494
 4124TIP3    H133863   0.789   5.958   2.943  0.7686  0.0009 -1.1139
 4124TIP3    H233864   0.929   5.921   2.985  0.3735 -0.9725 -0.6319
 4125TIP3   OH233865   4.108   1.886   0.156  0.1339 -0.5856 -0.6449
 4125TIP3    H133866   4.149   1.800   0.159  1.8775  0.2316  1.0309
 4125TIP3    H233867   4.176   1.946   0.185 -1.5228  1.1900 -0.2126
 4126TIP3   OH233868   3.993   6.426  10.548  0.3088 -0.0325 -0.0989
 4126TIP3    H133869   4.054   6.398  10.616  1.8510  0.4834 -1.1995
 4126TIP3    H233870   3.939   6.349  10.531  0.4865 -0.4358  1.0724
 4127TIP3   OH233871   4.686   3.994  12.245 -0.2711 -0.1223  0.1737
 4127TIP3    H133872   4.674   4.055  12.172  0.6404  2.3599  1.9471
 4127TIP3    H233873   4.614   4.014  12.305 -1.1711 -2.3083 -0.1250
 4128TIP3   OH233874   0.851   2.786   4.382 -0.6022 -0.0757  0.3388
 4128TIP3    H133875   0.838   2.809   4.290 -2.3303  0.3676  0.6455
 4128TIP3    H233876   0.871   2.870   4.424  0.8454 -0.3721  0.2994
 4129TIP3   OH233877   6.642   4.966  12.577 -0.2651  0.1476  0.1592
 4129TIP3    H133878   6.717   5.023  12.562 -0.7521  0.5571 -0.8004
 4129TIP3    H233879   6.597   4.963  12.492 -0.8839 -0.7354  0.5092
 4130TIP3   OH233880   3.897   6.098   6.402 -0.4421 -0.4982 -0.0382
 4130TIP3    H133881   3.988   6.126   6.404 -0.6283  0.2756 -1.5752
 4130TIP3    H233882   3.847   6.179   6.393 -1.3154 -0.8898  1.0820
 4131TIP3   OH233883   3.837   3.997  12.953 -0.0570  0.1154 -0.5250
 4131TIP3    H133884   3.764   4.022  12.895 -3.0482 -2.4071  1.8134
 4131TIP3    H233885   3.853   4.076  13.006 -0.5191  0.9513 -1.5864
 4132TIP3   OH233886   4.803   1.592   5.399 -0.1450  0.1322  0.7924
 4132TIP3    H133887   4.775   1.532   5.330  1.9749  0.0323 -0.0549
 4132TIP3    H233888   4.769   1.554   5.479 -1.2523 -0.6581 -0.0303
 4133TIP3   OH233889   3.183   1.647  12.422 -0.3440 -0.3264  0.0617
 4133TIP3    H133890   3.184   1.732  12.467 -2.5956 -0.3245  0.2085
 4133TIP3    H233891   3.142   1.587  12.484  2.8244 -2.0495  0.6881
 4134TIP3   OH233892   1.896   5.335   0.684 -0.1198  0.0747 -0.0087
 4134TIP3    H133893   1.958   5.393   0.730  0.0122 -1.2716  1.6176
 4134TIP3    H233894   1.811   5.378   0.694  0.1764  0.6816 -0.0455
 4135TIP3   OH233895   0.842   2.549   5.660 -0.0029  0.5107  0.0440
 4135TIP3    H133896   0.900   2.545   5.737  2.3723 -0.3492 -1.6743
 4135TIP3    H233897   0.763   2.504   5.688  1.9646 -2.5832  1.1048
 4136TIP3   OH233898   3.972   2.629   1.485  0.6822  0.3439 -0.0018
 4136TIP3    H133899   3.943   2.569   1.417  0.3833  1.0440 -0.4967
 4136TIP3    H233900   4.041   2.580   1.532  1.1970  0.0123 -1.0683
 4137TIP3   OH233901   1.307   2.469  14.788  0.2962 -0.6926 -0.4337
 4137TIP3    H133902   1.327   2.391  14.841  0.6788 -1.4683 -1.6720
 4137TIP3    H233903   1.294   2.435  14.699 -0.0182  0.6083 -0.9112
 4138TIP3   OH233904   5.242   0.129   3.218  0.3907 -0.4428 -0.6322
 4138TIP3    H133905   5.187   0.174   3.154  1.1139 -0.1728 -1.0705
 4138TIP3    H233906   5.180   0.098   3.284 -0.1554  0.9124 -0.4753
 4139TIP3   OH233907   0.832   0.641  16.410  0.7666 -0.0621 -0.3431
 4139TIP3    H133908   0.920   0.636  16.446  1.3008  1.0240 -1.4470
 4139TIP3    H233909   0.806   0.549  16.397  1.1347 -0.4357  1.3306
 4140TIP3   OH233910   0.206   5.848  11.325  0.9017 -0.0157 -0.2170
 4140TIP3    H133911   0.242   5.818  11.408  1.5569  0.1793 -0.4238
 4140TIP3    H233912   0.161   5.772  11.289 -0.0550  0.1036  0.6659
 4141TIP3   OH233913   1.640   0.876  15.420  0.3477 -0.6383 -0.0181
 4141TIP3    H133914   1.604   0.811  15.480 -0.2309  1.3363  1.8667
 4141TIP3    H233915   1.679   0.943  15.476 -0.4988  1.4852 -1.8130
 4142TIP3   OH233916   0.833   5.325  12.826 -0.4826  0.2037  0.4735
 4142TIP3    H133917   0.850   5.322  12.920  0.6927  0.7878  0.3045
 4142TIP3    H233918   0.878   5.249  12.791 -0.8139  0.0557  0.3683
 4143TIP3   OH233919   6.772   2.297   2.422  1.1634 -0.0688 -0.2497
 4143TIP3    H133920   6.703   2.277   2.359  3.1041 -1.1112 -2.1275
 4143TIP3    H233921   6.744   2.380   2.461 -0.1177  0.6366 -2.4883
 4144TIP3   OH233922   2.782   5.959  14.829 -0.5555  0.4542 -0.0796
 4144TIP3    H133923   2.808   5.927  14.916  0.7527 -0.4551 -0.7713
 4144TIP3    H233924   2.833   6.039  14.817 -0.1243  0.1497 -0.3178
 4145TIP3   OH233925   2.348   6.008  13.175  0.0113 -0.7535  0.8656
 4145TIP3    H133926   2.285   6.068  13.213 -1.2881 -1.6708  0.2432
 4145TIP3    H233927   2.307   5.978  13.094  1.8345 -0.3645 -0.2672
 4146TIP3   OH233928   1.499   6.490   1.089 -0.2317  0.1630 -0.2349
 4146TIP3    H133929   1.531   6.489   1.179  0.1347  0.9986 -0.3416
 4146TIP3    H233930   1.404   6.485   1.098 -0.2072  0.3770  0.2077
 4147TIP3   OH233931   5.380   3.070  15.233 -0.2613 -0.2477  0.1793
 4147TIP3    H133932   5.342   2.982  15.233 -0.7049 -0.0606 -0.2310
 4147TIP3    H233933   5.474   3.055  15.229 -0.1643 -0.7576  2.5047
 4148TIP3   OH233934   6.259   5.616   0.002 -0.3076  0.0489 -0.7455
 4148TIP3    H133935   6.272   5.691  -0.056 -1.3346 -0.4942 -1.7402
 4148TIP3    H233936   6.164   5.602   0.001 -0.4328  0.3102  1.4901
 4149TIP3   OH233937   4.502   1.528  15.384  0.5412  0.6754 -0.8683
 4149TIP3    H133938   4.418   1.520  15.339  0.2457 -0.1049 -0.1997
 4149TIP3    H233939   4.565   1.488  15.324  0.3173  0.5619 -1.0278
 4150TIP3   OH233940   5.113   1.205  12.915 -0.0356 -0.2706 -0.4885
 4150TIP3    H133941   5.195   1.254  12.907  0.4459 -0.6887  1.4116
 4150TIP3    H233942   5.125   1.129  12.858 -0.2094  1.0011 -2.3172
 4151TIP3   OH233943   5.960   3.010  14.252  0.3492 -0.3867  0.5459
 4151TIP3    H133944   6.014   2.975  14.181 -1.2061 -0.0007 -0.8759
 4151TIP3    H233945   5.910   3.082  14.213 -1.7036 -1.1413  1.5922
 4152TIP3   OH233946   0.430   3.841   5.238 -0.1300  0.0573 -0.0662
 4152TIP3    H133947   0.404   3.829   5.329 -0.2584  0.5224 -0.0396
 4152TIP3    H233948   0.382   3.919   5.209 -0.7223 -0.5616 -0.7822
 4153TIP3   OH233949   6.851   1.661  10.817  0.1480 -0.0167 -0.2851
 4153TIP3    H133950   6.928   1.646  10.761  0.4585  1.2616 -0.2350
 4153TIP3    H233951   6.788   1.594  10.789  0.4108  0.3872 -1.9584
 4154TIP3   OH233952   1.829   5.597   1.654  0.2870 -0.4684 -0.3411
 4154TIP3    H133953   1.743   5.636   1.634  0.5782  0.1033 -0.5045
 4154TIP3    H233954   1.833   5.519   1.600 -0.3986 -0.8558  0.1512
 4155TIP3   OH233955   1.551   0.610  13.460 -0.5030 -0.4458  0.1012
 4155TIP3    H133956   1.582   0.645  13.543 -1.9617 -0.4678  0.6858
 4155TIP3    H233957   1.609   0.649  13.394  0.7937 -0.5918  1.1307
 4156TIP3   OH233958   5.577   3.152  13.435 -0.6087 -0.0250  0.0387
 4156TIP3    H133959   5.662   3.181  13.467 -0.6782  1.3289 -0.9284
 4156TIP3    H233960   5.514   3.200  13.489 -0.7292  0.9442 -0.9349
 4157TIP3   OH233961   4.888   3.514   4.762 -0.4953  0.8639 -0.3843
 4157TIP3    H133962   4.931   3.430   4.747 -1.1447  0.5952 -0.7835
 4157TIP3    H233963   4.877   3.519   4.857 -2.2097 -0.4201 -0.4576
 4158TIP3   OH233964   6.100   5.750  14.863 -0.1956 -0.0903 -0.0479
 4158TIP3    H133965   6.108   5.756  14.768 -0.1151 -0.7688 -0.0900
 4158TIP3    H233966   6.084   5.840  14.892 -1.4638 -0.0569 -0.8127
 4159TIP3   OH233967   0.558   0.212  11.610 -0.0965 -0.3620  0.2019
 4159TIP3    H133968   0.521   0.275  11.672  1.6579  1.2362 -0.2676
 4159TIP3    H233969   0.596   0.143  11.664 -1.6606 -0.8348  0.7432
 4160TIP3   OH233970   1.632   2.076  17.141 -0.7250 -0.3806 -0.0121
 4160TIP3    H133971   1.682   2.104  17.065  0.4263  2.4820  1.6249
 4160TIP3    H233972   1.685   2.103  17.216 -2.3765 -1.9384  1.8496
 4161TIP3   OH233973   1.180   5.241  12.831  0.0277  0.1301 -0.0569
 4161TIP3    H133974   1.157   5.153  12.861 -0.9144  0.4737  0.2822
 4161TIP3    H233975   1.215   5.284  12.909  3.3299 -0.8177 -0.8640
 4162TIP3   OH233976   5.595   0.272  11.221  0.1228 -0.4156 -0.5801
 4162TIP3    H133977   5.499   0.271  11.226  0.1681 -0.4411  0.4160
 4162TIP3    H233978   5.615   0.230  11.137 -0.7018 -1.5982 -0.2098
 4163TIP3   OH233979   4.331   4.192  16.127 -0.0338 -0.2999  0.1052
 4163TIP3    H133980   4.339   4.283  16.156  1.0207 -0.9274  2.0039
 4163TIP3    H233981   4.419   4.157  16.137 -0.5761 -1.7164  0.0599
 4164TIP3   OH233982   4.608   1.195  13.498 -0.2254 -0.5397  0.3802
 4164TIP3    H133983   4.692   1.237  13.515 -1.0924  1.3202  0.2964
 4164TIP3    H233984   4.555   1.215  13.575 -1.0031 -0.5766 -0.1334
 4165TIP3   OH233985   5.768   1.794  12.672  0.8670  0.1916 -0.0386
 4165TIP3    H133986   5.709   1.795  12.597  1.1109 -1.2048 -0.2829
 4165TIP3    H233987   5.724   1.847  12.739 -1.6238 -2.2900  0.4744
 4166TIP3   OH233988   6.826   1.388   5.301 -0.4728  0.3336  0.0399
 4166TIP3    H133989   6.740   1.385   5.342 -0.0427 -0.4223  0.9354
 4166TIP3    H233990   6.816   1.448   5.227 -1.7673  0.2269  0.1110
 4167TIP3   OH233991   6.598   4.770  16.604 -0.1234  0.5966  0.0627
 4167TIP3    H133992   6.578   4.790  16.512 -0.5355 -0.7727 -0.1608
 4167TIP3    H233993   6.513   4.772  16.648 -0.2755 -1.1394 -0.0799
 4168TIP3   OH233994   5.926   1.419   2.774  0.6396 -0.1299 -0.0400
 4168TIP3    H133995   5.959   1.353   2.712  2.1501  1.1207 -0.6298
 4168TIP3    H233996   5.946   1.382   2.860  1.7210 -0.3402 -0.3667
 4169TIP3   OH233997   6.684   5.412  13.207 -0.1558 -0.2033  0.2635
 4169TIP3    H133998   6.633   5.490  13.190 -2.4389 -1.4012  1.1963
 4169TIP3    H233999   6.699   5.373  13.121 -1.0742  0.0240 -0.0029
 4170TIP3   OH234000   6.339   0.878  15.308  0.1744 -0.4156  0.3646
 4170TIP3    H134001   6.349   0.783  15.302 -1.5853 -0.6055 -0.0045
 4170TIP3    H234002   6.365   0.899  15.397  3.0318 -0.8708 -0.2733
 4171TIP3   OH234003   1.751   6.700  11.338 -0.0530 -0.4851 -0.6813
 4171TIP3    H134004   1.676   6.643  11.319  0.1792 -1.2386  0.5667
 4171TIP3    H234005   1.714   6.787  11.348 -0.7572 -0.8450 -0.1288
 4172TIP3   OH234006   5.305   0.421  15.591  0.4638 -0.1634  0.1054
 4172TIP3    H134007   5.356   0.348  15.626  0.4418 -0.4968 -0.5478
 4172TIP3    H234008   5.334   0.429  15.500  0.3387  0.5290  0.1206
 4173TIP3   OH234009   3.312   3.522  16.680  0.5418  0.2413 -0.3449
 4173TIP3    H134010   3.287   3.610  16.707  1.2830  0.4512 -0.3156
 4173TIP3    H234011   3.249   3.464  16.722  0.9920  0.6417  0.9304
 4174TIP3   OH234012   3.173   0.190  16.725  0.2242 -0.2731 -0.3597
 4174TIP3    H134013   3.217   0.231  16.800 -0.6386  0.0499 -0.0106
 4174TIP3    H234014   3.242   0.146  16.677  0.8015 -0.4315  0.5992
 4175TIP3   OH234015   1.005   3.100  15.626  0.1849  0.1084  0.1971
 4175TIP3    H134016   1.042   3.150  15.698  1.1224 -0.3550  0.0542
 4175TIP3    H234017   0.956   3.029  15.669 -0.7411  0.8442  0.3881
 4176TIP3   OH234018   5.225   1.078   1.270  0.3035 -0.9019 -0.1460
 4176TIP3    H134019   5.289   1.061   1.201  1.3694  0.9518  0.3200
 4176TIP3    H234020   5.153   1.017   1.251  0.2253 -0.0004 -3.2966
 4177TIP3   OH234021   3.868   3.153   4.751  0.5188 -0.6872  0.0593
 4177TIP3    H134022   3.960   3.163   4.724  1.1460 -2.2154  1.4928
 4177TIP3    H234023   3.832   3.241   4.744  1.9660 -0.1314 -0.9515
 4178TIP3   OH234024   1.434   5.380  16.944 -0.3350 -0.1420 -0.3446
 4178TIP3    H134025   1.459   5.470  16.921 -1.9813  0.1203 -1.2007
 4178TIP3    H234026   1.511   5.328  16.922  0.2763  0.9187 -0.8022
 4179TIP3   OH234027   2.570   5.618   4.517 -0.7590 -0.2339 -0.3416
 4179TIP3    H134028   2.577   5.547   4.581  0.4369  0.1445 -0.0391
 4179TIP3    H234029   2.482   5.607   4.480 -1.1315 -1.0074  0.7092
 4180TIP3   OH234030   6.482   6.851  16.572 -1.0211  0.3851  0.5862
 4180TIP3    H134031   6.552   6.793  16.600 -1.4230  0.2955  1.4446
 4180TIP3    H234032   6.402   6.811  16.607 -1.5354  0.3862 -0.5201
 4181TIP3   OH234033   1.905   6.143   2.306 -0.1496  0.0916 -0.1196
 4181TIP3    H134034   1.971   6.142   2.237  1.0010  0.6039  0.9430
 4181TIP3    H234035   1.883   6.236   2.317 -0.1524  0.0367  0.3611
 4182TIP3   OH234036   1.013   3.902  12.914  0.7254  0.0652 -0.2113
 4182TIP3    H134037   1.091   3.884  12.966  1.6342  1.5582 -0.9973
 4182TIP3    H234038   0.947   3.930  12.978  0.0347 -3.2603  0.7529
 4183TIP3   OH234039   1.133   4.269  14.077  0.3329  0.3450 -0.2054
 4183TIP3    H134040   1.082   4.337  14.121 -0.1207 -0.9105  1.2883
 4183TIP3    H234041   1.223   4.303  14.077  0.0827  1.0269  0.3262
 4184TIP3   OH234042   0.550   5.952   4.633 -0.3075  0.6019 -0.1972
 4184TIP3    H134043   0.580   5.861   4.637 -0.7385  0.5033  1.3272
 4184TIP3    H234044   0.603   5.998   4.697 -1.0477  1.1249  0.0544
 4185TIP3   OH234045   6.306   6.741  15.642 -0.5534  0.0261 -0.5503
 4185TIP3    H134046   6.399   6.720  15.653 -0.7918 -0.5075  0.5180
 4185TIP3    H234047   6.276   6.766  15.729 -1.9702 -2.1847 -0.3280
 4186TIP3   OH234048   2.847   1.470  13.033 -0.1799  0.7783 -0.3248
 4186TIP3    H134049   2.767   1.476  12.981 -0.4048  1.3862  0.0865
 4186TIP3    H234050   2.818   1.437  13.118  0.4166 -1.9686 -1.0882
 4187TIP3   OH234051   5.736   1.755   2.233 -0.4682 -0.4542 -0.4592
 4187TIP3    H134052   5.682   1.740   2.310  0.5073 -1.4152  0.0562
 4187TIP3    H234053   5.787   1.675   2.223  2.6928  1.2841  0.5611
 4188TIP3   OH234054   3.433   0.889   2.892 -0.1826 -0.2848  0.2425
 4188TIP3    H134055   3.459   0.981   2.887  0.9184 -0.5643  0.5914
 4188TIP3    H234056   3.395   0.870   2.806 -0.0021  0.3750  0.0122
 4189TIP3   OH234057   5.305   6.551   0.632 -0.2495  0.4028  0.7431
 4189TIP3    H134058   5.309   6.456   0.627 -0.3480  0.3724  1.1996
 4189TIP3    H234059   5.215   6.570   0.661 -0.3536  0.6494  0.2727
 4190TIP3   OH234060   6.564   2.967  14.002  0.5965  0.6851  0.5608
 4190TIP3    H134061   6.513   2.974  13.922  0.7716  0.0851  0.3959
 4190TIP3    H234062   6.639   2.913  13.979  0.6996  0.5817  1.1067
 4191TIP3   OH234063   2.902   4.801  14.936 -0.3482 -0.8651  0.4503
 4191TIP3    H134064   2.840   4.729  14.935 -1.4222  0.0223  1.0019
 4191TIP3    H234065   2.909   4.826  15.028 -1.4487  0.9222  0.0939
 4192TIP3   OH234066   2.023   2.016   0.310  0.0176 -0.4090 -0.9595
 4192TIP3    H134067   2.017   1.936   0.258  1.1988 -0.2356 -1.4019
 4192TIP3    H234068   2.100   2.061   0.276 -0.5636  0.8658 -0.6271
 4193TIP3   OH234069   3.284   2.408  11.177 -0.0542  0.1471 -0.3675
 4193TIP3    H134070   3.323   2.485  11.136  0.6500 -0.5015 -0.9551
 4193TIP3    H234071   3.230   2.443  11.248  0.2396  1.1747 -0.6351
 4194TIP3   OH234072   3.021   2.737  14.808  0.0973  0.8764 -0.2464
 4194TIP3    H134073   3.084   2.809  14.807  2.1256 -0.7913  0.0571
 4194TIP3    H234074   3.064   2.669  14.860 -1.8607 -0.4631 -0.2919
 4195TIP3   OH234075   0.038   6.691  17.067 -0.3050 -0.3945  0.4602
 4195TIP3    H134076   0.133   6.696  17.074 -0.3269 -1.3517  1.6479
 4195TIP3    H234077   0.008   6.681  17.158 -1.6397  1.3184  0.2631
 4196TIP3   OH234078   4.598   5.644  11.411 -0.1468 -0.4653 -0.3189
 4196TIP3    H134079   4.620   5.681  11.496 -0.2196  0.7387 -0.7977
 4196TIP3    H234080   4.679   5.652  11.360 -1.3325  3.6011 -1.9601
 4197TIP3   OH234081   3.682   6.057  15.973  0.6008 -0.8065 -0.5445
 4197TIP3    H134082   3.687   5.992  16.044 -0.8322  0.7247  1.0665
 4197TIP3    H234083   3.773   6.085  15.960  0.7308  0.5166  2.3833
 4198TIP3   OH234084   5.112   5.389  12.802 -0.2340 -0.5164 -0.0777
 4198TIP3    H134085   5.166   5.389  12.881 -0.0817 -0.9516 -0.1759
 4198TIP3    H234086   5.173   5.369  12.731 -0.3913 -0.2487 -0.2885
 4199TIP3   OH234087   3.928   0.893  16.097  0.1271  0.0393  0.0109
 4199TIP3    H134088   4.001   0.880  16.157  0.7638 -0.3957 -0.8357
 4199TIP3    H234089   3.878   0.965  16.134 -0.4328 -1.2759  1.9434
 4200TIP3   OH234090   3.929   3.360  11.075  0.1275  0.1468  0.2653
 4200TIP3    H134091   3.939   3.455  11.088  0.9922 -0.0248  0.9081
 4200TIP3    H234092   3.982   3.341  10.998  2.8107 -0.3232  2.0925
 4201TIP3   OH234093   2.379   0.628  16.430  0.1452 -0.7862  0.3911
 4201TIP3    H134094   2.461   0.586  16.456  0.3408  0.2029  1.4238
 4201TIP3    H234095   2.325   0.556  16.397  2.0097 -1.2488 -1.9205
 4202TIP3   OH234096   1.606   6.129   2.249  0.3044  0.0539  0.3157
 4202TIP3    H134097   1.700   6.137   2.266  0.2829  0.0598  0.4327
 4202TIP3    H234098   1.600   6.112   2.155  0.4879 -1.0121  0.4841
 4203TIP3   OH234099   5.356   6.019  15.168  0.5547 -0.0308  0.5488
 4203TIP3    H134100   5.324   6.030  15.078 -0.7221 -1.3310  0.8072
 4203TIP3    H234101   5.339   6.103  15.210 -2.6560 -0.5915  0.6631
 4204TIP3   OH234102   3.362   1.093  16.755 -1.1255  0.6761  0.2123
 4204TIP3    H134103   3.402   1.032  16.694 -3.1693 -2.0099  1.3554
 4204TIP3    H234104   3.268   1.089  16.736 -1.5233  2.0374  1.5797
 4205TIP3   OH234105   5.620   5.345  13.282 -0.4646 -0.5164  0.0461
 4205TIP3    H134106   5.713   5.329  13.297 -0.4640  0.2639  1.0117
 4205TIP3    H234107   5.612   5.358  13.188  0.7752  1.5337  0.1646
 4206TIP3   OH234108   3.695   5.972   3.109 -0.0235  0.5317 -0.3322
 4206TIP3    H134109   3.682   5.882   3.139  1.5496  0.3970  0.0383
 4206TIP3    H234110   3.638   5.981   3.033 -1.4983 -0.2188  0.6433
 4207TIP3   OH234111   5.160   0.808  14.904 -0.1779 -0.2397 -0.3535
 4207TIP3    H134112   5.069   0.802  14.935 -0.0506 -1.3538 -0.1608
 4207TIP3    H234113   5.182   0.719  14.878  1.2990 -0.2678  0.8555
 4208TIP3   OH234114   6.230   2.115  15.265 -0.2186  0.2698  0.6453
 4208TIP3    H134115   6.256   2.068  15.344  0.6281 -1.1882 -0.4253
 4208TIP3    H234116   6.271   2.065  15.194 -1.7240  0.9641 -0.7728
 4209TIP3   OH234117   4.551   5.339   0.037  0.6894  0.1322 -0.0141
 4209TIP3    H134118   4.554   5.279  -0.038  0.7842  0.5565 -0.3549
 4209TIP3    H234119   4.531   5.283   0.112  1.3487 -0.4102 -0.2360
 4210TIP3   OH234120   3.903   1.457  14.371  0.6719 -0.5230  0.2783
 4210TIP3    H134121   3.899   1.376  14.319  1.4694 -0.3190 -0.1199
 4210TIP3    H234122   3.820   1.501  14.353  0.3816 -1.0841  0.2173
 4211TIP3   OH234123   3.356   3.650   3.525  0.3824 -0.4981  0.1090
 4211TIP3    H134124   3.430   3.698   3.563 -0.0011  0.8901 -0.8578
 4211TIP3    H234125   3.363   3.665   3.431  0.3945 -2.5859 -0.2645
 4212TIP3   OH234126   3.397   4.730   4.588 -0.2218  0.3895 -0.5145
 4212TIP3    H134127   3.373   4.643   4.619  0.0395  0.5041  0.0174
 4212TIP3    H234128   3.442   4.714   4.505  0.3756 -0.0302 -0.1155
 4213TIP3   OH234129   6.517   1.061   4.130  0.3410 -0.4756 -0.1630
 4213TIP3    H134130   6.595   1.092   4.083 -0.1087  0.2139 -0.4575
 4213TIP3    H234131   6.444   1.088   4.076 -0.0783 -2.0576 -0.4289
 4214TIP3   OH234132   6.338   5.372  10.690 -0.2442  0.3461 -0.2505
 4214TIP3    H134133   6.361   5.462  10.713  0.6462  0.0956 -0.1280
 4214TIP3    H234134   6.267   5.349  10.750 -0.0311  0.7485  0.1642
 4215TIP3   OH234135   1.526   3.255  17.103 -0.2867 -0.0320 -0.0959
 4215TIP3    H134136   1.525   3.274  17.197 -0.5000  1.1376 -0.3131
 4215TIP3    H234137   1.585   3.321  17.066 -0.3220 -0.3858 -0.7989
 4216TIP3   OH234138   0.922   4.083   1.166 -0.0359 -0.4684  0.4137
 4216TIP3    H134139   1.016   4.095   1.179 -0.0282 -0.4523  0.3447
 4216TIP3    H234140   0.913   3.994   1.130 -0.1297 -0.8423  1.3327
 4217TIP3   OH234141   5.624   2.709   6.177  0.6586  0.2044 -0.4869
 4217TIP3    H134142   5.537   2.737   6.207  0.2470  0.4347 -1.8399
 4217TIP3    H234143   5.617   2.614   6.170  0.7197  0.1606  0.0221
 4218TIP3   OH234144   2.738   1.877  12.724 -0.3822  0.2740 -0.8403
 4218TIP3    H134145   2.728   1.970  12.745  0.7331  0.3279 -0.5201
 4218TIP3    H234146   2.691   1.831  12.793  0.8136  0.5449  0.1805
 4219TIP3   OH234147   0.946   3.721   3.644  0.9366  0.6682  0.1367
 4219TIP3    H134148   0.953   3.685   3.732  0.9173 -2.8564 -1.1567
 4219TIP3    H234149   1.035   3.749   3.622  1.5516 -1.0323  0.3342
 4220TIP3   OH234150   2.571   1.130   1.733 -0.2766  0.5932 -0.3324
 4220TIP3    H134151   2.567   1.186   1.656  2.0128 -0.0534 -0.9712
 4220TIP3    H234152   2.555   1.042   1.700 -2.6072  0.6384  0.4857
 4221TIP3   OH234153   4.716   5.469  14.529 -0.1641 -0.0407  0.3431
 4221TIP3    H134154   4.733   5.401  14.594  0.4881  0.0198  0.2426
 4221TIP3    H234155   4.669   5.537  14.577  0.6249  0.1635  0.8431
 4222TIP3   OH234156   1.177   0.555  13.791  0.0962  0.5416 -0.0628
 4222TIP3    H134157   1.186   0.582  13.699 -0.9645 -0.5993 -0.5318
 4222TIP3    H234158   1.165   0.461  13.787 -2.1565  0.7177  1.0767
 4223TIP3   OH234159   1.165   0.490  16.042 -0.2822  0.1019 -0.7659
 4223TIP3    H134160   1.160   0.498  16.137 -0.4184  0.9986 -0.8397
 4223TIP3    H234161   1.073   0.488  16.014 -0.2488  0.8222 -0.9461
 4224TIP3   OH234162   3.225   4.260  13.166  0.1570 -0.4526 -0.5742
 4224TIP3    H134163   3.253   4.219  13.084  2.4884 -1.3940  0.5992
 4224TIP3    H234164   3.191   4.188  13.219  1.5057 -0.4290  0.3812
 4225TIP3   OH234165   0.355   0.701  14.089  0.4278  0.0244 -0.1112
 4225TIP3    H134166   0.354   0.607  14.101 -0.6092  0.2823  2.6295
 4225TIP3    H234167   0.318   0.736  14.171  1.5657  2.8328 -0.6786
 4226TIP3   OH234168   6.406   0.084   0.670 -0.3691 -0.0728  0.2826
 4226TIP3    H134169   6.403   0.172   0.632  0.2762  0.1077  0.6303
 4226TIP3    H234170   6.319   0.070   0.706 -1.6023 -0.9412 -2.7346
 4227TIP3   OH234171   6.279   0.809   0.192  0.3302  0.4159  0.1243
 4227TIP3    H134172   6.233   0.732   0.223  1.4117 -0.1131  0.4578
 4227TIP3    H234173   6.298   0.791   0.100  0.9679  0.0923  0.3181
 4228TIP3   OH234174   4.571   4.983   0.182  0.3933 -0.2087 -0.1263
 4228TIP3    H134175   4.520   4.914   0.139  1.1558 -0.8575 -0.0088
 4228TIP3    H234176   4.513   5.059   0.181 -0.7151 -1.0128  0.3072
 4229TIP3   OH234177   4.975   4.739  13.008  0.1614  0.3502 -0.1903
 4229TIP3    H134178   4.931   4.689  12.939 -1.1073  1.4163 -0.2058
 4229TIP3    H234179   4.926   4.822  13.012  1.5535  1.1716  0.5274
 4230TIP3   OH234180   0.956   0.292   3.666 -0.0292 -0.4127  0.7513
 4230TIP3    H134181   1.031   0.352   3.663  0.2113 -0.7482 -0.4994
 4230TIP3    H234182   0.880   0.350   3.671  0.3002 -0.0697  2.1236
 4231TIP3   OH234183   0.158   2.128   4.159  0.1531 -0.1898  0.1669
 4231TIP3    H134184   0.253   2.116   4.154  0.0930 -0.1050 -1.9898
 4231TIP3    H234185   0.147   2.218   4.189  0.7173 -0.4746  1.2973
 4232TIP3   OH234186   4.014   0.604   1.721 -0.3829  0.0698  0.0096
 4232TIP3    H134187   3.943   0.664   1.698  0.3087  1.4080  1.2551
 4232TIP3    H234188   4.091   0.660   1.732  0.4361 -1.1234  0.5673
 4233TIP3   OH234189   1.668   5.320  11.610  0.3242  0.6650 -0.4907
 4233TIP3    H134190   1.622   5.346  11.690 -0.5315  0.5710 -0.9339
 4233TIP3    H234191   1.604   5.335  11.540  0.1440 -1.5891 -0.8889
 4234TIP3   OH234192   6.237   5.180   4.670  0.0638  0.5655  0.2152
 4234TIP3    H134193   6.215   5.087   4.673  1.3696  0.2700  1.4818
 4234TIP3    H234194   6.172   5.218   4.611 -0.5131 -1.1359 -0.2950
 4235TIP3   OH234195   5.306   4.935  14.268 -0.6566  0.0586 -0.1551
 4235TIP3    H134196   5.330   4.978  14.185 -0.5880  0.4799  0.0820
 4235TIP3    H234197   5.316   4.841  14.250  1.2343  0.2095 -0.0604
 4236TIP3   OH234198   3.386   1.170  12.229  0.1665 -0.4699  0.4042
 4236TIP3    H134199   3.413   1.257  12.259 -0.7372  0.2598 -0.7737
 4236TIP3    H234200   3.290   1.173  12.231  0.0366 -0.4794 -2.0917
 4237TIP3   OH234201   0.615   4.434  11.508 -0.5179  0.1702  0.1473
 4237TIP3    H134202   0.702   4.399  11.526 -1.4274 -3.2932 -1.4309
 4237TIP3    H234203   0.631   4.507  11.448  1.3288  0.3698  0.8123
 4238TIP3   OH234204   2.962   2.419   0.641 -0.0456 -0.2683  0.0813
 4238TIP3    H134205   2.886   2.375   0.603  0.3635  0.5325 -1.7907
 4238TIP3    H234206   2.953   2.510   0.613  2.7306 -0.5642 -2.2086
 4239TIP3   OH234207   6.031   5.753   1.569  0.0452 -0.2444  0.3584
 4239TIP3    H134208   6.007   5.667   1.533  0.5806 -0.8982  1.5063
 4239TIP3    H234209   6.006   5.747   1.661 -0.9051  1.2337  0.2228
 4240TIP3   OH234210   1.777   4.492   5.867  0.3032  0.1687  0.6035
 4240TIP3    H134211   1.812   4.524   5.950  0.0598 -3.0249  2.0424
 4240TIP3    H234212   1.722   4.418   5.890 -1.0155  0.0891 -2.3246
 4241TIP3   OH234213   5.099   0.761  16.956 -0.1712  0.3320  0.0978
 4241TIP3    H134214   5.187   0.790  16.933  0.7570 -1.5301  1.1030
 4241TIP3    H234215   5.042   0.832  16.927  1.5684  1.2286 -1.3129
 4242TIP3   OH234216   4.239   3.676  16.490  0.0562  0.4258 -0.4180
 4242TIP3    H134217   4.173   3.730  16.533  0.4096  2.2630 -2.0153
 4242TIP3    H234218   4.189   3.609  16.443 -0.6012  1.0371 -0.6088
 4243TIP3   OH234219   1.145   3.192  14.897 -0.0398 -0.9550 -0.1794
 4243TIP3    H134220   1.122   3.153  14.812 -2.4345 -0.0996 -0.0073
 4243TIP3    H234221   1.240   3.201  14.894 -0.0264 -1.1195 -2.6994
 4244TIP3   OH234222   0.920   2.668   3.048  0.3740 -0.3491 -0.0352
 4244TIP3    H134223   0.882   2.582   3.070  1.9681 -0.7001  1.6120
 4244TIP3    H234224   0.973   2.652   2.970 -0.4555 -0.5290 -0.5698
 4245TIP3   OH234225   2.359   5.224  10.451 -0.0078 -0.3898  0.2875
 4245TIP3    H134226   2.402   5.160  10.507  1.0482  0.1253  0.1048
 4245TIP3    H234227   2.426   5.248  10.387 -0.4214  0.7685  0.2620
 4246TIP3   OH234228   1.778   6.215  16.721 -0.3478 -0.0401 -0.3759
 4246TIP3    H134229   1.741   6.200  16.808  0.0697  0.1842 -0.1564
 4246TIP3    H234230   1.873   6.212  16.734 -0.0850  4.2774  0.0353
 4247TIP3   OH234231   2.199   1.922  14.251  0.6460 -0.4417 -0.2637
 4247TIP3    H134232   2.157   1.961  14.328  1.7891 -1.7529  1.0842
 4247TIP3    H234233   2.272   1.980  14.231  0.9603 -0.6410  0.2920
 4248TIP3   OH234234   5.839   2.828   6.055  0.0086 -0.9187 -0.5655
 4248TIP3    H134235   5.755   2.798   6.090 -0.2763  1.7459  1.3039
 4248TIP3    H234236   5.900   2.818   6.127  0.5642  0.1383 -0.8764
 4249TIP3   OH234237   6.688   3.672  13.897  0.2239  0.6606  0.0251
 4249TIP3    H134238   6.618   3.609  13.917 -1.6831  2.1935 -1.3755
 4249TIP3    H234239   6.690   3.730  13.972 -1.2173  1.5701 -0.5890
 4250TIP3   OH234240   0.593   3.785  12.419  0.3679  0.1942  0.2056
 4250TIP3    H134241   0.628   3.872  12.400  0.9299 -0.2803 -1.0651
 4250TIP3    H234242   0.498   3.795  12.413  0.4596  0.5658 -0.6965
 4251TIP3   OH234243   5.474   3.490  16.670  0.4919 -0.6677 -0.5408
 4251TIP3    H134244   5.484   3.550  16.744  0.5691  1.3897 -2.1212
 4251TIP3    H234245   5.551   3.435  16.673  3.0894  2.5453 -1.7302
 4252TIP3   OH234246   3.447   6.295   4.091 -0.3105 -0.6957 -0.3610
 4252TIP3    H134247   3.370   6.351   4.078  0.0036  0.0523  0.8412
 4252TIP3    H234248   3.508   6.322   4.022 -0.4048  0.0363 -0.1697
 4253TIP3   OH234249   6.751   6.135  14.995 -0.0889 -0.1492 -0.0385
 4253TIP3    H134250   6.802   6.202  15.040 -1.6334  1.8920 -1.1854
 4253TIP3    H234251   6.812   6.096  14.933  1.0897 -0.5543  1.3158
 4254TIP3   OH234252   2.543   2.308   1.717 -0.4250  0.5633 -0.0634
 4254TIP3    H134253   2.595   2.319   1.796 -0.5413 -1.8308  0.4320
 4254TIP3    H234254   2.464   2.361   1.732  1.2812  3.4226 -0.4027
 4255TIP3   OH234255   3.485   2.879  16.765 -0.0263 -0.3311 -0.0381
 4255TIP3    H134256   3.428   2.947  16.800  2.1910  0.0517  3.2936
 4255TIP3    H234257   3.440   2.848  16.686 -3.4721  1.6382  0.9435
 4256TIP3   OH234258   3.620   1.544   0.506 -0.3442  0.5602  0.1284
 4256TIP3    H134259   3.647   1.452   0.500 -1.3225  0.2388  0.4526
 4256TIP3    H234260   3.525   1.540   0.516 -0.4062  1.6196  0.0152
 4257TIP3   OH234261   5.473   4.096  11.298 -0.2009  0.1185 -0.0888
 4257TIP3    H134262   5.451   4.027  11.361 -0.5052  0.3203  0.0283
 4257TIP3    H234263   5.440   4.063  11.215 -0.8053  0.3430  0.0562
 4258TIP3   OH234264   1.177   2.364   5.395 -0.3040 -0.2683  0.2197
 4258TIP3    H134265   1.270   2.381   5.411  0.0774 -0.3884 -1.6174
 4258TIP3    H234266   1.151   2.431   5.332 -1.8440  0.5680  1.6524
 4259TIP3   OH234267   0.252   2.341  16.660 -0.5640 -0.1297 -0.0814
 4259TIP3    H134268   0.166   2.380  16.671 -0.5207  0.0328 -0.3276
 4259TIP3    H234269   0.304   2.377  16.732 -0.2368  1.0643 -0.8938
 4260TIP3   OH234270   2.704   1.362   0.365 -0.4999 -0.0234 -0.4017
 4260TIP3    H134271   2.696   1.458   0.367 -2.6398 -0.1390  2.2230
 4260TIP3    H234272   2.652   1.335   0.290 -0.8555  0.8352 -0.4723
 4261TIP3   OH234273   2.618   5.264  11.920  0.5656  0.2569 -0.0431
 4261TIP3    H134274   2.582   5.239  11.835  0.7831 -2.1980  0.5044
 4261TIP3    H234275   2.614   5.359  11.921  1.6944  0.4441 -3.2729
 4262TIP3   OH234276   4.492   5.312  11.072  0.0454  0.5278  0.1426
 4262TIP3    H134277   4.402   5.343  11.068  0.1992  0.8224 -1.7210
 4262TIP3    H234278   4.545   5.390  11.060  0.5742  0.3151  0.9657
 4263TIP3   OH234279   4.438   2.267  16.919  0.2206 -0.0952 -0.6038
 4263TIP3    H134280   4.388   2.299  16.843 -0.2748 -0.4085 -0.4196
 4263TIP3    H234281   4.494   2.341  16.944 -0.8094  0.5980 -0.2652
 4264TIP3   OH234282   6.492   3.473   3.663 -0.0470  0.1689  0.2472
 4264TIP3    H134283   6.512   3.540   3.729  0.8133  1.7536 -1.5167
 4264TIP3    H234284   6.539   3.395   3.693  0.4757  0.8932  1.4072
 4265TIP3   OH234285   4.564   2.752   4.641  0.5682 -0.0604  0.0868
 4265TIP3    H134286   4.622   2.800   4.701 -0.0891  0.3273  0.4218
 4265TIP3    H234287   4.532   2.818   4.580 -0.1418 -0.1107  0.3934
 4266TIP3   OH234288   1.741   0.262  10.894 -0.4086  0.5824  0.2566
 4266TIP3    H134289   1.705   0.339  10.938 -0.4920  1.5856 -1.4558
 4266TIP3    H234290   1.687   0.251  10.816  1.0785  0.2689 -0.7850
 4267TIP3   OH234291   5.671   0.489   5.403  0.4447 -0.4059  0.1890
 4267TIP3    H134292   5.609   0.427   5.364  0.5123  0.1274 -0.7917
 4267TIP3    H234293   5.660   0.478   5.497 -0.0243 -1.4284  0.0215
 4268TIP3   OH234294   6.242   1.247  15.367 -0.1076  0.2353 -0.7131
 4268TIP3    H134295   6.311   1.192  15.331 -0.3061 -0.2146 -0.4126
 4268TIP3    H234296   6.193   1.278  15.290 -0.4504 -0.6149 -0.8476
 4269TIP3   OH234297   5.142   6.231   0.239  0.0191 -0.6502 -0.5258
 4269TIP3    H134298   5.208   6.193   0.297  1.5736  1.3830 -0.8399
 4269TIP3    H234299   5.065   6.175   0.249  0.8968 -1.5251  1.9704
 4270TIP3   OH234300   1.275   0.739  12.419  0.3253 -0.7861  0.7762
 4270TIP3    H134301   1.221   0.724  12.342  1.4400  2.1621 -0.7398
 4270TIP3    H234302   1.214   0.763  12.488 -0.4930  0.1044 -0.2326
 4271TIP3   OH234303   6.769   3.755  11.410  0.1664  1.0952  0.5558
 4271TIP3    H134304   6.779   3.797  11.496  0.5892 -0.4083  1.2707
 4271TIP3    H234305   6.694   3.696  11.421  0.3450  0.7493 -0.0564
 4272TIP3   OH234306   3.188   5.481   1.468 -0.8097  0.4638 -0.3186
 4272TIP3    H134307   3.268   5.473   1.416 -1.3181  0.6279 -1.1435
 4272TIP3    H234308   3.208   5.434   1.549  1.4959  3.6615  1.2204
 4273TIP3   OH234309   2.864   1.080   1.457 -1.1580 -0.0201  0.0209
 4273TIP3    H134310   2.909   1.004   1.419  0.9047  1.4551 -0.6809
 4273TIP3    H234311   2.909   1.095   1.540 -0.8655  0.9897 -0.3080
 4274TIP3   OH234312   5.504   0.296   3.290 -0.1857  0.0643  0.1933
 4274TIP3    H134313   5.423   0.290   3.340  0.3376 -0.7814  0.9783
 4274TIP3    H234314   5.496   0.229   3.222 -0.4444  0.4919 -0.2105
 4275TIP3   OH234315   0.423   3.086   4.038  0.4765 -0.1186 -0.7884
 4275TIP3    H134316   0.462   3.137   4.109 -0.9388  1.1302 -0.8495
 4275TIP3    H234317   0.462   3.122   3.958 -1.1777  1.5782 -0.8942
 4276TIP3   OH234318   2.887   1.869   1.598  0.4464  0.5103  0.1313
 4276TIP3    H134319   2.832   1.802   1.557  3.2788 -4.3469  3.3490
 4276TIP3    H234320   2.948   1.895   1.529 -1.1190  0.3750 -1.3816
 4277TIP3   OH234321   1.551   6.505  11.321 -0.0768 -0.6873 -0.3805
 4277TIP3    H134322   1.473   6.528  11.271 -0.7040 -1.2483  0.3056
 4277TIP3    H234323   1.517   6.460  11.398  0.8773 -0.0300  0.4464
 4278TIP3   OH234324   2.847   2.034   3.069  0.3348 -0.5049 -0.7209
 4278TIP3    H134325   2.885   2.048   3.155 -0.0359 -0.4539 -0.5642
 4278TIP3    H234326   2.753   2.037   3.083  0.2444  1.6566 -1.4766
 4279TIP3   OH234327   5.477   5.206  12.816  0.0103  0.0817 -0.3608
 4279TIP3    H134328   5.536   5.169  12.882 -0.4485 -2.3083 -1.2162
 4279TIP3    H234329   5.522   5.193  12.733  0.3484  2.6041 -0.6657
 4280TIP3   OH234330   5.293   3.175   1.175  0.5620  0.5780  0.1982
 4280TIP3    H134331   5.319   3.145   1.088 -0.8611 -1.9655  0.5426
 4280TIP3    H234332   5.337   3.115   1.236 -0.5610  0.6009  1.0745
 4281TIP3   OH234333   4.538   5.674  14.606  0.4718  0.2112 -0.3282
 4281TIP3    H134334   4.573   5.746  14.554  0.2674  0.9437  0.5243
 4281TIP3    H234335   4.506   5.715  14.686  0.9180 -0.9007  0.4510
 4282TIP3   OH234336   6.563   0.698   3.539 -0.4763  0.1654  0.1766
 4282TIP3    H134337   6.620   0.621   3.531  1.1077  1.2864  0.2195
 4282TIP3    H234338   6.498   0.686   3.470 -0.1361 -1.1045  0.0344
 4283TIP3   OH234339   1.368   4.105  11.483  0.5316 -0.1184 -0.8163
 4283TIP3    H134340   1.440   4.058  11.442  1.8181 -0.0469  1.1972
 4283TIP3    H234341   1.406   4.190  11.508  0.0708 -0.4186  1.0876
 4284TIP3   OH234342   3.600   5.518   3.384 -0.0051  0.4692  0.0459
 4284TIP3    H134343   3.554   5.469   3.453  1.5121 -0.3767  0.4995
 4284TIP3    H234344   3.662   5.573   3.432  1.7978 -0.8864 -0.6414
 4285TIP3   OH234345   5.869   2.217   5.979  0.4959 -0.1430 -0.2854
 4285TIP3    H134346   5.917   2.139   6.007  0.4617  0.5955  2.1416
 4285TIP3    H234347   5.936   2.285   5.970  0.4810 -0.3147 -2.0311
 4286TIP3   OH234348   6.277   0.419   3.696 -0.0592  0.2051 -0.1308
 4286TIP3    H134349   6.291   0.385   3.607 -0.0858  0.6025 -0.2885
 4286TIP3    H234350   6.186   0.398   3.716 -0.6461  1.7909 -0.9470
 4287TIP3   OH234351   0.638   6.718   4.754 -0.4000 -0.0824 -0.1510
 4287TIP3    H134352   0.633   6.655   4.826 -2.1730  1.8560  1.5692
 4287TIP3    H234353   0.571   6.689   4.692 -0.2179 -0.6767 -0.0740
 4288TIP3   OH234354   5.942   0.346   3.442  0.0111 -0.4250  0.1008
 4288TIP3    H134355   5.864   0.388   3.405  1.6463  3.3110  0.4900
 4288TIP3    H234356   5.938   0.366   3.535  1.5606  0.1415  0.0683
 4289TIP3   OH234357   4.897   5.905   1.923 -0.1478  0.2782  0.3143
 4289TIP3    H134358   4.870   5.993   1.897  2.9078  1.2774  0.0308
 4289TIP3    H234359   4.823   5.871   1.973 -1.6500  2.7983 -0.0023
 4290TIP3   OH234360   2.508   3.505  14.217  0.1702 -0.2027 -0.1553
 4290TIP3    H134361   2.522   3.469  14.304 -1.7734 -2.1921 -0.5890
 4290TIP3    H234362   2.574   3.463  14.162  0.9953  0.5829  0.2192
 4291TIP3   OH234363   4.442   5.742   2.286 -0.4788  0.1376  0.1410
 4291TIP3    H134364   4.394   5.661   2.267 -0.4816 -0.0806  1.0417
 4291TIP3    H234365   4.483   5.765   2.203 -1.0118 -0.4338 -0.2912
 4292TIP3   OH234366   4.641   5.057   4.909 -0.1840  0.4694 -0.7858
 4292TIP3    H134367   4.721   5.108   4.892  0.4324 -0.4155 -0.6260
 4292TIP3    H234368   4.572   5.122   4.917  0.2808  1.1771 -2.2917
 4293TIP3   OH234369   1.950   5.405  12.824  0.1298  0.2460  0.4172
 4293TIP3    H134370   1.877   5.372  12.877  1.7754 -0.2715  2.4779
 4293TIP3    H234371   1.944   5.500  12.832 -1.3293  0.3119 -0.9370
 4294TIP3   OH234372   6.007   3.586  11.393  0.8648 -0.1563 -0.5794
 4294TIP3    H134373   5.992   3.584  11.299  0.0962 -1.6559 -0.4553
 4294TIP3    H234374   6.092   3.542  11.405  0.9677  0.0436 -0.5751
 4295TIP3   OH234375   6.339   6.814   4.719 -0.0033 -0.1006  0.5737
 4295TIP3    H134376   6.310   6.743   4.775  0.3641 -1.2934 -0.6844
 4295TIP3    H234377   6.276   6.815   4.646  1.1547 -0.5026 -0.4603
 4296TIP3   OH234378   3.174   2.775   3.531 -0.4124 -0.1990 -0.2169
 4296TIP3    H134379   3.209   2.697   3.574  1.1979 -0.0125 -1.0970
 4296TIP3    H234380   3.185   2.845   3.596 -2.0760 -0.7088  0.6599
 4297TIP3   OH234381   2.796   3.342   3.212 -0.5470 -0.0149  0.4546
 4297TIP3    H134382   2.778   3.251   3.192 -1.4042  0.1012  0.6625
 4297TIP3    H234383   2.891   3.349   3.209 -0.5439 -0.3825 -1.8242
 4298TIP3   OH234384   5.163   5.263  15.205  0.7722 -0.3335  0.2592
 4298TIP3    H134385   5.117   5.344  15.227 -0.9559 -0.9528 -0.8516
 4298TIP3    H234386   5.127   5.237  15.120  2.8272 -1.1671 -0.4109
 4299TIP3   OH234387   2.280   0.122   2.681  1.0776  0.2417 -0.0734
 4299TIP3    H134388   2.248   0.056   2.620  0.0635  0.7753 -0.1333
 4299TIP3    H234389   2.203   0.174   2.704  1.7268  0.9836  0.4994
 4300TIP3   OH234390   4.892   5.103  13.074  0.5254 -0.2640  0.1321
 4300TIP3    H134391   4.804   5.118  13.039  0.2852 -0.7748  0.5050
 4300TIP3    H234392   4.913   5.183  13.121 -0.0630 -0.4338  0.7040
 4301TIP3   OH234393   5.014   1.501   2.570  0.0900  0.4469  0.1108
 4301TIP3    H134394   5.098   1.502   2.616  0.6546 -0.6395 -0.8547
 4301TIP3    H234395   5.032   1.544   2.487  0.1126 -1.1488 -0.7462
 4302TIP3   OH234396   2.668   2.773   1.146  0.1249  0.6024 -0.1642
 4302TIP3    H134397   2.651   2.865   1.168  1.2252  0.9336 -0.6377
 4302TIP3    H234398   2.617   2.723   1.210  0.2185  1.5406  0.6603
 4303TIP3   OH234399   5.646   4.139   0.541  0.0111  0.4412 -0.4872
 4303TIP3    H134400   5.645   4.200   0.615  1.2064  0.6493 -0.6088
 4303TIP3    H234401   5.555   4.116   0.527 -0.2276  0.2100  1.2022
 4304TIP3   OH234402   3.475   2.267  14.306  0.3828 -0.2246  0.2120
 4304TIP3    H134403   3.554   2.314  14.279  1.0666 -1.2368  0.3914
 4304TIP3    H234404   3.506   2.200  14.366 -0.6070 -0.7091  0.2076
 4305TIP3   OH234405   5.579   5.322   3.128  0.3782  0.8061  0.5108
 4305TIP3    H134406   5.657   5.353   3.081  0.4124 -0.0843 -0.0466
 4305TIP3    H234407   5.614   5.267   3.198  0.2655  0.9385  0.6725
 4306TIP3   OH234408   5.024   2.399  11.799  0.4939 -0.1203 -0.4217
 4306TIP3    H134409   4.984   2.447  11.727 -0.4022 -0.1035  0.0773
 4306TIP3    H234410   5.038   2.464  11.867  0.4545 -0.3169 -0.2226
 4307TIP3   OH234411   1.902   6.448  16.564 -0.4679 -0.7937  0.4693
 4307TIP3    H134412   1.978   6.454  16.507 -1.0126 -0.3491 -0.2262
 4307TIP3    H234413   1.938   6.424  16.650  0.7986  2.1957  0.8968
 4308TIP3   OH234414   3.826   5.159  16.380  0.6005 -0.0241  0.7380
 4308TIP3    H134415   3.784   5.244  16.366  0.0152 -0.4446 -0.1808
 4308TIP3    H234416   3.914   5.180  16.410  0.2190  0.8962  1.2718
 4309TIP3   OH234417   5.716   4.891   1.552 -0.1755 -0.4166  0.0957
 4309TIP3    H134418   5.650   4.883   1.622 -0.6138 -2.1039 -0.4623
 4309TIP3    H234419   5.749   4.980   1.561 -0.4020 -0.4993  2.3003
 4310TIP3   OH234420   6.586   0.063  14.632 -0.3060 -0.3825 -0.7437
 4310TIP3    H134421   6.674   0.028  14.645 -1.0734 -1.6901  1.5974
 4310TIP3    H234422   6.579   0.135  14.695 -1.9327 -2.5204  1.7595
 4311TIP3   OH234423   3.969   0.213  14.188 -0.1926  0.0061 -0.3433
 4311TIP3    H134424   3.912   0.148  14.147 -0.8927  1.0483 -1.0425
 4311TIP3    H234425   4.056   0.192  14.154 -0.2029 -1.2981  0.3635
 4312TIP3   OH234426   1.865   2.751   2.630  0.5258 -0.1557 -0.0166
 4312TIP3    H134427   1.903   2.833   2.600  0.6548 -0.2356 -0.0717
 4312TIP3    H234428   1.897   2.740   2.719  0.0847  0.1181  0.1763
 4313TIP3   OH234429   1.231   2.853   2.896  0.9477 -0.9762  0.3384
 4313TIP3    H134430   1.301   2.916   2.879  1.3455 -1.4143  0.3302
 4313TIP3    H234431   1.235   2.837   2.990 -0.1857  0.1983  0.6277
 4314TIP3   OH234432   3.291   6.136  12.926  0.3304  0.5211 -0.0265
 4314TIP3    H134433   3.383   6.127  12.901  0.8164  1.1306  1.4710
 4314TIP3    H234434   3.243   6.110  12.847  1.7657 -0.2832 -0.6847
 4315TIP3   OH234435   3.726   5.352   3.808 -0.2101  0.2695  0.0558
 4315TIP3    H134436   3.820   5.363   3.797  0.2711 -1.8736  1.3957
 4315TIP3    H234437   3.705   5.404   3.886 -0.1455  0.7054 -0.2126
 4316TIP3   OH234438   4.060   3.356  14.916 -0.7339  0.4301  0.5005
 4316TIP3    H134439   3.988   3.418  14.922  1.4169  3.0631  0.9450
 4316TIP3    H234440   4.068   3.320  15.005 -0.6386  1.2017  0.8146
 4317TIP3   OH234441   1.682   6.329  13.226  0.1322  0.0109 -0.1985
 4317TIP3    H134442   1.587   6.326  13.238  0.2485  0.0033  0.7567
 4317TIP3    H234443   1.695   6.394  13.156 -0.6604 -1.1606 -1.5020
 4318TIP3   OH234444   1.714   2.160   5.559  0.3724 -0.0477  0.6251
 4318TIP3    H134445   1.654   2.201   5.623 -0.0555 -1.8788  1.4577
 4318TIP3    H234446   1.782   2.225   5.546 -1.5234  1.9512 -0.0042
 4319TIP3   OH234447   3.513   4.073   0.027  0.0397  0.4973 -0.3149
 4319TIP3    H134448   3.439   4.013   0.029  1.7809 -1.7834  2.0936
 4319TIP3    H234449   3.509   4.120   0.110 -0.4821  2.8370 -1.5739
 4320TIP3   OH234450   1.864   1.623   1.088  0.0617  0.0497 -0.2249
 4320TIP3    H134451   1.918   1.667   1.022 -1.6134  1.0486 -1.0334
 4320TIP3    H234452   1.840   1.540   1.048  0.3270 -0.0296 -0.2182
 4321TIP3   OH234453   5.892   6.279  11.629  0.4341  0.3501  0.0642
 4321TIP3    H134454   5.860   6.358  11.674 -0.0442  1.4279 -2.0510
 4321TIP3    H234455   5.983   6.271  11.658  0.4060  1.5307  0.5566
 4322TIP3   OH234456   2.652   3.651  15.716  0.3991  0.3140 -0.0470
 4322TIP3    H134457   2.646   3.626  15.808 -0.3308  1.8164  0.3527
 4322TIP3    H234458   2.696   3.736  15.717 -0.3277  0.7253 -1.0032
 4323TIP3   OH234459   6.026   4.259   2.487 -0.0985  0.1129  0.0434
 4323TIP3    H134460   6.073   4.223   2.563 -0.4499  0.3324  0.3698
 4323TIP3    H234461   6.085   4.328   2.454  0.6910 -0.8988 -0.7395
 4324TIP3   OH234462   6.585   6.430  14.964 -0.4309  0.3326  0.3368
 4324TIP3    H134463   6.680   6.425  14.968 -0.4278  1.4531  3.1397
 4324TIP3    H234464   6.566   6.448  14.872  1.9550 -0.9679 -0.4974
 4325TIP3   OH234465   3.685   5.188   3.419  0.0842 -0.5722  1.0170
 4325TIP3    H134466   3.642   5.239   3.487 -0.0710 -0.5429  0.8979
 4325TIP3    H234467   3.665   5.097   3.442 -1.2085 -0.5250  0.2125
 4326TIP3   OH234468   1.141   4.794  10.699 -0.2683 -0.1428  0.0216
 4326TIP3    H134469   1.161   4.701  10.703  0.7490  0.1149  2.3026
 4326TIP3    H234470   1.195   4.826  10.626  1.4548 -0.9081  0.8922
 4327TIP3   OH234471   6.353   2.446  13.319 -0.3094 -0.4493 -0.2497
 4327TIP3    H134472   6.263   2.441  13.286 -0.7067 -2.8837  0.9880
 4327TIP3    H234473   6.343   2.439  13.414  0.9904  3.4063  0.3455
 4328TIP3   OH234474   1.061   4.102  16.302  0.2969  0.4617  0.0451
 4328TIP3    H134475   1.040   4.097  16.395  1.1624 -0.2879  0.2143
 4328TIP3    H234476   1.025   4.022  16.264  0.3829  0.5214 -0.1678
 4329TIP3   OH234477   0.670   2.116  12.587  0.3769 -0.5094  0.0275
 4329TIP3    H134478   0.588   2.129  12.636 -1.1475  0.7296 -2.6669
 4329TIP3    H234479   0.730   2.181  12.623 -0.5120  0.0293  0.5637
 4330TIP3   OH234480   4.209   0.856   4.779  0.7786 -0.0724 -0.1427
 4330TIP3    H134481   4.127   0.823   4.816  0.1243 -0.2794 -1.7076
 4330TIP3    H234482   4.264   0.778   4.769  0.9103 -0.0334  0.2517
 4331TIP3   OH234483   2.665   3.056  17.086  0.1120  0.4204  0.0886
 4331TIP3    H134484   2.583   3.071  17.039  0.1492 -2.2223 -0.9684
 4331TIP3    H234485   2.717   3.002  17.027  1.4081 -0.4742  1.9656
 4332TIP3   OH234486   4.008   0.782  15.085  0.0606 -0.4940 -0.2891
 4332TIP3    H134487   3.963   0.783  15.001 -2.7373 -1.0494  1.0692
 4332TIP3    H234488   4.090   0.735  15.068  0.4920  1.0277 -3.0234
 4333TIP3   OH234489   3.651   5.049  13.431 -0.5785  0.0020  0.2717
 4333TIP3    H134490   3.616   4.995  13.360 -0.0473  0.9644 -0.7695
 4333TIP3    H234491   3.583   5.049  13.498 -1.6193  0.0353 -0.7589
 4334TIP3   OH234492   0.334   0.036  12.644  0.3511 -0.1489  0.1347
 4334TIP3    H134493   0.387   0.031  12.723  0.2249  1.7339  0.3944
 4334TIP3    H234494   0.349   0.125  12.611  0.2313 -0.8240 -1.8414
 4335TIP3   OH234495   6.515   3.027   1.401 -0.0991  0.3025  0.0665
 4335TIP3    H134496   6.545   3.051   1.489 -0.9563  0.9007  0.2052
 4335TIP3    H234497   6.469   2.944   1.413 -0.0600  0.2916  0.1451
 4336TIP3   OH234498   2.761   6.260  13.218 -0.1887 -0.1417  0.7425
 4336TIP3    H134499   2.666   6.258  13.235 -0.0669  1.1243  1.6615
 4336TIP3    H234500   2.768   6.244  13.124 -1.3293 -0.0841  0.6244
 4337TIP3   OH234501   4.115   5.461  16.784 -0.5667  0.2027 -0.2907
 4337TIP3    H134502   4.201   5.496  16.759 -0.5812 -0.6148 -1.5428
 4337TIP3    H234503   4.123   5.444  16.878  1.0110 -0.8464 -0.5708
 4338TIP3   OH234504   3.625   4.793  15.923 -0.1477 -0.0549  0.6613
 4338TIP3    H134505   3.704   4.757  15.964  1.7028  1.9911 -0.9282
 4338TIP3    H234506   3.554   4.760  15.978  1.7350 -2.2593  1.9727
 4339TIP3   OH234507   3.353   1.227  14.178 -0.0566  0.4135  0.2289
 4339TIP3    H134508   3.439   1.197  14.148 -0.0543 -0.3655  0.9439
 4339TIP3    H234509   3.373   1.295  14.242  0.0296  0.3931  0.2250
 4340TIP3   OH234510   2.189   0.735  11.528  0.1726 -0.2309  0.1363
 4340TIP3    H134511   2.237   0.653  11.536  1.8570  0.7702  0.7808
 4340TIP3    H234512   2.102   0.714  11.562  1.1472 -1.2891  2.2039
 4341TIP3   OH234513   4.489   0.821  17.072  0.1500  0.7678 -0.4957
 4341TIP3    H134514   4.457   0.892  17.017 -0.3621  1.9589  1.2893
 4341TIP3    H234515   4.435   0.746  17.048 -0.4150  1.3944 -1.2279
 4342TIP3   OH234516   6.550   1.563   2.993  0.5102  0.4745 -0.2065
 4342TIP3    H134517   6.522   1.487   3.045  2.7804  0.1375  0.6146
 4342TIP3    H234518   6.568   1.527   2.906 -0.9719  0.6132 -0.6126
 4343TIP3   OH234519   3.820   5.993  12.850 -0.3197 -0.4746  0.3479
 4343TIP3    H134520   3.747   5.999  12.788 -0.1951 -0.1523  0.2324
 4343TIP3    H234521   3.790   5.930  12.915 -0.3720 -0.9776 -0.1490
 4344TIP3   OH234522   6.078   0.928  14.086  0.0547  0.1833 -0.1540
 4344TIP3    H134523   6.071   1.023  14.094 -0.0516  0.0728  1.2235
 4344TIP3    H234524   6.100   0.897  14.174 -0.8153 -1.1577 -0.3758
 4345TIP3   OH234525   4.982   5.659   1.641 -0.0604  0.2259 -0.0726
 4345TIP3    H134526   4.961   5.581   1.590 -0.2229  0.3252 -0.1609
 4345TIP3    H234527   5.070   5.684   1.614  0.0930 -0.0761  0.1434
 4346TIP3   OH234528   1.380   1.787   3.859 -0.1411 -0.4591 -0.0122
 4346TIP3    H134529   1.372   1.766   3.952  1.2477 -0.2266  0.1761
 4346TIP3    H234530   1.365   1.704   3.815  1.8172 -1.1721  0.5668
 4347TIP3   OH234531   5.096   5.025  10.655 -0.4202  0.0510  0.1751
 4347TIP3    H134532   5.071   4.934  10.670 -0.0847  0.2751  2.4688
 4347TIP3    H234533   5.133   5.026  10.566 -0.8969 -1.9230 -0.0863
 4348TIP3   OH234534   2.403   1.683  16.369 -0.3410  0.4271  0.6797
 4348TIP3    H134535   2.325   1.637  16.339 -0.6151  0.0146  1.9673
 4348TIP3    H234536   2.379   1.775  16.370 -0.0937  0.5445 -1.0038
 4349TIP3   OH234537   0.112   0.075   5.454 -0.6476  0.5205 -0.4156
 4349TIP3    H134538   0.041   0.018   5.482 -0.5096  0.5924  0.0989
 4349TIP3    H234539   0.181   0.060   5.519  0.7408 -1.3322 -2.1933
 4350TIP3   OH234540   4.100   4.491   6.016  0.7380  0.2741 -0.5752
 4350TIP3    H134541   4.016   4.500   5.970  0.8620  2.3126 -0.5023
 4350TIP3    H234542   4.163   4.534   5.958  1.1745  1.5014  0.7577
 4351TIP3   OH234543   3.863   1.968   3.012 -0.3774 -0.0544  0.6450
 4351TIP3    H134544   3.855   2.058   2.980 -0.1613 -0.4948 -0.7201
 4351TIP3    H234545   3.774   1.943   3.037 -0.5275  0.3484  0.5193
 4352TIP3   OH234546   1.553   5.741   1.289  0.1912 -0.2515  0.0012
 4352TIP3    H134547   1.486   5.796   1.329 -0.8810 -0.5310 -1.3506
 4352TIP3    H234548   1.542   5.656   1.331 -0.3538 -0.3167 -0.2658
 4353TIP3   OH234549   1.810   2.210   3.624 -0.1877 -0.0814  0.2245
 4353TIP3    H134550   1.757   2.234   3.547  0.9149 -0.4074 -0.6662
 4353TIP3    H234551   1.797   2.282   3.685  0.3835  1.1346 -1.0362
 4354TIP3   OH234552   3.677   6.109   5.599  0.2670 -0.1682 -0.1665
 4354TIP3    H134553   3.627   6.168   5.543  0.9591 -0.3090 -0.9650
 4354TIP3    H234554   3.763   6.150   5.606  0.5914 -0.8086 -0.2842
 4355TIP3   OH234555   4.697   0.555  16.780 -0.1221 -0.5722 -0.1236
 4355TIP3    H134556   4.782   0.550  16.822  0.1918 -0.5638 -0.7508
 4355TIP3    H234557   4.699   0.487  16.712 -0.5578 -0.4711 -0.2443
 4356TIP3   OH234558   4.231   0.108  14.168 -0.7511  0.3629  0.0177
 4356TIP3    H134559   4.281   0.105  14.249 -0.3993  1.1683 -0.1630
 4356TIP3    H234560   4.231   0.017  14.137 -0.0134  0.2247  0.3952
 4357TIP3   OH234561   6.345   6.492  15.042  1.1618  0.2967 -0.0114
 4357TIP3    H134562   6.435   6.470  15.018  1.1609 -1.5124  1.4593
 4357TIP3    H234563   6.292   6.424  15.002  0.2110  2.1049 -2.0456
 4358TIP3   OH234564   1.322   3.913  17.056  0.2740  0.1521  0.1066
 4358TIP3    H134565   1.309   3.890  17.148  0.0028  0.8941  0.2583
 4358TIP3    H234566   1.413   3.944  17.052  0.0914  0.7072  0.2476
 4359TIP3   OH234567   3.063   4.211   3.463  0.2192  0.0635 -0.1532
 4359TIP3    H134568   2.975   4.209   3.499  0.6778 -0.5139  0.9620
 4359TIP3    H234569   3.104   4.289   3.501  0.2876  0.1841 -0.4628
 4360TIP3   OH234570   0.581   4.751  12.992  0.2320  0.3949  0.5634
 4360TIP3    H134571   0.525   4.701  12.933  1.9623 -0.9580  0.0098
 4360TIP3    H234572   0.591   4.836  12.949  0.7130 -0.2465 -0.6268
 4361TIP3   OH234573   0.507   5.172   4.521  0.5833  0.1639 -0.0787
 4361TIP3    H134574   0.571   5.203   4.457 -0.4470 -2.0226 -2.3354
 4361TIP3    H234575   0.493   5.080   4.499 -1.5313 -0.0925  1.8930
 4362TIP3   OH234576   3.492   2.996   4.134 -0.3182 -0.3506  0.0386
 4362TIP3    H134577   3.522   2.943   4.208  0.9225  0.0536 -0.1583
 4362TIP3    H234578   3.431   2.939   4.086 -1.0197 -0.6697  1.2668
 4363TIP3   OH234579   5.525   4.554  11.808 -0.3892 -0.2389  0.4185
 4363TIP3    H134580   5.477   4.628  11.772 -1.1213 -0.7424  0.3390
 4363TIP3    H234581   5.569   4.515  11.732 -0.5877 -0.3102  0.3387
 4364TIP3   OH234582   1.286   6.711   4.212  0.0476  0.2902  0.0827
 4364TIP3    H134583   1.363   6.657   4.196  0.0393 -0.0816  1.2624
 4364TIP3    H234584   1.286   6.728   4.306 -1.2548  0.3591  0.0958
 4365TIP3   OH234585   4.402   5.728  12.742  0.0699 -0.1328 -0.1459
 4365TIP3    H134586   4.473   5.756  12.684 -0.7219 -0.1662 -1.1707
 4365TIP3    H234587   4.445   5.701  12.822  1.0522  2.1163  0.1663
 4366TIP3   OH234588   5.060   5.963  10.583  0.0557  0.8005 -0.8660
 4366TIP3    H134589   4.968   5.958  10.607  0.5575  0.8035  1.2501
 4366TIP3    H234590   5.087   6.051  10.609  1.3276 -0.1759  1.3630
 4367TIP3   OH234591   2.691   5.298  13.409  0.6956 -0.1555  0.3220
 4367TIP3    H134592   2.704   5.233  13.478 -0.0616  1.1041  1.6727
 4367TIP3    H234593   2.596   5.307  13.401  0.7731  0.0005 -0.6406
 4368TIP3   OH234594   0.454   6.649   2.453 -0.5164  0.0991 -0.5864
 4368TIP3    H134595   0.529   6.593   2.432 -0.5700 -0.0185 -0.4599
 4368TIP3    H234596   0.380   6.608   2.408 -0.7409 -0.4624  0.2755
 4369TIP3   OH234597   4.035   5.741   3.843  0.0740 -0.1503  0.2105
 4369TIP3    H134598   3.953   5.722   3.799 -0.8552  1.8621  0.9563
 4369TIP3    H234599   4.036   5.836   3.852  1.3735 -0.2966  2.3110
 4370TIP3   OH234600   3.962   6.474   2.185  0.5233  0.1718 -0.8258
 4370TIP3    H134601   3.934   6.384   2.203 -2.8934  1.3313  0.5771
 4370TIP3    H234602   3.988   6.473   2.093  0.2941 -2.1899 -0.9310
 4371TIP3   OH234603   5.236   3.164  16.139  0.7138 -0.3070  0.2224
 4371TIP3    H134604   5.279   3.226  16.197  2.1973  0.5339 -1.6491
 4371TIP3    H234605   5.246   3.202  16.052  0.9049 -2.7571 -0.9124
 4372TIP3   OH234606   5.099   1.017   3.706  0.3641  0.0399  0.6339
 4372TIP3    H134607   5.083   1.034   3.798  1.4595 -0.2897  0.9026
 4372TIP3    H234608   5.173   0.957   3.705 -0.7679 -1.4134 -0.4183
 4373TIP3   OH234609   5.813   3.734   2.030  0.2094  0.0913 -0.1942
 4373TIP3    H134610   5.742   3.753   1.968 -0.4475  0.2295  0.5901
 4373TIP3    H234611   5.841   3.820   2.061 -0.5899 -0.0492  0.9440
 4374TIP3   OH234612   4.842   0.229  13.304  0.4170 -0.0957 -0.6470
 4374TIP3    H134613   4.752   0.253  13.325  0.3255 -0.2021 -0.9146
 4374TIP3    H234614   4.894   0.303  13.335  0.0608  0.8638 -2.1998
 4375TIP3   OH234615   0.152   5.094   4.170 -0.0312  0.2783 -0.3183
 4375TIP3    H134616   0.168   5.182   4.203  0.1908 -0.2074  0.9558
 4375TIP3    H234617   0.120   5.045   4.246 -0.9170 -0.5479 -1.1818
 4376TIP3   OH234618   6.554   0.266  16.609  0.0218 -0.6982  0.1995
 4376TIP3    H134619   6.512   0.186  16.578 -0.7480  0.4549 -1.9177
 4376TIP3    H234620   6.647   0.253  16.589 -0.3284 -0.3859 -1.8256
 4377TIP3   OH234621   4.128   2.456  16.131  0.1471  0.3376 -0.3662
 4377TIP3    H134622   4.091   2.455  16.219 -0.5994  3.1263 -0.5734
 4377TIP3    H234623   4.055   2.431  16.074 -0.6830  2.8164 -0.5018
 4378TIP3   OH234624   6.431   4.919  15.957 -0.0592 -0.5623  0.0545
 4378TIP3    H134625   6.480   4.837  15.953  2.4168  0.8761 -1.5383
 4378TIP3    H234626   6.434   4.954  15.868 -1.1889  1.1924  0.6419
 4379TIP3   OH234627   3.028   6.367  15.038  0.0932  0.0238  0.0870
 4379TIP3    H134628   3.007   6.355  15.131 -0.8303  2.0002  0.1907
 4379TIP3    H234629   2.998   6.455  15.018  1.2989  0.0585 -1.8366
 4380TIP3   OH234630   1.528   2.658  11.607 -0.6343 -0.1379 -0.2921
 4380TIP3    H134631   1.538   2.749  11.633 -3.1611 -0.2515  1.4307
 4380TIP3    H234632   1.532   2.659  11.511 -2.4706  2.0849 -0.4167
 4381TIP3   OH234633   0.974   5.034  13.893 -0.5782 -0.1652  0.0414
 4381TIP3    H134634   1.027   5.076  13.825  1.5301 -1.5797  0.7010
 4381TIP3    H234635   0.934   5.107  13.940  1.8437  1.1301  0.2987
 4382TIP3   OH234636   1.556   5.288   0.259 -0.5029  0.0436 -0.0926
 4382TIP3    H134637   1.615   5.217   0.235  1.1205  1.7607 -1.4615
 4382TIP3    H234638   1.595   5.326   0.337 -1.5564 -0.7288  0.8405
 4383TIP3   OH234639   3.753   2.992  13.908 -0.4214 -0.9168 -0.3076
 4383TIP3    H134640   3.782   2.943  13.985 -1.6475  1.2331  1.6557
 4383TIP3    H234641   3.833   3.036  13.877 -0.0159 -1.3889  0.0495
 4384TIP3   OH234642   3.163   1.512  16.885  0.3959 -0.3429  0.2328
 4384TIP3    H134643   3.107   1.435  16.891  0.3708 -0.2543  1.1861
 4384TIP3    H234644   3.115   1.581  16.929  0.0191  0.4838 -1.3755
 4385TIP3   OH234645   5.988   3.114   3.213  0.0481  0.1355  0.4573
 4385TIP3    H134646   6.019   3.079   3.130  0.5876  0.8061  0.3655
 4385TIP3    H234647   5.979   3.208   3.198 -0.8216  0.1320  0.8639
 4386TIP3   OH234648   0.278   5.386   3.934  0.2747 -0.0223 -0.0344
 4386TIP3    H134649   0.272   5.332   4.013 -2.1557 -1.4722 -1.1330
 4386TIP3    H234650   0.293   5.324   3.863  0.7724  1.1104 -0.9498
 4387TIP3   OH234651   2.849   6.518   2.408 -0.4695 -0.3522  0.7295
 4387TIP3    H134652   2.830   6.575   2.482  2.1668 -0.6022  1.6920
 4387TIP3    H234653   2.944   6.520   2.400 -0.5705 -1.5574 -1.7026
 4388TIP3   OH234654   5.900   0.009   0.952  0.0922 -0.3673 -0.5151
 4388TIP3    H134655   5.951   0.056   1.017 -0.4988  0.0038 -0.3115
 4388TIP3    H234656   5.885  -0.077   0.991 -1.3557  0.2731  0.4376
 4389TIP3   OH234657   6.115   1.491   2.463  0.3865  0.0698 -0.5223
 4389TIP3    H134658   6.187   1.534   2.416  1.1396 -0.2061  0.3340
 4389TIP3    H234659   6.149   1.479   2.552 -0.8412  0.2002 -0.0158
 4390TIP3   OH234660   3.465   3.836   4.353  0.5373 -0.6005  0.0955
 4390TIP3    H134661   3.446   3.827   4.260  0.6244  0.9049 -0.0953
 4390TIP3    H234662   3.508   3.754   4.377 -1.3546 -1.8896 -0.6786
 4391TIP3   OH234663   5.987   4.875  15.130  0.5530 -0.3448 -0.3273
 4391TIP3    H134664   5.975   4.791  15.175  0.2224  0.2541  0.7224
 4391TIP3    H234665   6.000   4.938  15.200 -3.3675  1.2513 -0.7900
 4392TIP3   OH234666   3.143   3.194  11.204  0.0197  0.0831  0.1304
 4392TIP3    H134667   3.213   3.135  11.230  0.6653  1.4064  1.5477
 4392TIP3    H234668   3.105   3.225  11.286 -1.1586  0.6613 -0.5939
 4393TIP3   OH234669   1.260   3.068   3.366  0.4953 -0.5937  0.0768
 4393TIP3    H134670   1.310   3.143   3.400  0.4109 -1.2679  1.7934
 4393TIP3    H234671   1.254   3.084   3.272  0.6429  1.4607  0.3589
 4394TIP3   OH234672   2.191   2.425   0.764 -0.0044  0.3958 -0.0253
 4394TIP3    H134673   2.113   2.481   0.762  0.4350  0.9896 -1.3792
 4394TIP3    H234674   2.264   2.486   0.777  0.3105 -0.0917  0.5651
 4395TIP3   OH234675   2.572   6.657  12.172  0.5017 -0.4818  0.1678
 4395TIP3    H134676   2.574   6.732  12.113 -1.8177 -0.1044  0.4598
 4395TIP3    H234677   2.653   6.663  12.222  0.8734  1.2008 -0.5808
 4396TIP3   OH234678   2.764   0.293  12.292 -0.2150 -0.3796 -0.3019
 4396TIP3    H134679   2.709   0.221  12.323 -0.8456  0.4752  0.6610
 4396TIP3    H234680   2.704   0.368  12.287  1.3914  1.5800  4.3808
 4397TIP3   OH234681   4.392   3.626  15.307 -0.3120  0.1774 -0.0138
 4397TIP3    H134682   4.414   3.713  15.339 -2.7253  0.9056 -0.0847
 4397TIP3    H234683   4.429   3.566  15.372  0.9293  1.2658  0.3180
 4398TIP3   OH234684   4.916   6.252   0.550  1.0612 -0.0375 -0.2306
 4398TIP3    H134685   4.880   6.164   0.565  0.0550  0.3594 -0.2356
 4398TIP3    H234686   4.944   6.282   0.637  1.2235 -0.2765 -0.1983
 4399TIP3   OH234687   1.616   3.039   4.516 -0.3178 -0.4545  0.6018
 4399TIP3    H134688   1.577   3.086   4.442 -0.6393 -0.1953  0.9327
 4399TIP3    H234689   1.600   3.095   4.591 -0.4229 -0.9460  0.9481
 4400TIP3   OH234690   3.427   2.668   1.783 -0.0704 -0.2242 -0.2425
 4400TIP3    H134691   3.405   2.575   1.792  0.1407 -0.2958 -0.4718
 4400TIP3    H234692   3.388   2.709   1.860  0.2924 -0.5828  0.1331
 4401TIP3   OH234693   5.389   2.117   2.663 -0.2088  0.3058 -0.0911
 4401TIP3    H134694   5.474   2.161   2.666 -0.0916  0.1269 -0.7457
 4401TIP3    H234695   5.346   2.144   2.745  0.0301  1.2847 -0.2683
 4402TIP3   OH234696   4.679   5.112   5.581  0.1845  0.6544 -0.0208
 4402TIP3    H134697   4.696   5.109   5.487  0.0771  1.1514 -0.0576
 4402TIP3    H234698   4.703   5.200   5.607  0.2568  0.5029  0.4307
 4403TIP3   OH234699   0.969   2.075  11.945  0.6397 -0.7611 -0.0704
 4403TIP3    H134700   0.920   2.046  12.022  0.7453 -0.7349  0.0064
 4403TIP3    H234701   1.058   2.044  11.960  0.5370 -1.2524 -0.4467
 4404TIP3   OH234702   6.363   6.530   3.543 -0.0354  0.0489  0.0391
 4404TIP3    H134703   6.417   6.551   3.619 -0.6795 -0.5787  0.6862
 4404TIP3    H234704   6.424   6.533   3.469  0.9211 -0.7963  0.7659
 4405TIP3   OH234705   0.540   5.245  11.865  0.1481 -0.1495 -0.1452
 4405TIP3    H134706   0.478   5.297  11.814 -0.9347 -0.9200  0.3395
 4405TIP3    H234707   0.614   5.231  11.806 -0.3534  0.3560 -0.9176
 4406TIP3   OH234708   2.068   1.039  12.278  0.1245 -0.1712  0.2856
 4406TIP3    H134709   2.121   1.065  12.202 -0.3559 -1.3065 -0.4589
 4406TIP3    H234710   1.981   1.073  12.260  0.3262  0.8133  1.0377
 4407TIP3   OH234711   6.483   6.396  16.701  0.2499 -0.4246  0.0344
 4407TIP3    H134712   6.394   6.375  16.672 -0.8620  1.8649  1.4643
 4407TIP3    H234713   6.491   6.352  16.786 -0.3728  1.0167  0.8871
 4408TIP3   OH234714   3.480   3.311   5.160 -0.0632  0.5094 -0.8309
 4408TIP3    H134715   3.409   3.374   5.144  0.9661  1.2449 -2.9556
 4408TIP3    H234716   3.508   3.285   5.072  1.7381 -0.4113 -0.0241
 4409TIP3   OH234717   1.906   0.726   4.446 -0.0247 -0.0012 -0.4585
 4409TIP3    H134718   1.835   0.663   4.437 -0.4373  0.2731  0.7007
 4409TIP3    H234719   1.985   0.675   4.431 -0.2660 -1.1279  1.7877
 4410TIP3   OH234720   0.757   2.529  16.693  0.3095  0.2019  0.1185
 4410TIP3    H134721   0.756   2.445  16.648  2.4177  0.4332 -0.4373
 4410TIP3    H234722   0.740   2.507  16.785  0.5302 -0.7967 -0.0731
 4411TIP3   OH234723   5.541   1.678   5.517 -0.5177 -0.1249 -0.2865
 4411TIP3    H134724   5.590   1.642   5.591 -0.5898  0.8278  0.2439
 4411TIP3    H234725   5.450   1.655   5.535 -0.3608 -1.3223 -0.9349
 4412TIP3   OH234726   3.022   0.627   0.179 -0.1041 -0.0217 -0.0823
 4412TIP3    H134727   3.105   0.587   0.206  0.2917  0.8165 -0.0215
 4412TIP3    H234728   2.981   0.655   0.260  0.3757  1.1259 -0.2160
 4413TIP3   OH234729   6.281   0.631   4.437 -0.5095  0.1221  0.3998
 4413TIP3    H134730   6.325   0.704   4.395 -1.3552  0.3676 -0.0877
 4413TIP3    H234731   6.307   0.636   4.529 -0.8620  1.2649  0.4431
 4414TIP3   OH234732   3.823   0.793   3.546 -0.8994  0.5014  0.7967
 4414TIP3    H134733   3.814   0.887   3.528  0.0975  0.5361  0.3891
 4414TIP3    H234734   3.839   0.788   3.640  0.9761  0.9210  0.5410
 4415TIP3   OH234735   2.775   0.022   2.390 -0.4863  0.4727  0.3778
 4415TIP3    H134736   2.686  -0.006   2.408 -1.3252  1.7821 -1.4034
 4415TIP3    H234737   2.766   0.086   2.318  1.7361  1.6495  1.0518
 4416TIP3   OH234738   6.371   6.313  12.868 -0.0150  0.4683 -0.2133
 4416TIP3    H134739   6.302   6.379  12.857  0.0275  0.7562  1.0781
 4416TIP3    H234740   6.416   6.311  12.784 -2.2193 -0.4510 -1.4527
 4417TIP3   OH234741   4.484   5.570  11.959  0.4274  0.0038 -0.6573
 4417TIP3    H134742   4.442   5.526  12.033  0.2517  2.1756  0.5995
 4417TIP3    H234743   4.412   5.609  11.910  0.6305 -0.5032 -1.3800
 4418TIP3   OH234744   3.368   3.437  14.613  0.0343 -0.2725  0.2639
 4418TIP3    H134745   3.415   3.511  14.575  0.4592  0.0584  1.3981
 4418TIP3    H234746   3.381   3.446  14.707 -0.9842 -1.0756  0.5001
 4419TIP3   OH234747   4.057   1.056   6.363 -0.2744 -0.0317  0.5380
 4419TIP3    H134748   3.984   1.114   6.342 -0.9838 -1.2460 -0.4958
 4419TIP3    H234749   4.018   0.969   6.365  0.2357 -0.3534  4.5123
 4420TIP3   OH234750   0.695   5.449  13.841  0.1472  0.1767 -0.1544
 4420TIP3    H134751   0.723   5.524  13.788  0.6425 -1.0006 -1.6355
 4420TIP3    H234752   0.612   5.477  13.878  0.5225  1.6212 -0.3116
 4421TIP3   OH234753   2.320   4.170   1.766 -0.2538  0.3028  0.1289
 4421TIP3    H134754   2.337   4.209   1.851 -0.8020  0.2174  0.2805
 4421TIP3    H234755   2.368   4.226   1.704  1.4278 -0.5056  0.6193
 4422TIP3   OH234756   6.319   0.563  15.293 -0.0869  0.3217  0.3753
 4422TIP3    H134757   6.411   0.546  15.272  0.4726  1.3322  1.8513
 4422TIP3    H234758   6.275   0.480  15.275  1.3593 -0.5972  0.8950
 4423TIP3   OH234759   1.227   0.415   3.695  0.0655 -0.0138 -0.0727
 4423TIP3    H134760   1.217   0.426   3.790  1.3546 -1.7336  0.3096
 4423TIP3    H234761   1.253   0.324   3.684  2.3532  0.7702 -1.8624
 4424TIP3   OH234762   5.992   0.912   5.820 -0.9825  0.3806  0.2405
 4424TIP3    H134763   6.066   0.964   5.851 -0.4630 -0.6746  0.8107
 4424TIP3    H234764   5.940   0.974   5.768  0.0095  1.2740  0.2664
 4425TIP3   OH234765   1.186   0.983  11.050  0.1312  0.0958 -0.3488
 4425TIP3    H134766   1.172   1.003  10.958 -1.3322  4.5472  0.6163
 4425TIP3    H234767   1.278   1.005  11.065  0.7154 -1.7842 -0.8787
 4426TIP3   OH234768   1.046   2.560   4.951 -0.7176  0.0761 -0.0071
 4426TIP3    H134769   1.041   2.555   5.047 -0.3188  0.4105  0.0354
 4426TIP3    H234770   0.961   2.593   4.925 -1.6273 -2.0743  0.0587
 4427TIP3   OH234771   5.254   0.028   5.688  0.0447 -0.2687  0.1207
 4427TIP3    H134772   5.305   0.099   5.650  0.4586 -0.6035  0.0414
 4427TIP3    H234773   5.310  -0.008   5.757  0.3847 -1.3215 -0.6586
 4428TIP3   OH234774   2.101   6.752  12.969 -0.5474  0.1124  0.1102
 4428TIP3    H134775   2.063   6.667  12.944  0.6216 -0.5794  0.5880
 4428TIP3    H234776   2.099   6.751  13.065  1.2213 -0.2304  0.1683
 4429TIP3   OH234777   3.337   1.558  10.772 -0.0639 -0.6656  0.1426
 4429TIP3    H134778   3.368   1.481  10.724 -1.8887 -1.4818  0.1972
 4429TIP3    H234779   3.261   1.588  10.723 -0.0750  0.4091  0.7870
 4430TIP3   OH234780   5.853   2.584  13.946 -0.2142 -0.5905 -0.9002
 4430TIP3    H134781   5.920   2.516  13.950  3.3152  2.5655  1.9177
 4430TIP3    H234782   5.837   2.606  14.038 -3.4832  0.4173 -1.6097
 4431TIP3   OH234783   4.206   6.096   1.473 -0.3071 -0.0623  0.7885
 4431TIP3    H134784   4.186   6.068   1.383  4.3052 -1.1694 -0.1668
 4431TIP3    H234785   4.255   6.177   1.463  1.4749 -0.9034  2.1113
 4432TIP3   OH234786   1.620   0.042  15.155  0.3425  0.3839 -0.2001
 4432TIP3    H134787   1.575  -0.017  15.216 -1.5330 -0.0430 -1.8945
 4432TIP3    H234788   1.608   0.129  15.192 -2.3807  0.3480 -0.7873
 4433TIP3   OH234789   2.388   5.593   5.843  0.2816  0.1552 -0.8797
 4433TIP3    H134790   2.427   5.680   5.842  0.4602  0.0802 -0.3060
 4433TIP3    H234791   2.381   5.570   5.936 -0.7756  0.0149 -0.9832
 4434TIP3   OH234792   1.368   2.502  13.410 -0.3480 -0.2051  0.1000
 4434TIP3    H134793   1.413   2.586  13.401 -1.1039  0.3305  1.0685
 4434TIP3    H234794   1.437   2.436  13.397  0.2820  0.5577 -0.5100
 4435TIP3   OH234795   2.737   3.155   4.016  0.0053  0.1582 -0.3910
 4435TIP3    H134796   2.657   3.117   4.052  0.4937 -1.7588 -1.1806
 4435TIP3    H234797   2.722   3.249   4.016 -1.3861 -0.0124  1.4652
 4436TIP3   OH234798   4.008   3.279  15.213 -0.3309  0.0285 -0.3326
 4436TIP3    H134799   4.007   3.186  15.193 -0.1199 -0.1416  0.4180
 4436TIP3    H234800   4.080   3.290  15.276 -0.8729  0.5540  0.2172
 4437TIP3   OH234801   6.406   4.377   5.403  0.1649 -0.6889  0.4569
 4437TIP3    H134802   6.351   4.389   5.481 -1.2001  1.3410 -0.7236
 4437TIP3    H234803   6.343   4.357   5.333  1.0844  0.2002 -0.6430
 4438TIP3   OH234804   5.501   3.061   0.273  0.2452 -0.3329  0.1618
 4438TIP3    H134805   5.534   3.020   0.353  1.2636 -1.4744 -0.8209
 4438TIP3    H234806   5.578   3.102   0.233  0.0206 -0.9552 -0.9340
 4439TIP3   OH234807   0.544   2.589   3.344 -0.0096 -0.1569 -0.0728
 4439TIP3    H134808   0.481   2.554   3.407 -0.5382 -0.3948 -0.7229
 4439TIP3    H234809   0.570   2.674   3.381 -0.2013 -0.3581  0.5340
 4440TIP3   OH234810   6.803   6.061  16.974  0.2407  0.5467 -0.6032
 4440TIP3    H134811   6.893   6.036  16.995  0.9111  2.6014 -0.8467
 4440TIP3    H234812   6.771   5.988  16.920  1.8685 -0.0572 -0.8204
 4441TIP3   OH234813   5.265   3.496  14.143  0.0996 -0.6559  0.0782
 4441TIP3    H134814   5.270   3.592  14.139  2.2083 -0.7476 -2.3923
 4441TIP3    H234815   5.206   3.478  14.216  0.0911  2.5057  1.0070
 4442TIP3   OH234816   4.104   6.188   4.270  0.1317  0.0269  0.0860
 4442TIP3    H134817   4.184   6.157   4.228  0.8955  0.6715  1.0300
 4442TIP3    H234818   4.045   6.208   4.197 -0.3358 -3.2520 -0.6263
 4443TIP3   OH234819   4.452   1.400  10.483  0.5033  0.1318 -0.1868
 4443TIP3    H134820   4.460   1.471  10.420  0.1815 -0.2748 -0.6955
 4443TIP3    H234821   4.523   1.415  10.546  1.4674 -0.0301 -1.2101
 4444TIP3   OH234822   6.055   0.370   1.024 -0.4566 -0.1861  0.0553
 4444TIP3    H134823   6.109   0.335   0.954  1.8203  1.4181  0.8677
 4444TIP3    H234824   5.977   0.404   0.980  0.5924  0.1628 -1.6232
 4445TIP3   OH234825   3.321   5.862   4.229  0.2836  0.2736  0.0389
 4445TIP3    H134826   3.295   5.946   4.265  1.1625  0.4517  0.2644
 4445TIP3    H234827   3.339   5.880   4.136 -2.3796 -0.2650 -0.6617
 4446TIP3   OH234828   2.013   3.714   1.014 -0.1437  0.6255  0.1757
 4446TIP3    H134829   2.097   3.754   0.992  0.9282 -1.9737 -0.8071
 4446TIP3    H234830   2.036   3.638   1.066 -1.9412  0.1342  0.2974
 4447TIP3   OH234831   0.466   5.162   5.167 -0.2204 -0.2526  0.4608
 4447TIP3    H134832   0.388   5.160   5.223 -0.4507 -0.6800  0.1294
 4447TIP3    H234833   0.540   5.156   5.227 -0.4734 -1.2509  0.6865
 4448TIP3   OH234834   5.954   2.463  11.419  0.1713 -0.4745 -0.0421
 4448TIP3    H134835   5.907   2.421  11.346  2.5406 -1.5450 -1.0745
 4448TIP3    H234836   5.935   2.556  11.410 -1.8760 -0.8729 -0.2585
 4449TIP3   OH234837   6.254   1.870   2.598  0.0149  0.7798  0.3718
 4449TIP3    H134838   6.219   1.959   2.589  0.1760  0.6853 -1.5293
 4449TIP3    H234839   6.326   1.866   2.535  0.1751 -0.6250  0.6203
 4450TIP3   OH234840   0.199   3.271  16.712  0.0700 -0.5346 -0.2624
 4450TIP3    H134841   0.200   3.185  16.754  0.1544 -1.4239 -1.9671
 4450TIP3    H234842   0.271   3.267  16.648  1.1082  1.3930  0.6849
 4451TIP3   OH234843   0.611   6.035   1.719 -0.5241 -0.4451  0.7491
 4451TIP3    H134844   0.600   6.013   1.627 -2.1780  1.4227  0.4373
 4451TIP3    H234845   0.531   6.083   1.742  0.6144  0.6546  2.6979
 4452TIP3   OH234846   0.758   3.162   4.276  0.3520  0.2648  0.8649
 4452TIP3    H134847   0.789   3.231   4.334 -0.2392  0.7050  0.6642
 4452TIP3    H234848   0.678   3.197   4.237  0.6695 -0.0611 -0.1291
 4453TIP3   OH234849   5.917   1.258   2.338 -0.1653  0.1182 -0.1141
 4453TIP3    H134850   5.993   1.217   2.297 -0.5551 -0.5805 -0.1558
 4453TIP3    H234851   5.845   1.198   2.319 -0.9464  1.2931 -0.9989
 4454TIP3   OH234852   1.526   3.736   6.571 -0.1901 -0.0477 -0.0769
 4454TIP3    H134853   1.595   3.685   6.613  1.6718  1.5348 -1.0475
 4454TIP3    H234854   1.497   3.682   6.498  1.8305  0.2174 -1.1612
 4455TIP3   OH234855   6.651   6.140  12.085  0.1291 -0.0631 -0.1996
 4455TIP3    H134856   6.668   6.089  12.164  1.2138 -0.9590 -0.9904
 4455TIP3    H234857   6.647   6.230  12.116 -1.2103 -0.5296  1.1332
 4456TIP3   OH234858   2.182   6.711  14.232 -0.2953  0.0361 -0.5452
 4456TIP3    H134859   2.128   6.790  14.228 -0.5937 -0.1050  0.4661
 4456TIP3    H234860   2.271   6.742  14.220 -0.4225  0.5097 -0.2924
 4457TIP3   OH234861   5.028   2.046   4.479  0.1942  0.5525 -1.0352
 4457TIP3    H134862   5.006   2.120   4.422  0.9000  2.5776  1.1602
 4457TIP3    H234863   4.971   2.057   4.555  1.7012  0.0083  0.2216
 4458TIP3   OH234864   0.577   1.871  16.721 -0.4501  0.3244  0.2355
 4458TIP3    H134865   0.526   1.807  16.671 -1.4206  1.2140  0.0681
 4458TIP3    H234866   0.666   1.862  16.688 -0.4202 -1.4053  0.6821
 4459TIP3   OH234867   4.827   2.905  15.492  0.4997 -0.1269  0.2699
 4459TIP3    H134868   4.819   3.001  15.489 -0.1981 -0.2027 -0.5443
 4459TIP3    H234869   4.742   2.876  15.524 -0.2544 -0.6060 -2.0321
 4460TIP3   OH234870   1.369   3.891   3.258 -0.5676  0.4915 -0.1399
 4460TIP3    H134871   1.325   3.806   3.251 -1.2260  0.7506  0.5771
 4460TIP3    H234872   1.307   3.953   3.219  0.3173  0.5315 -1.5175
 4461TIP3   OH234873   6.677   5.598   1.657 -0.3842 -0.1326  0.0583
 4461TIP3    H134874   6.739   5.546   1.708  0.4228 -0.6733 -1.3834
 4461TIP3    H234875   6.611   5.627   1.720  0.8458 -0.2958  1.4757
 4462TIP3   OH234876   6.300   3.253  13.384  0.1286 -0.1303 -0.7144
 4462TIP3    H134877   6.369   3.230  13.447  0.8231 -0.4998 -1.5849
 4462TIP3    H234878   6.259   3.331  13.422  1.7689  0.7867 -0.7092
 4463TIP3   OH234879   6.419   2.651   5.022  0.3063  0.6174  0.0462
 4463TIP3    H134880   6.338   2.612   5.055  0.3207  0.6457  0.1150
 4463TIP3    H234881   6.465   2.680   5.100  1.5498 -1.6254  0.2569
 4464TIP3   OH234882   4.308   0.375   2.136 -0.2220 -0.1106  0.0763
 4464TIP3    H134883   4.291   0.376   2.230  1.2076  0.2826  0.3601
 4464TIP3    H234884   4.305   0.467   2.110 -0.7316 -0.2274 -0.3023
 4465TIP3   OH234885   3.956   3.143  13.730  0.1241  0.3358  0.5055
 4465TIP3    H134886   4.026   3.195  13.769  1.4402  0.5455 -1.9780
 4465TIP3    H234887   3.996   3.100  13.655 -2.4657  0.7575 -1.2597
 4466TIP3   OH234888   4.670   4.453   5.569  0.1387  0.5800  0.1557
 4466TIP3    H134889   4.750   4.437   5.519  0.8695  4.5869 -0.3294
 4466TIP3    H234890   4.605   4.394   5.531  2.0433 -0.4370 -1.7106
 4467TIP3   OH234891   0.760   3.300  16.298 -0.7854  0.1954  0.4972
 4467TIP3    H134892   0.682   3.332  16.251 -1.9753 -1.3412  1.3307
 4467TIP3    H234893   0.740   3.316  16.390  0.0878  0.1841  0.6925
 4468TIP3   OH234894   5.301   5.778  12.333 -0.5879 -0.1329 -0.4928
 4468TIP3    H134895   5.278   5.861  12.374 -0.6797  0.0836 -0.9786
 4468TIP3    H234896   5.255   5.712  12.385 -0.8159  0.1472 -0.3353
 4469TIP3   OH234897   4.851   1.136  16.079 -0.0101 -0.0949  0.4825
 4469TIP3    H134898   4.869   1.160  16.170  1.1276  1.4811 -0.1118
 4469TIP3    H234899   4.772   1.083  16.084  0.4713 -0.7342  2.4626
 4470TIP3   OH234900   3.514   0.630  15.176 -0.4271  0.4995 -0.4364
 4470TIP3    H134901   3.536   0.707  15.124 -0.1945 -0.0004 -1.0918
 4470TIP3    H234902   3.438   0.592  15.132 -0.4067  0.2356 -0.2464
 4471TIP3   OH234903   0.508   1.436  17.005  0.1151 -0.2589 -0.3846
 4471TIP3    H134904   0.436   1.467  17.059 -2.0642 -1.1811 -2.5455
 4471TIP3    H234905   0.500   1.340  17.007  0.4164 -0.3372 -1.7179
 4472TIP3   OH234906   1.160   0.210  10.980 -0.5293 -1.0311  0.2846
 4472TIP3    H134907   1.198   0.152  10.914  0.5713  0.2308 -0.2244
 4472TIP3    H234908   1.116   0.278  10.929 -1.2739 -1.0484  0.8803
 4473TIP3   OH234909   2.118   2.538  12.921  0.1527  0.0545 -0.7451
 4473TIP3    H134910   2.154   2.603  12.861  1.9813  0.0739  0.2734
 4473TIP3    H234911   2.038   2.577  12.955 -0.0050  0.7543 -1.8874
 4474TIP3   OH234912   1.059   0.630   2.688 -0.3515  0.1267 -0.5197
 4474TIP3    H134913   0.988   0.687   2.660 -1.5324 -1.2547 -0.4622
 4474TIP3    H234914   1.018   0.545   2.702  0.0907  0.4230  4.8447
 4475TIP3   OH234915   3.697   6.305  11.019  0.3347 -0.7108  0.0376
 4475TIP3    H134916   3.695   6.240  10.949 -0.3982  0.4016 -1.0121
 4475TIP3    H234917   3.679   6.255  11.099 -2.0156 -1.5790 -0.9451
 4476TIP3   OH234918   4.851   2.211   3.676  0.1458 -0.3314 -0.3367
 4476TIP3    H134919   4.842   2.294   3.630 -0.6134  0.9295  1.9546
 4476TIP3    H234920   4.942   2.211   3.707 -0.5714  0.9132  1.8836
 4477TIP3   OH234921   0.428   3.699   3.897  0.1544  0.0422  0.1770
 4477TIP3    H134922   0.474   3.636   3.840  0.3803  0.7176 -0.4024
 4477TIP3    H234923   0.365   3.645   3.945  1.9368 -1.0135  1.4551
 4478TIP3   OH234924   0.342   0.684  15.942 -0.0830  0.4426 -0.5544
 4478TIP3    H134925   0.375   0.633  15.868  0.4574  1.8681 -1.3279
 4478TIP3    H234926   0.274   0.739  15.905 -2.0446 -1.0443  0.6501
 4479TIP3   OH234927   5.026   4.261  13.145 -0.0231  0.5960  0.0698
 4479TIP3    H134928   5.030   4.193  13.212 -0.5020  0.1988 -0.2962
 4479TIP3    H234929   4.939   4.252  13.107 -0.3367  1.8377  0.4483
 4480TIP3   OH234930   5.200   2.733   1.338  0.0675 -0.2749 -0.5332
 4480TIP3    H134931   5.214   2.673   1.264  2.2920 -1.7693  0.9614
 4480TIP3    H234932   5.255   2.697   1.408 -1.1341  1.6730  1.5253
 4481TIP3   OH234933   6.512   6.675  17.062 -0.1987 -0.3282 -0.4949
 4481TIP3    H134934   6.577   6.682  16.992 -0.4901 -3.0916 -1.1274
 4481TIP3    H234935   6.431   6.649  17.018 -1.4424  1.6093  0.4672
 4482TIP3   OH234936   1.719   0.467  15.264 -0.1918  0.0733 -0.2241
 4482TIP3    H134937   1.759   0.483  15.179 -0.0615  0.1630 -0.1458
 4482TIP3    H234938   1.779   0.506  15.327 -0.5905  0.5479 -0.1323
 4483TIP3   OH234939   0.783   4.009   3.186  0.1239  0.0866  0.2765
 4483TIP3    H134940   0.808   3.917   3.201 -0.2329 -0.3633 -1.6594
 4483TIP3    H234941   0.723   4.006   3.112  1.2057  2.0129 -0.7603
 4484TIP3   OH234942   3.947   5.890  14.949  0.1486 -0.0328 -0.0159
 4484TIP3    H134943   3.942   5.872  15.043  2.9542  0.7054  0.3690
 4484TIP3    H234944   3.902   5.974  14.939  1.4290  0.8162  1.0286
 4485TIP3   OH234945   3.470   6.042  16.656  0.1409  0.3186  0.4272
 4485TIP3    H134946   3.422   6.003  16.729 -1.3109  0.3031 -0.4849
 4485TIP3    H234947   3.428   6.006  16.578  3.3192 -1.7293 -0.5143
 4486TIP3   OH234948   2.962   4.941   2.850  0.0658  0.3489 -0.2542
 4486TIP3    H134949   2.886   4.941   2.793  1.2271 -0.7714 -1.8733
 4486TIP3    H234950   2.935   4.890   2.927 -0.2446 -1.8066 -1.7029
 4487TIP3   OH234951   0.454   2.929  12.960 -0.3747 -0.5128 -0.0321
 4487TIP3    H134952   0.521   2.871  12.996 -0.3924 -0.2922  0.3621
 4487TIP3    H234953   0.405   2.960  13.036 -1.6977 -1.6114 -0.4024
 4488TIP3   OH234954   2.809   4.490  12.307  0.4660 -0.2250 -0.0866
 4488TIP3    H134955   2.808   4.484  12.403  0.2924 -2.3134 -0.1831
 4488TIP3    H234956   2.736   4.437  12.278  0.7565  0.0515 -1.4127
 4489TIP3   OH234957   4.749   4.103  11.345 -0.6933  0.2301 -0.5581
 4489TIP3    H134958   4.767   4.148  11.262 -2.0563  0.4572 -0.7544
 4489TIP3    H234959   4.789   4.016  11.334 -0.6920  0.3264 -1.3811
 4490TIP3   OH234960   2.722   4.583   2.868 -0.0036 -0.1827  0.4446
 4490TIP3    H134961   2.703   4.674   2.848 -0.7851 -0.5409 -0.5341
 4490TIP3    H234962   2.817   4.575   2.853 -0.2733 -0.0313 -1.6678
 4491TIP3   OH234963   5.247   5.128  12.982  0.0440  0.4919  0.6088
 4491TIP3    H134964   5.309   5.151  12.913 -0.6346  0.6352  0.0368
 4491TIP3    H234965   5.164   5.116  12.937 -0.3339  0.2165  1.3550
 4492TIP3   OH234966   2.633   2.909  16.480 -0.1736 -0.6058 -0.8261
 4492TIP3    H134967   2.638   2.950  16.567  0.2527 -0.4078 -0.9395
 4492TIP3    H234968   2.540   2.909  16.459 -0.2370 -0.2354 -0.5639
 4493TIP3   OH234969   1.581   3.298  11.637  0.4788  0.2548  0.0045
 4493TIP3    H134970   1.562   3.238  11.709  0.1783 -0.2725 -0.4990
 4493TIP3    H234971   1.496   3.318  11.599  0.4604  1.8379  0.7913
 4494TIP3   OH234972   4.698   3.530   4.325 -0.0575 -0.0075  0.0489
 4494TIP3    H134973   4.744   3.503   4.245  0.9915 -1.4485  1.0707
 4494TIP3    H234974   4.719   3.623   4.334  0.3818  0.0136 -0.9771
 4495TIP3   OH234975   4.026   6.843  11.261 -0.4630 -0.0805  0.1591
 4495TIP3    H134976   3.985   6.892  11.190 -1.4251 -0.0875  0.6904
 4495TIP3    H234977   3.959   6.839  11.329  0.4139 -0.1188  1.0507
 4496TIP3   OH234978   4.816   2.751   2.875 -0.2395  0.4769  0.2668
 4496TIP3    H134979   4.731   2.745   2.919  0.3337 -1.1566  1.2410
 4496TIP3    H234980   4.796   2.790   2.790 -2.4241 -2.1882 -0.5996
 4497TIP3   OH234981   4.269   5.236   1.201  0.5529  0.1183  0.5209
 4497TIP3    H134982   4.251   5.166   1.264  0.4161  0.7420  1.1866
 4497TIP3    H234983   4.364   5.236   1.192  0.5112 -0.6509 -0.0773
 4498TIP3   OH234984   4.515   1.897  11.151  0.6275 -0.0328  0.8287
 4498TIP3    H134985   4.451   1.845  11.198  0.0245 -0.0886 -0.0275
 4498TIP3    H234986   4.463   1.963  11.105  1.0304 -0.8479 -0.8855
 4499TIP3   OH234987   2.665   3.508   6.122  0.2690 -0.0919 -0.0466
 4499TIP3    H134988   2.656   3.462   6.038  0.4513 -0.1937 -0.0093
 4499TIP3    H234989   2.575   3.531   6.145  0.1628 -0.5105 -0.0226
 4500TIP3   OH234990   2.693   0.777   4.733  0.0087  0.2882  0.2379
 4500TIP3    H134991   2.750   0.755   4.806  0.9404  0.3701 -0.4393
 4500TIP3    H234992   2.671   0.693   4.693 -3.1834 -0.0939  2.4818
 4501TIP3   OH234993   1.744   3.381  16.268  0.5634  0.1365  0.3537
 4501TIP3    H134994   1.667   3.426  16.303 -0.4961  0.2953 -2.0066
 4501TIP3    H234995   1.716   3.291  16.256  0.2828  0.4389 -1.6253
 4502TIP3   OH234996   3.124   2.086   4.305 -0.3885 -0.1098  0.1187
 4502TIP3    H134997   3.128   2.123   4.393 -0.2213 -0.1432  0.1244
 4502TIP3    H234998   3.038   2.044   4.302 -0.0052 -0.9624  0.6136
 4503TIP3   OH234999   5.933   1.130  11.713 -0.2526  0.2386 -0.3198
 4503TIP3    H135000   5.936   1.037  11.739 -0.4812  0.6310  1.2095
 4503TIP3    H235001   5.934   1.128  11.617 -2.5480 -1.4394 -0.3999
 4504TIP3   OH235002   6.423   0.278   1.959 -0.9374  0.3810  0.3972
 4504TIP3    H135003   6.429   0.338   1.884 -0.2067  0.8269  0.8022
 4504TIP3    H235004   6.472   0.322   2.028  0.0232 -0.9193  0.5607
 4505TIP3   OH235005   4.527   3.713   2.459  0.0048  0.2910 -0.3175
 4505TIP3    H135006   4.432   3.707   2.466  0.0129 -0.3662 -0.6573
 4505TIP3    H235007   4.559   3.700   2.548 -0.1748 -0.7481 -0.3955
 4506TIP3   OH235008   4.691   6.343  15.272  0.5839  0.1352 -0.4005
 4506TIP3    H135009   4.735   6.424  15.299  2.8355 -0.9827 -0.4981
 4506TIP3    H235010   4.724   6.326  15.184  0.9617 -1.4218  0.0087
 4507TIP3   OH235011   0.216   3.280   2.781  0.7947  0.2178 -0.6770
 4507TIP3    H135012   0.175   3.362   2.807 -2.3376 -1.7597  1.3676
 4507TIP3    H235013   0.276   3.260   2.853  0.2795 -0.0764 -0.3251
 4508TIP3   OH235014   3.264   6.239  13.760 -0.4624  0.0813  0.6267
 4508TIP3    H135015   3.184   6.200  13.793 -2.1611  1.1707 -1.8617
 4508TIP3    H235016   3.235   6.298  13.691  2.4408  1.2245  0.2332
 4509TIP3   OH235017   5.935   6.665  14.982  0.2578 -0.3619  0.0576
 4509TIP3    H135018   6.001   6.642  14.917 -1.3809  0.1944 -1.9025
 4509TIP3    H235019   5.986   6.692  15.059  2.3074 -0.1300 -1.2938
 4510TIP3   OH235020   4.750   6.250  15.002  0.4939 -0.0752  0.1544
 4510TIP3    H135021   4.748   6.154  15.008  0.7058 -0.0512  0.5962
 4510TIP3    H235022   4.671   6.272  14.951  0.9107 -0.5372 -0.7157
 4511TIP3   OH235023   0.219   2.166  13.102  0.0269 -0.1887 -0.0999
 4511TIP3    H135024   0.294   2.143  13.158 -0.6374 -0.8915  0.5404
 4511TIP3    H235025   0.166   2.086  13.100 -0.0204 -0.1444 -1.6713
 4512TIP3   OH235026   6.853   5.487   1.843  0.5762 -0.6844  0.1378
 4512TIP3    H135027   6.937   5.524   1.819  2.5359 -3.9143  1.3798
 4512TIP3    H235028   6.860   5.470   1.937 -2.0003  0.1526  0.5614
 4513TIP3   OH235029   4.239   6.403   5.551 -0.4039  0.6162 -0.2010
 4513TIP3    H135030   4.225   6.393   5.457  0.7750  3.2622 -0.7570
 4513TIP3    H235031   4.281   6.489   5.560 -0.5756  0.4963  2.7634
 4514TIP3   OH235032   4.108   4.233  16.590  0.4397  0.0167  0.0768
 4514TIP3    H135033   4.170   4.276  16.649 -2.5548  1.5577  2.3866
 4514TIP3    H235034   4.070   4.162  16.642 -2.2409  1.3772  0.1586
 4515TIP3   OH235035   5.746   1.185  14.569  0.1940  0.1375  0.7368
 4515TIP3    H135036   5.791   1.116  14.616  0.3776  1.5508  2.7650
 4515TIP3    H235037   5.742   1.258  14.631 -0.9054  1.5961 -0.9414
 4516TIP3   OH235038   5.405   0.688  16.082  0.8049  0.2936 -0.2004
 4516TIP3    H135039   5.369   0.653  16.000  1.6088  0.1707 -0.5128
 4516TIP3    H235040   5.500   0.688  16.068  0.9436  0.3654  0.7009
 4517TIP3   OH235041   1.511   5.758  16.210  0.2227  0.3555  0.3884
 4517TIP3    H135042   1.599   5.780  16.180  0.2890  1.1536  1.1335
 4517TIP3    H235043   1.453   5.806  16.152  0.3296  1.1543  0.9251
 4518TIP3   OH235044   1.920   4.611  16.899  0.9734  0.1839 -0.4529
 4518TIP3    H135045   1.880   4.696  16.918  1.2842  0.4121 -0.7951
 4518TIP3    H235046   1.855   4.547  16.927 -0.5003  0.5352 -2.7880
 4519TIP3   OH235047   0.292   6.677  14.224 -0.0895 -0.2050  0.2891
 4519TIP3    H135048   0.328   6.643  14.142 -1.7432  1.2539 -1.1096
 4519TIP3    H235049   0.332   6.763  14.234 -0.7487  0.0865  0.4268
 4520TIP3   OH235050   2.755   1.799  13.326  0.2043 -0.1031 -0.0506
 4520TIP3    H135051   2.755   1.869  13.261  2.4588  0.3782  0.3881
 4520TIP3    H235052   2.663   1.788  13.350 -0.6638 -0.0198 -2.9895
 4521TIP3   OH235053   2.281   0.903   4.480 -0.2609 -0.5552  0.2540
 4521TIP3    H135054   2.233   0.876   4.402  0.0233  0.8220 -0.4475
 4521TIP3    H235055   2.359   0.848   4.480 -0.2073 -0.5031 -0.5278
 4522TIP3   OH235056   5.515   3.611  16.916  0.1196 -0.5525 -0.0092
 4522TIP3    H135057   5.546   3.555  16.987 -2.6329 -0.0431  1.7475
 4522TIP3    H235058   5.421   3.621  16.932 -0.7183 -0.6160 -3.9426
 4523TIP3   OH235059   0.666   0.360   4.146  0.4439 -0.2508  0.8273
 4523TIP3    H135060   0.732   0.429   4.137  1.0736 -0.6920  1.9054
 4523TIP3    H235061   0.600   0.397   4.204  1.4008 -0.9544  2.4342
 4524TIP3   OH235062   1.689   0.388  12.623  0.9274  0.5128 -0.1490
 4524TIP3    H135063   1.769   0.424  12.662  0.3004  0.6561  1.0527
 4524TIP3    H235064   1.670   0.446  12.549  2.9709 -0.6257 -1.6927
 4525TIP3   OH235065   3.286   0.828   3.731  0.6335 -0.2287 -0.0742
 4525TIP3    H135066   3.310   0.847   3.822  0.5509 -2.2406  0.4209
 4525TIP3    H235067   3.362   0.855   3.680 -0.2369  3.3168  0.1963
 4526TIP3   OH235068   4.433   3.071  10.877 -0.2159 -0.6626 -0.5534
 4526TIP3    H135069   4.381   2.995  10.903  0.7687 -1.1431  0.0793
 4526TIP3    H235070   4.477   3.043  10.797  1.3796 -1.3705  0.5261
 4527TIP3   OH235071   5.260   0.171  13.405  0.2106  0.2795 -0.1968
 4527TIP3    H135072   5.223   0.259  13.413  1.3157  0.7355  0.1823
 4527TIP3    H235073   5.194   0.121  13.357 -0.8793  1.0361  0.4648
 4528TIP3   OH235074   6.585   5.351   3.554 -0.3289 -0.1061  0.3511
 4528TIP3    H135075   6.639   5.398   3.491  1.5453 -1.9129  0.4809
 4528TIP3    H235076   6.625   5.371   3.639  0.0412 -1.2943  0.4765
 4529TIP3   OH235077   6.803   3.936   3.345  0.7793  0.3179  0.2911
 4529TIP3    H135078   6.887   3.889   3.348  0.1411 -0.8399  0.8167
 4529TIP3    H235079   6.783   3.954   3.437 -0.2138 -0.6921  0.2997
 4530TIP3   OH235080   2.468   5.035  16.085 -0.5542  0.6191  0.5500
 4530TIP3    H135081   2.389   5.077  16.051  0.1227  1.1871 -0.3731
 4530TIP3    H235082   2.464   5.049  16.180 -0.9307  1.7732  0.3772
 4531TIP3   OH235083   3.736   5.639   2.672  0.4497 -0.1929 -0.7399
 4531TIP3    H135084   3.756   5.546   2.667  1.1923 -0.0423 -0.6873
 4531TIP3    H235085   3.802   5.674   2.732  0.2833  0.3944 -0.8957
 4532TIP3   OH235086   2.033   5.772   3.090 -0.1619  0.0477 -0.1909
 4532TIP3    H135087   2.118   5.771   3.135 -1.5362 -2.7116  2.6636
 4532TIP3    H235088   1.983   5.839   3.136 -0.2898  0.0209 -0.2922
 4533TIP3   OH235089   6.575   4.882   4.537 -0.3115 -0.5415  0.0104
 4533TIP3    H135090   6.610   4.903   4.623  0.9709  2.7244 -1.1259
 4533TIP3    H235091   6.481   4.871   4.551 -0.1785  0.3046  1.7774
 4534TIP3   OH235092   4.086   6.314  10.766  0.0238  0.4677  0.2963
 4534TIP3    H135093   4.065   6.354  10.851  0.6162 -0.5733  0.9434
 4534TIP3    H235094   4.029   6.237  10.761 -2.1699  2.0536 -1.5822
 4535TIP3   OH235095   5.502   1.639  11.032  0.1866 -0.3222 -0.2623
 4535TIP3    H135096   5.557   1.662  10.956  1.4479 -0.6487  0.5191
 4535TIP3    H235097   5.419   1.610  10.993  0.3498  0.7076 -1.4631
 4536TIP3   OH235098   1.937   5.145   2.065  0.5408 -0.5799  0.0383
 4536TIP3    H135099   2.015   5.114   2.020  1.1022  0.5770  0.1577
 4536TIP3    H235100   1.874   5.074   2.057  1.2985 -1.1731 -0.8533
 4537TIP3   OH235101   2.984   2.321   0.258  0.3720  0.7506  0.2212
 4537TIP3    H135102   3.023   2.356   0.178  0.6271  0.3250  0.1562
 4537TIP3    H235103   3.045   2.347   0.327 -0.1164  1.5778  0.3593
 4538TIP3   OH235104   5.442   1.477  11.323  0.5470  0.1225 -0.0016
 4538TIP3    H135105   5.476   1.388  11.311 -0.2640 -0.3170  0.8229
 4538TIP3    H235106   5.485   1.528  11.255  0.2813 -1.0972 -1.1351
 4539TIP3   OH235107   6.615   5.121   0.765  0.2884 -0.1521 -0.0370
 4539TIP3    H135108   6.566   5.041   0.784 -0.1335  0.1321  0.0976
 4539TIP3    H235109   6.689   5.119   0.826  1.9346 -1.8500 -1.9259
 4540TIP3   OH235110   3.659   2.243   0.870  0.1168 -0.3725 -0.3805
 4540TIP3    H135111   3.574   2.286   0.860 -0.4326 -1.4963 -0.6903
 4540TIP3    H235112   3.680   2.254   0.962  0.0453  0.6445 -0.4724
 4541TIP3   OH235113   5.904   5.683   4.170 -0.4538 -0.0423 -0.1280
 4541TIP3    H135114   5.894   5.636   4.087  0.6556  0.0673 -0.3353
 4541TIP3    H235115   5.828   5.742   4.173  0.0716  0.7745 -1.6169
 4542TIP3   OH235116   5.835   5.408  11.693  0.3311  0.8976  0.3917
 4542TIP3    H135117   5.760   5.466  11.705 -0.7353 -0.3145 -0.2174
 4542TIP3    H235118   5.876   5.439  11.612  1.3162  2.3949  1.4032
 4543TIP3   OH235119   5.223   0.638  15.207 -0.2380 -0.0006  0.2738
 4543TIP3    H135120   5.248   0.650  15.299  4.4495 -1.5352 -0.5223
 4543TIP3    H235121   5.211   0.543  15.198 -0.4243  0.1193 -0.7601
 4544TIP3   OH235122   1.626   4.485  14.185  0.0899  0.0198  0.7265
 4544TIP3    H135123   1.698   4.477  14.247  1.2006 -1.4242 -0.6631
 4544TIP3    H235124   1.564   4.545  14.227  2.0593  1.2759  2.0079
 4545TIP3   OH235125   5.361   3.094  14.282  0.3286  0.1988  1.0144
 4545TIP3    H135126   5.427   3.153  14.247 -1.6833  1.2047 -1.4076
 4545TIP3    H235127   5.325   3.050  14.204 -1.9024 -0.2188  2.2058
 4546TIP3   OH235128   0.167   3.610  14.937  0.2214 -0.5465 -0.5201
 4546TIP3    H135129   0.094   3.584  14.993 -0.1736  0.3797 -0.5807
 4546TIP3    H235130   0.130   3.678  14.880  1.5056  1.1565  0.5574
 4547TIP3   OH235131   6.535   0.951   1.681  0.8553  0.2921 -0.1070
 4547TIP3    H135132   6.580   1.027   1.645 -0.4453  1.6971  1.0894
 4547TIP3    H235133   6.533   0.967   1.776  0.9975 -1.4959  0.2347
 4548TIP3   OH235134   3.977   5.792  15.219  0.0215  0.1295 -0.3242
 4548TIP3    H135135   3.959   5.787  15.312 -1.5016 -2.3184 -0.6687
 4548TIP3    H235136   4.073   5.799  15.213  0.1283  0.4287  1.3721
 4549TIP3   OH235137   2.748   6.675  10.337 -0.2661 -0.0162  0.3353
 4549TIP3    H135138   2.792   6.753  10.303  2.4472 -2.1122 -1.4924
 4549TIP3    H235139   2.684   6.652  10.269  1.5537 -1.3367 -1.0363
 4550TIP3   OH235140   2.915   3.328   3.549 -0.8128  0.1862  0.3154
 4550TIP3    H135141   2.907   3.308   3.456  1.4796  1.6688 -0.2722
 4550TIP3    H235142   2.850   3.396   3.565  0.0001  1.2422 -0.6858
 4551TIP3   OH235143   3.453   6.028  15.447  0.5213  0.1828 -0.5736
 4551TIP3    H135144   3.451   6.060  15.537  1.6171  0.3997 -0.6017
 4551TIP3    H235145   3.522   6.080  15.406 -0.0483  0.1680 -1.5743
 4552TIP3   OH235146   1.947   0.975  11.608  0.2168 -0.0421 -0.4039
 4552TIP3    H135147   1.872   1.017  11.565  0.1486 -1.0888 -1.3661
 4552TIP3    H235148   2.020   0.991  11.548  0.6707  0.5489  0.2896
 4553TIP3   OH235149   6.100   2.103  16.408  0.1225  0.4588  0.6240
 4553TIP3    H135150   6.194   2.104  16.388 -0.2105  0.6500 -1.0600
 4553TIP3    H235151   6.085   2.184  16.457  1.2352 -0.7379  3.1524
 4554TIP3   OH235152   6.458   0.958  12.788 -0.5947  0.3229  0.1382
 4554TIP3    H135153   6.486   0.928  12.702 -2.4123  0.1265 -0.4110
 4554TIP3    H235154   6.487   0.889  12.848 -2.4322 -1.3444 -0.7814
 4555TIP3   OH235155   1.851   6.683   0.182  0.1343 -0.5906  0.7946
 4555TIP3    H135156   1.878   6.769   0.149  0.8250 -0.8334  0.7152
 4555TIP3    H235157   1.913   6.622   0.144 -0.4120 -1.1475  0.7735
 4556TIP3   OH235158   2.540   2.272  15.567 -0.6224  0.3835  0.6846
 4556TIP3    H135159   2.473   2.209  15.542 -0.0836 -0.0756  0.3890
 4556TIP3    H235160   2.493   2.337  15.619 -1.1877 -0.2383  0.9598
 4557TIP3   OH235161   6.494   1.253  13.558  0.0160  0.5495 -0.1695
 4557TIP3    H135162   6.563   1.187  13.549  0.3195  0.9285 -0.7189
 4557TIP3    H235163   6.413   1.205  13.543  0.2375  0.2960 -0.5960
 4558TIP3   OH235164   4.024   6.625  15.738  0.0352  0.1028 -0.1775
 4558TIP3    H135165   4.057   6.609  15.827 -0.5107 -0.0086  0.0043
 4558TIP3    H235166   3.953   6.563  15.727  0.4550 -0.2630 -0.8995
 4559TIP3   OH235167   2.926   3.180  13.916  0.3185  0.6273 -0.0295
 4559TIP3    H135168   2.933   3.267  13.955 -2.1859  1.7466 -1.8277
 4559TIP3    H235169   3.013   3.162  13.882  0.3003  3.8719 -2.3025
 4560TIP3   OH235170   2.539   1.026  12.297  0.2897 -0.6852  0.1350
 4560TIP3    H135171   2.503   1.114  12.305  1.1508 -0.2323 -0.8263
 4560TIP3    H235172   2.571   1.005  12.385  0.3812  0.0960  0.2962
 4561TIP3   OH235173   0.307   4.113   2.451 -1.1398 -0.6813 -0.2080
 4561TIP3    H135174   0.269   4.198   2.475  1.4091  0.2172  0.9955
 4561TIP3    H235175   0.260   4.088   2.371 -2.0016  1.8439 -0.5867
 4562TIP3   OH235176   4.435   4.156  14.261 -0.0690  0.1491 -0.2854
 4562TIP3    H135177   4.503   4.121  14.204 -0.4843 -0.4544 -0.4205
 4562TIP3    H235178   4.356   4.156  14.207 -0.6191 -1.0627  0.4721
 4563TIP3   OH235179   0.007   4.116   5.327 -0.0872 -0.3488 -0.0844
 4563TIP3    H135180   0.060   4.043   5.360 -0.0845  0.7745  2.6989
 4563TIP3    H235181   0.001   4.177   5.401  0.5674  2.9067 -2.4663
 4564TIP3   OH235182   3.341   4.553  15.206  0.2370  0.2671  0.1081
 4564TIP3    H135183   3.391   4.532  15.284 -0.4388 -0.5183  0.3469
 4564TIP3    H235184   3.406   4.570  15.139  0.8463  1.9305  1.0738
 4565TIP3   OH235185   1.079   4.041  17.078 -0.8557  0.2245 -0.1302
 4565TIP3    H135186   1.091   4.103  17.007  0.0306  0.3468  0.1137
 4565TIP3    H235187   1.163   3.995  17.085 -0.8943  0.2795  0.8928
 4566TIP3   OH235188   5.248   6.702  14.033 -0.3379 -0.4977 -0.5921
 4566TIP3    H135189   5.236   6.740  13.946 -1.0579 -1.9769 -1.1764
 4566TIP3    H235190   5.186   6.750  14.088  1.1822  1.4982 -0.4965
 4567TIP3   OH235191   5.121   1.369   3.219 -0.2029 -0.0493  0.5711
 4567TIP3    H135192   5.153   1.283   3.191 -0.7813 -0.7739  2.0434
 4567TIP3    H235193   5.026   1.364   3.209 -0.2903  0.1868  1.2447
 4568TIP3   OH235194   0.241   4.615  10.381  0.8314  0.2590  1.0763
 4568TIP3    H135195   0.160   4.572  10.355  0.8820 -0.2712  1.7741
 4568TIP3    H235196   0.219   4.708  10.383  0.3739  0.1580  0.7782
 4569TIP3   OH235197   6.631   6.588   0.158 -0.1473  0.2903  0.2801
 4569TIP3    H135198   6.584   6.577   0.076  0.7702  0.7938 -0.3278
 4569TIP3    H235199   6.657   6.499   0.183 -0.3601  0.1465 -0.0077
 4570TIP3   OH235200   0.856   6.653   4.626  0.2718  0.8615 -0.1359
 4570TIP3    H135201   0.800   6.670   4.701  0.3381 -0.3653  0.2137
 4570TIP3    H235202   0.799   6.663   4.550 -0.6552 -1.1252  0.2460
 4571TIP3   OH235203   0.924   3.613  13.043 -0.0349 -0.1203  0.2348
 4571TIP3    H135204   0.925   3.669  13.121  1.8359  1.1771 -0.6380
 4571TIP3    H235205   1.005   3.635  12.997 -1.3944 -0.3244 -2.4591
 4572TIP3   OH235206   6.476   2.931  12.896  0.1005 -0.6004  0.1050
 4572TIP3    H135207   6.471   2.863  12.829 -0.4226 -1.1893  0.7189
 4572TIP3    H235208   6.392   2.975  12.892 -0.7236 -1.8962  1.6227
 4573TIP3   OH235209   2.915   3.979   3.098  0.8411 -0.3540  0.6507
 4573TIP3    H135210   2.935   3.936   3.181 -0.1314 -2.4649 -0.1300
 4573TIP3    H235211   2.883   3.909   3.042  1.5464  0.9858 -1.5567
 4574TIP3   OH235212   5.653   5.985   3.774  0.1596 -0.0330  0.2012
 4574TIP3    H135213   5.738   5.955   3.807  0.4067  0.0042 -0.3950
 4574TIP3    H235214   5.602   6.001   3.853 -0.4973 -3.3992  0.6205
 4575TIP3   OH235215   5.982   4.130   3.270  0.2775  0.2890 -0.4056
 4575TIP3    H135216   5.990   4.055   3.212 -0.4607 -0.4336  0.4157
 4575TIP3    H235217   6.068   4.173   3.264  0.8560 -0.8440 -0.5584
 4576TIP3   OH235218   4.418   2.868   0.081 -0.1985 -0.5261  0.2046
 4576TIP3    H135219   4.503   2.913   0.078 -0.5943  0.3043  0.9818
 4576TIP3    H235220   4.410   2.837   0.172 -0.4027 -1.2615 -0.0541
 4577TIP3   OH235221   5.296   2.747  11.414 -0.0099 -0.7522 -0.1606
 4577TIP3    H135222   5.311   2.667  11.465 -0.4909 -1.2934 -0.8323
 4577TIP3    H235223   5.365   2.807  11.442  0.5623 -1.5192  0.1282
 4578TIP3   OH235224   2.200   0.549  16.748 -0.1361  0.6940  0.1810
 4578TIP3    H135225   2.229   0.625  16.797 -0.4553  0.6840  0.3806
 4578TIP3    H235226   2.121   0.578  16.702  1.0411  1.2092 -1.6318
 4579TIP3   OH235227   2.069   4.971  16.614  0.5477  0.5531  0.4847
 4579TIP3    H135228   1.977   4.947  16.611  0.6113  0.1753  1.2725
 4579TIP3    H235229   2.070   5.062  16.644  0.3934  0.8810 -0.4912
 4580TIP3   OH235230   4.160   2.171   0.904  0.1274 -0.3127 -0.4751
 4580TIP3    H135231   4.100   2.244   0.886 -1.1551 -1.6454 -1.8470
 4580TIP3    H235232   4.109   2.111   0.959  0.5434 -0.9954 -0.8243
 4581TIP3   OH235233   5.212   1.019  11.906 -0.4704 -0.4477 -0.4810
 4581TIP3    H135234   5.158   0.992  11.831 -4.2039 -1.1284  2.1801
 4581TIP3    H235235   5.200   1.114  11.910  1.5526 -0.0559 -1.8726
 4582TIP3   OH235236   2.583   1.147   0.029 -0.3320 -0.1810  0.2630
 4582TIP3    H135237   2.546   1.220   0.079  2.5957  0.5652  1.5562
 4582TIP3    H235238   2.643   1.188  -0.033 -1.0085 -1.3520 -1.2138
 4583TIP3   OH235239   2.389   6.671  13.950  0.1967  0.1464  0.0426
 4583TIP3    H135240   2.377   6.667  14.045 -2.1546  1.9235 -0.1175
 4583TIP3    H235241   2.450   6.743  13.936 -0.4876  0.7458  0.1421
 4584TIP3   OH235242   6.332   2.094  11.718  0.0471 -0.6119  0.3713
 4584TIP3    H135243   6.322   2.066  11.809 -1.0600 -2.3813 -0.2398
 4584TIP3    H235244   6.280   2.173  11.711 -0.6430 -0.9962  1.0607
 4585TIP3   OH235245   5.921   6.717   4.773 -0.2390  0.0107 -0.4888
 4585TIP3    H135246   5.898   6.632   4.736  0.0164  0.3124 -1.3639
 4585TIP3    H235247   5.961   6.765   4.700 -0.4371  0.9004 -0.0276
 4586TIP3   OH235248   2.596   4.960  14.972 -0.1653  0.4786 -0.1044
 4586TIP3    H135249   2.518   5.015  14.984  0.2824  0.5446  3.4316
 4586TIP3    H235250   2.670   5.019  14.991  0.6991 -0.0356 -1.6644
 4587TIP3   OH235251   4.003   1.229   5.568 -0.2420 -0.0611 -0.2287
 4587TIP3    H135252   4.097   1.243   5.578 -0.4940  1.0251  0.8921
 4587TIP3    H235253   3.965   1.266   5.647 -1.6012 -0.7551 -0.5272
 4588TIP3   OH235254   2.318   2.033   4.627  0.3795 -0.2271  0.1047
 4588TIP3    H135255   2.247   2.051   4.688 -0.9086 -1.4558 -0.9979
 4588TIP3    H235256   2.350   2.120   4.602 -0.2583  0.3201  1.1218
 4589TIP3   OH235257   3.005   3.742  10.803 -0.2287  0.3660 -0.1215
 4589TIP3    H135258   2.920   3.746  10.759  0.1648  0.0037 -0.9417
 4589TIP3    H235259   3.056   3.679  10.752  1.0177  1.6254 -0.5013
 4590TIP3   OH235260   3.976   4.863  11.492 -0.1991  0.5911  0.7797
 4590TIP3    H135261   3.935   4.787  11.533 -0.9150  0.6282  0.1513
 4590TIP3    H235262   4.070   4.850  11.505 -0.3149 -0.4040  0.6750
 4591TIP3   OH235263   6.214   6.309  14.891 -0.4325  0.5026  0.0126
 4591TIP3    H135264   6.174   6.375  14.834 -0.1801  0.7694  0.1377
 4591TIP3    H235265   6.273   6.261  14.833 -1.3187 -0.2400 -0.2905
 4592TIP3   OH235266   6.427   5.362  15.156  0.0081  0.1501  0.5473
 4592TIP3    H135267   6.430   5.296  15.087 -0.6812 -2.3025  2.7134
 4592TIP3    H235268   6.356   5.421  15.130  0.7210  0.1868 -1.5031
 4593TIP3   OH235269   5.790   1.128   0.585 -0.2109  0.4617  0.2002
 4593TIP3    H135270   5.798   1.145   0.491 -0.6085  0.6982  0.2072
 4593TIP3    H235271   5.860   1.179   0.624  0.1414  0.1303  0.0065
 4594TIP3   OH235272   1.612   0.125  12.667 -0.2591  0.4504 -0.4703
 4594TIP3    H135273   1.632   0.218  12.653 -0.5166  0.7899  1.1455
 4594TIP3    H235274   1.675   0.078  12.613  0.9583  1.5562 -0.0778
 4595TIP3   OH235275   5.187   2.953   1.534  0.5565  0.2006  0.0382
 4595TIP3    H135276   5.241   2.921   1.606  0.0346 -0.3186  0.2113
 4595TIP3    H235277   5.180   2.878   1.475  0.5769  0.4716 -0.3098
 4596TIP3   OH235278   4.007   1.593   3.454  0.1266 -0.3977 -0.4234
 4596TIP3    H135279   4.084   1.597   3.398 -0.8344 -2.7684 -2.0949
 4596TIP3    H235280   3.934   1.612   3.395 -0.6639  2.0078  1.1505
 4597TIP3   OH235281   2.398   1.451   1.550  0.4568 -0.0156  0.1476
 4597TIP3    H135282   2.444   1.532   1.570  1.6955 -0.7071  0.1641
 4597TIP3    H235283   2.333   1.442   1.620  0.3646  0.9096  0.1857
 4598TIP3   OH235284   1.827   5.587  10.890  0.1626 -0.2398  0.1878
 4598TIP3    H135285   1.768   5.596  10.815 -0.7142  0.4757  0.9351
 4598TIP3    H235286   1.790   5.515  10.941 -0.7428  0.9046  1.2181
 4599TIP3   OH235287   5.799   1.710  15.156  0.1056 -0.2018 -0.7982
 4599TIP3    H135288   5.855   1.785  15.139 -0.8673  0.4172 -1.4334
 4599TIP3    H235289   5.813   1.690  15.248 -0.6771  1.7027 -0.1981
 4600TIP3   OH235290   5.071   3.799  15.866  0.0358 -0.2070 -0.0627
 4600TIP3    H135291   5.117   3.762  15.941  1.2897 -0.5693 -0.9690
 4600TIP3    H235292   5.141   3.837  15.812 -0.9387  0.9730 -0.5377
 4601TIP3   OH235293   2.223   2.655  12.677  0.4766 -0.0446  0.2676
 4601TIP3    H135294   2.292   2.700  12.630  0.2226  1.3832  1.1818
 4601TIP3    H235295   2.155   2.638  12.612  0.6886  0.6870 -0.1433
 4602TIP3   OH235296   1.629   5.496  11.321  0.3805  0.0567 -0.2656
 4602TIP3    H135297   1.544   5.492  11.365  0.2853  0.9159 -0.3457
 4602TIP3    H235298   1.650   5.405  11.300  0.6584 -0.4726  1.9621
 4603TIP3   OH235299   0.077   5.164   0.171  0.1734 -0.4695  0.7072
 4603TIP3    H135300   0.110   5.117   0.247 -1.1423 -1.8182  0.4876
 4603TIP3    H235301  -0.015   5.139   0.165 -0.5797  2.0968  0.5056
 4604TIP3   OH235302   3.027   6.059   5.877 -0.2927  0.1966  0.0834
 4604TIP3    H135303   3.104   6.033   5.929 -1.3379  0.5330  1.8794
 4604TIP3    H235304   3.059   6.131   5.822  1.0326 -0.6424 -0.3091
 4605TIP3   OH235305   2.065   2.724  16.906 -0.3269 -0.1191 -0.4062
 4605TIP3    H135306   2.112   2.701  16.826  0.4830  1.9875 -0.6261
 4605TIP3    H235307   2.022   2.644  16.934 -0.0203 -1.0829 -2.5460
 4606TIP3   OH235308   2.332   2.035  14.623 -0.2026 -0.4072  0.4189
 4606TIP3    H135309   2.372   1.996  14.545 -1.4875  0.1808 -0.5778
 4606TIP3    H235310   2.290   1.962  14.668 -1.7210 -0.4059 -0.8923
 4607TIP3   OH235311   3.567   1.924  11.803 -0.0758  0.1071 -0.3569
 4607TIP3    H135312   3.509   1.876  11.862 -0.0732 -0.9860 -1.2231
 4607TIP3    H235313   3.561   2.015  11.834 -1.4318 -0.1431  0.2294
 4608TIP3   OH235314   6.506   5.837  15.078 -0.1830 -0.9293 -0.2270
 4608TIP3    H135315   6.427   5.880  15.111  0.0556 -1.6020  1.3151
 4608TIP3    H235316   6.555   5.814  15.156  1.5467 -0.5613 -1.1610
 4609TIP3   OH235317   0.083   4.328   0.325 -0.8589  0.2379 -0.0808
 4609TIP3    H135318   0.118   4.413   0.353 -1.3955 -0.1200  1.8160
 4609TIP3    H235319   0.023   4.303   0.395 -1.7740 -1.0689 -1.2920
 4610TIP3   OH235320   3.866   6.626   1.437 -0.6605 -0.0721 -0.0219
 4610TIP3    H135321   3.865   6.721   1.450 -0.6324 -0.1737  0.7637
 4610TIP3    H235322   3.792   6.608   1.379 -0.6180  0.4348 -0.2345
 4611TIP3   OH235323   0.304   3.568   5.049  0.2781  0.0695 -0.1661
 4611TIP3    H135324   0.373   3.604   4.994 -2.5205  3.4269 -1.9008
 4611TIP3    H235325   0.319   3.606   5.136  0.2673  1.3852 -0.7172
 4612TIP3   OH235326   4.984   5.227   3.860 -0.3684 -0.0937  0.1109
 4612TIP3    H135327   4.921   5.157   3.838 -1.2029  0.4372  0.7608
 4612TIP3    H235328   4.942   5.307   3.828 -0.0585  0.2801  0.6385
 4613TIP3   OH235329   0.279   2.170  16.967 -0.1114 -0.2423 -0.3362
 4613TIP3    H135330   0.354   2.112  16.968  0.3664  0.3658  0.3413
 4613TIP3    H235331   0.307   2.244  16.912 -0.2213 -0.0211 -0.0934
 4614TIP3   OH235332   2.352   1.371   2.077 -0.1876  0.1162 -0.2859
 4614TIP3    H135333   2.283   1.343   2.016 -0.7879 -0.0052  0.4339
 4614TIP3    H235334   2.414   1.298   2.078  0.2994  0.4877 -1.4207
 4615TIP3   OH235335   2.296   2.937  13.634  0.6702  0.7099 -0.2752
 4615TIP3    H135336   2.333   2.864  13.684  1.9047  2.0344  0.8151
 4615TIP3    H235337   2.322   3.015  13.682  0.9834  2.0102 -2.3984
 4616TIP3   OH235338   5.072   0.527  15.679 -0.1238  0.0667  0.0325
 4616TIP3    H135339   5.146   0.466  15.671 -0.6280 -0.4829 -0.6170
 4616TIP3    H235340   5.110   0.613  15.663  0.8311  0.0915  2.1429
 4617TIP3   OH235341   4.280   1.196  11.919  0.0776  0.8459 -0.3177
 4617TIP3    H135342   4.251   1.285  11.935  0.0738  0.5094  1.7338
 4617TIP3    H235343   4.370   1.194  11.951  0.0387  0.0800 -0.2391
 4618TIP3   OH235344   5.204   3.403  13.868 -0.1724 -0.0996  0.1980
 4618TIP3    H135345   5.224   3.423  13.960  1.6715 -1.3364  0.1074
 4618TIP3    H235346   5.249   3.471  13.818  0.8523 -0.7918  0.1445
 4619TIP3   OH235347   2.758   4.917   3.663  0.3384 -0.1170  0.6634
 4619TIP3    H135348   2.705   4.991   3.634  1.0166  0.7002  1.4728
 4619TIP3    H235349   2.726   4.898   3.751 -0.6910 -1.6280  0.0177
 4620TIP3   OH235350   6.585   0.957  13.867  0.0398 -0.3423  0.5270
 4620TIP3    H135351   6.603   1.022  13.935  1.2768 -1.3798  1.2496
 4620TIP3    H235352   6.490   0.959  13.856 -0.2593 -0.5136  2.6753
 4621TIP3   OH235353   1.400   3.259   3.471 -0.1697  0.1426  0.2607
 4621TIP3    H135354   1.427   3.346   3.499  2.6944 -0.5111 -0.1811
 4621TIP3    H235355   1.481   3.213   3.451 -1.6376 -2.2569 -0.7260
 4622TIP3   OH235356   4.638   1.351  12.240 -0.2579 -0.3831  0.4018
 4622TIP3    H135357   4.696   1.291  12.287  0.2984 -0.6202 -0.5629
 4622TIP3    H235358   4.697   1.417  12.203 -0.4127 -1.4036 -1.7618
 4623TIP3   OH235359   6.035   1.129   4.620 -0.5677  0.2942 -0.4003
 4623TIP3    H135360   5.978   1.198   4.654 -1.1916 -0.0074 -0.8070
 4623TIP3    H235361   5.983   1.049   4.629  0.7538 -0.4059  1.6032
 4624TIP3   OH235362   3.322   4.683   1.898 -0.1892  0.5975  0.6824
 4624TIP3    H135363   3.365   4.631   1.831 -0.3244  0.5601  0.6260
 4624TIP3    H235364   3.230   4.682   1.875 -0.0085  2.2867 -0.3143
 4625TIP3   OH235365   0.399   5.388  10.667 -0.0981  0.0679 -0.2842
 4625TIP3    H135366   0.371   5.302  10.698  0.8726 -0.0642  0.2858
 4625TIP3    H235367   0.465   5.416  10.731  1.5047  0.0803 -1.8729
 4626TIP3   OH235368   2.521   4.638  13.868 -0.0806 -0.5143 -0.0575
 4626TIP3    H135369   2.606   4.670  13.899 -0.8373  0.0891  1.4829
 4626TIP3    H235370   2.521   4.656  13.774  0.7315  1.2590  0.2570
 4627TIP3   OH235371   3.404   1.298   3.634 -0.9190  0.2096  0.1118
 4627TIP3    H135372   3.365   1.307   3.547 -0.8812  2.5661  0.2725
 4627TIP3    H235373   3.479   1.358   3.632 -0.1191 -0.7139  1.3540
 4628TIP3   OH235374   4.865   3.369  12.310 -1.3140  0.2325 -0.1149
 4628TIP3    H135375   4.874   3.456  12.351 -1.7392 -0.5491  1.7311
 4628TIP3    H235376   4.847   3.310  12.383 -0.0222 -1.5998 -1.1886
 4629TIP3   OH235377   6.622   3.607  15.532 -0.4467  0.3711  0.6490
 4629TIP3    H135378   6.538   3.623  15.574 -0.9902 -0.9813  0.1534
 4629TIP3    H235379   6.677   3.680  15.558 -1.1804  0.2794  2.5978
 4630TIP3   OH235380   4.157   3.633  13.099 -0.4873 -0.1100  0.0141
 4630TIP3    H135381   4.160   3.729  13.102 -0.2787 -0.1330  1.4760
 4630TIP3    H235382   4.065   3.612  13.119 -0.2413 -0.2210  1.0928
 4631TIP3   OH235383   0.926   1.120   0.251 -0.5742 -0.0954  0.1326
 4631TIP3    H135384   0.845   1.171   0.260 -0.6124  0.0529 -0.9776
 4631TIP3    H235385   0.987   1.179   0.207 -0.3231 -0.6913 -0.3279
 4632TIP3   OH235386   5.614   2.979  14.961  0.3742 -0.6100  0.1285
 4632TIP3    H135387   5.662   3.039  14.904  1.0608 -0.8539  0.4265
 4632TIP3    H235388   5.545   2.943  14.906  0.1077  0.2669 -0.1222
 4633TIP3   OH235389   4.068   0.701   1.110  0.4888  0.0022  0.2618
 4633TIP3    H135390   4.016   0.670   1.036 -1.4262  0.9121  1.1593
 4633TIP3    H235391   4.100   0.787   1.082  1.3882 -0.4805 -0.2228
 4634TIP3   OH235392   4.913   5.426   2.961  0.4713 -0.0315 -0.6299
 4634TIP3    H135393   4.962   5.347   2.981 -0.4063  0.0202  2.0948
 4634TIP3    H235394   4.979   5.495   2.951  1.0808 -0.5137  0.0698
 4635TIP3   OH235395   5.476   3.908   0.535 -0.0399 -0.0471  0.0446
 4635TIP3    H135396   5.518   3.870   0.612 -0.7935 -1.8338 -0.3595
 4635TIP3    H235397   5.521   3.868   0.461  0.2160  1.1246 -0.4533
 4636TIP3   OH235398   0.723   3.764   4.625  0.2025  0.7588  0.0221
 4636TIP3    H135399   0.728   3.739   4.532  2.1313 -0.2902  0.3508
 4636TIP3    H235400   0.754   3.686   4.672 -0.3230  1.4320  1.5238
 4637TIP3   OH235401   0.949   2.839  12.052 -0.5830  0.6405 -0.1744
 4637TIP3    H135402   0.906   2.764  12.092  2.4630 -1.4200 -0.3769
 4637TIP3    H235403   1.023   2.858  12.110  2.1535 -0.4538 -2.9681
 4638TIP3   OH235404   2.898   0.245   5.907  0.7130  0.8642 -0.4810
 4638TIP3    H135405   2.965   0.197   5.859 -0.5208 -0.5021 -0.9018
 4638TIP3    H235406   2.871   0.314   5.847  2.8569  2.5201  0.3178
 4639TIP3   OH235407   1.883   2.107   2.314 -0.0225  0.4337 -0.8857
 4639TIP3    H135408   1.869   2.084   2.222 -0.8437  2.6557 -1.3697
 4639TIP3    H235409   1.862   2.200   2.319 -0.1512  0.3278  1.6103
 4640TIP3   OH235410   0.599   5.478   4.325 -0.3036  0.2415 -0.0926
 4640TIP3    H135411   0.606   5.385   4.305 -0.7031  0.2637 -0.3395
 4640TIP3    H235412   0.608   5.483   4.420 -2.0065 -0.2256  0.1287
 4641TIP3   OH235413   3.764   0.069   5.844 -0.1026 -0.0852  0.7787
 4641TIP3    H135414   3.845   0.067   5.895  1.0695  0.1039 -0.9603
 4641TIP3    H235415   3.722   0.152   5.869 -0.3915 -0.7414  2.5692
 4642TIP3   OH235416   4.412   4.352  13.460  0.0355  0.6704 -0.5272
 4642TIP3    H135417   4.477   4.283  13.452  0.1011  0.8032 -1.1691
 4642TIP3    H235418   4.459   4.424  13.503  0.1309  0.5372 -0.4061
 4643TIP3   OH235419   2.142   0.008  14.541  0.2223 -0.0675  0.6487
 4643TIP3    H135420   2.065  -0.046  14.556  0.6001 -0.1416  2.5453
 4643TIP3    H235421   2.175  -0.020  14.455 -1.4339 -0.5187  0.1328
 4644TIP3   OH235422   3.679   3.823  11.131  0.3383 -0.0867 -0.5039
 4644TIP3    H135423   3.680   3.729  11.117  1.6323 -0.1974  0.1931
 4644TIP3    H235424   3.770   3.846  11.152 -0.1893  1.1031  0.6398
 4645TIP3   OH235425   4.080   2.197   0.070  0.4986 -0.0844 -0.0822
 4645TIP3    H135426   4.136   2.120   0.071 -0.5363 -0.8688  1.1846
 4645TIP3    H235427   4.045   2.202   0.159 -0.9613  0.7031 -0.6636
 4646TIP3   OH235428   5.680   0.771  12.050 -0.2029  0.3482 -0.5445
 4646TIP3    H135429   5.749   0.713  12.083  1.7821  2.3922 -0.8431
 4646TIP3    H235430   5.702   0.857  12.087 -1.5015  1.4459 -2.2008
 4647TIP3   OH235431   4.447   2.686  11.638  0.4325 -0.3186  0.2875
 4647TIP3    H135432   4.502   2.764  11.630  1.8973 -1.1859  1.2741
 4647TIP3    H235433   4.365   2.718  11.674  0.5486  0.9243 -0.4946
 4648TIP3   OH235434   3.099   6.549  12.735 -0.4464 -0.3838 -0.8698
 4648TIP3    H135435   3.194   6.554  12.720 -0.3810 -3.0517 -1.8287
 4648TIP3    H235436   3.061   6.544  12.647 -1.3628 -0.8560 -0.4612
 4649TIP3   OH235437   4.523   5.972  15.677  0.1974  0.5009 -0.0982
 4649TIP3    H135438   4.582   6.045  15.696  1.2196 -0.2507 -0.3002
 4649TIP3    H235439   4.508   5.930  15.762  2.4760 -1.1496 -0.4311
 4650TIP3   OH235440   2.105   6.185   1.792 -0.2855  0.3938  0.4123
 4650TIP3    H135441   2.116   6.091   1.776 -1.1282  0.3786 -0.1639
 4650TIP3    H235442   2.172   6.226   1.738 -1.2405  0.1993 -0.9758
 4651TIP3   OH235443   2.317   3.745  12.770  0.3173 -0.0392 -0.0552
 4651TIP3    H135444   2.264   3.759  12.848  1.6886  2.4188  0.5416
 4651TIP3    H235445   2.255   3.712  12.704 -0.5480 -4.0603  2.4290
 4652TIP3   OH235446   4.572   0.054   1.407 -0.0014  0.1544  0.0101
 4652TIP3    H135447   4.646   0.096   1.364  0.7466 -1.6083 -0.5240
 4652TIP3    H235448   4.501   0.057   1.343  0.6911 -1.2186 -0.8788
 4653TIP3   OH235449   1.953   0.095  11.401  0.2154 -0.4441  0.0849
 4653TIP3    H135450   1.896   0.162  11.364  0.3123 -0.2359  0.3117
 4653TIP3    H235451   1.965   0.031  11.330  1.2353  0.4696 -0.5910
 4654TIP3   OH235452   0.032   3.716  11.973  0.1131  0.3066 -0.2944
 4654TIP3    H135453   0.107   3.730  11.915  0.8729 -0.1828  0.5484
 4654TIP3    H235454   0.047   3.629  12.011 -1.1878 -0.0640 -0.5580
 4655TIP3   OH235455   5.577   4.165   3.494 -0.5156  0.1781 -0.6245
 4655TIP3    H135456   5.618   4.120   3.419 -1.9730 -1.8439 -0.2740
 4655TIP3    H235457   5.484   4.151   3.482 -0.7664 -0.4879  1.7505
 4656TIP3   OH235458   5.921   0.225  14.363 -0.4615  0.2690 -0.3550
 4656TIP3    H135459   5.894   0.310  14.327  0.5318  0.3978 -0.8351
 4656TIP3    H235460   5.886   0.160  14.303  1.6658  0.5006 -1.9678
 4657TIP3   OH235461   0.956   4.541   1.511 -0.8455 -0.1437 -0.1490
 4657TIP3    H135462   0.902   4.475   1.468 -0.2522 -1.6394  1.3074
 4657TIP3    H235463   1.039   4.497   1.528  0.0664  1.4272 -0.3705
 4658TIP3   OH235464   4.614   3.844  10.282  0.9448  0.2238  0.0994
 4658TIP3    H135465   4.702   3.818  10.309  0.6550  1.1763  2.1124
 4658TIP3    H235466   4.616   3.939  10.281 -0.4163  0.3051  1.5548
 4659TIP3   OH235467   4.476   1.009   1.826 -0.3957  0.3770 -0.3212
 4659TIP3    H135468   4.535   0.954   1.774  0.2232  0.5351  0.1955
 4659TIP3    H235469   4.534   1.069   1.873 -0.9484  0.3690  0.3991
 4660TIP3   OH235470   4.821   0.432  15.633 -0.0443 -0.2827 -0.1118
 4660TIP3    H135471   4.908   0.459  15.663  0.1645 -1.0833  0.0336
 4660TIP3    H235472   4.835   0.400  15.544  0.0955 -1.7540  0.4034
 4661TIP3   OH235473   2.068   3.717  12.049 -0.6221  0.0918 -0.3597
 4661TIP3    H135474   2.075   3.627  12.017 -0.3988  0.4613 -1.4036
 4661TIP3    H235475   2.132   3.766  11.997 -0.3753  0.7645  0.5474
 4662TIP3   OH235476   5.077   6.558  16.913  0.0445 -0.3456  0.2056
 4662TIP3    H135477   5.047   6.502  16.983  0.9211 -0.3457  0.5958
 4662TIP3    H235478   5.110   6.636  16.957 -1.4690  0.6559 -0.3437
 4663TIP3   OH235479   6.450   3.993   4.570 -0.2595  0.0278 -0.4126
 4663TIP3    H135480   6.424   3.972   4.481 -0.2752  0.9294 -0.6321
 4663TIP3    H235481   6.376   3.965   4.624 -0.8065  0.6330 -0.8202
 4664TIP3   OH235482   0.365   4.528   1.694 -0.1761  0.2451 -0.0074
 4664TIP3    H135483   0.390   4.445   1.735 -0.0792 -0.7881 -2.0456
 4664TIP3    H235484   0.274   4.541   1.721 -0.1124 -0.3885  0.5395
 4665TIP3   OH235485   0.796   3.326   2.492  0.7387 -0.0475 -0.5158
 4665TIP3    H135486   0.711   3.367   2.478  0.8397  0.2753 -0.2002
 4665TIP3    H235487   0.804   3.261   2.422  0.9205  1.0016 -1.4932
 4666TIP3   OH235488   1.654   5.310  13.650 -0.7227  0.2130 -0.2701
 4666TIP3    H135489   1.618   5.228  13.684 -1.6934  0.8849  0.3741
 4666TIP3    H235490   1.700   5.349  13.723  1.3783 -0.6216 -1.0848
 4667TIP3   OH235491   5.285   6.526   1.226  0.1580  0.0174  0.0804
 4667TIP3    H135492   5.344   6.517   1.300  1.7215  1.8289 -0.8602
 4667TIP3    H235493   5.332   6.582   1.164 -1.2946 -0.9846 -2.0629
 4668TIP3   OH235494   2.731   0.780  16.978  0.0456 -0.6983 -0.0890
 4668TIP3    H135495   2.763   0.692  17.000 -0.0195 -0.4616  1.0188
 4668TIP3    H235496   2.724   0.824  17.063  1.4808  0.8606 -0.7242
 4669TIP3   OH235497   6.311   3.418   0.466 -0.3576  0.6956 -0.7801
 4669TIP3    H135498   6.294   3.508   0.439 -0.4476  0.5225 -1.3161
 4669TIP3    H235499   6.235   3.395   0.520 -0.5225  0.8148 -0.9569
 4670TIP3   OH235500   4.216   5.076   4.387 -0.0776 -0.1717 -0.0459
 4670TIP3    H135501   4.172   5.065   4.472  0.5152  2.2795  0.6522
 4670TIP3    H235502   4.303   5.040   4.400 -0.4811 -1.2346 -0.1457
 4671TIP3   OH235503   0.312   5.685  11.544  0.1748 -0.2101  1.2532
 4671TIP3    H135504   0.368   5.633  11.486 -1.0331 -2.5585  2.1052
 4671TIP3    H235505   0.348   5.671  11.631  1.3262  2.4693  1.3302
 4672TIP3   OH235506   6.252   3.214   4.361 -0.1238 -0.0558  0.0026
 4672TIP3    H135507   6.163   3.249   4.358 -0.7491 -1.4896  0.8756
 4672TIP3    H235508   6.241   3.119   4.357  1.3980 -0.2531 -0.2418
 4673TIP3   OH235509   6.627   5.475   4.027 -0.4124  0.7000  0.1659
 4673TIP3    H135510   6.714   5.513   4.041 -0.5273  2.0610 -2.2247
 4673TIP3    H235511   6.578   5.497   4.106  1.0531  0.9920  1.0254
 4674TIP3   OH235512   3.406   6.276  16.932 -0.2633 -0.0310  0.0673
 4674TIP3    H135513   3.429   6.300  16.843 -0.2735  0.2877  0.1500
 4674TIP3    H235514   3.453   6.339  16.987 -1.9220  1.1506  0.2165
 4675TIP3   OH235515   4.219   5.535  16.196  0.5701  0.9619  0.3889
 4675TIP3    H135516   4.253   5.450  16.167  0.9300  0.9524  0.8189
 4675TIP3    H235517   4.143   5.513  16.249 -1.0261  1.0432 -1.7265
 4676TIP3   OH235518   5.942   3.026   3.803  0.6619 -0.0247 -0.0801
 4676TIP3    H135519   5.962   3.118   3.821  0.6238 -0.2878  1.5036
 4676TIP3    H235520   6.010   2.977   3.849 -0.1900 -0.8069  0.3974
 4677TIP3   OH235521   0.250   5.714   4.410 -0.0709 -0.3927  0.7394
 4677TIP3    H135522   0.187   5.686   4.476 -1.2905  0.4755 -0.0150
 4677TIP3    H235523   0.259   5.638   4.352 -0.3897 -0.5301  0.8678
 4678TIP3   OH235524   4.998   1.172   2.830 -0.1761 -0.0279 -0.2323
 4678TIP3    H135525   5.030   1.122   2.755  0.4604 -1.2831  0.8189
 4678TIP3    H235526   5.075   1.218   2.864 -0.4003  0.3269 -0.1990
 4679TIP3   OH235527   3.210   2.162  13.712 -0.0845  0.6930 -0.1212
 4679TIP3    H135528   3.206   2.257  13.708 -1.3951  0.6413 -0.2830
 4679TIP3    H235529   3.131   2.136  13.759  0.1118 -0.3319 -0.3328
 4680TIP3   OH235530   5.521   5.276  16.886  0.4465 -0.5587  0.1715
 4680TIP3    H135531   5.599   5.246  16.932  1.0423  0.3363 -0.2215
 4680TIP3    H235532   5.479   5.337  16.947 -0.9906 -2.4296  1.1428
 4681TIP3   OH235533   0.328   2.964  12.115 -0.8100 -0.2131 -0.0501
 4681TIP3    H135534   0.356   2.873  12.108 -1.8034 -0.4763 -0.8903
 4681TIP3    H235535   0.401   3.009  12.156  0.0262 -1.2382 -0.3885
 4682TIP3   OH235536   2.359   2.945   2.134  0.1495  0.3586  0.1817
 4682TIP3    H135537   2.300   2.871   2.116  0.5340  0.2275 -0.5634
 4682TIP3    H235538   2.381   2.936   2.227  0.7006 -0.8309 -0.0588
 4683TIP3   OH235539   1.170   3.664   6.929  0.0380 -0.1788 -0.6242
 4683TIP3    H135540   1.199   3.590   6.874 -0.6000 -0.1591 -1.0018
 4683TIP3    H235541   1.076   3.650   6.939  0.3547 -1.0072  1.7357
 4684TIP3   OH235542   6.158   5.861   3.701 -0.2387 -0.6061 -0.4961
 4684TIP3    H135543   6.096   5.883   3.632 -1.4198 -0.6509  0.5035
 4684TIP3    H235544   6.143   5.768   3.719 -0.2715 -0.4953  0.0977
 4685TIP3   OH235545   6.661   1.114   3.168 -0.4658  0.0273  0.1631
 4685TIP3    H135546   6.665   1.044   3.103 -0.7907 -0.3700  0.5677
 4685TIP3    H235547   6.596   1.085   3.232 -1.1528  1.0217 -0.0445
 4686TIP3   OH235548   0.368   3.088  13.801  0.1518  0.0845  0.5547
 4686TIP3    H135549   0.307   3.155  13.769  1.0028 -0.2664 -2.0734
 4686TIP3    H235550   0.383   3.110  13.893  0.7671  3.8050 -0.3082
 4687TIP3   OH235551   3.249   3.329  13.582 -0.1089 -0.0952  0.6126
 4687TIP3    H135552   3.336   3.368  13.579  0.4657 -1.2838  1.1056
 4687TIP3    H235553   3.225   3.333  13.675 -0.3212 -0.3344  0.5674
 4688TIP3   OH235554   1.669   6.280   0.972 -0.9700 -0.1543 -0.0861
 4688TIP3    H135555   1.633   6.199   1.008  1.1313 -0.8148  0.6580
 4688TIP3    H235556   1.618   6.350   1.014 -0.6636 -1.0133  1.8141
 4689TIP3   OH235557   6.441   5.470  15.768  0.0165 -0.6196  0.3978
 4689TIP3    H135558   6.369   5.440  15.713 -0.1308  0.4981 -0.0504
 4689TIP3    H235559   6.518   5.424  15.735 -0.1450 -0.2858 -0.4640
 4690TIP3   OH235560   3.593   2.349   4.190  0.6047 -0.6071 -1.1339
 4690TIP3    H135561   3.529   2.298   4.241  1.6432 -1.7327 -0.9067
 4690TIP3    H235562   3.671   2.351   4.245  0.9140  0.3850 -1.5934
 4691TIP3   OH235563   6.708   1.921   0.858 -0.7524 -0.5827  0.1419
 4691TIP3    H135564   6.795   1.915   0.898 -0.9568 -2.1771  0.3916
 4691TIP3    H235565   6.718   1.989   0.791  0.4879 -0.2266  0.6551
 4692TIP3   OH235566   4.220   4.414   5.715 -0.4910 -0.5753  0.5062
 4692TIP3    H135567   4.248   4.364   5.638 -0.4828 -0.9095  0.7265
 4692TIP3    H235568   4.263   4.499   5.705 -1.2339 -0.2734 -0.3527
 4693TIP3   OH235569   3.529   3.452  15.136  0.0932  0.3098  0.0419
 4693TIP3    H135570   3.572   3.389  15.193 -0.9502 -0.1179  0.3839
 4693TIP3    H235571   3.588   3.527  15.132  1.6200 -0.8936 -0.8081
 4694TIP3   OH235572   5.863   6.422  12.438  0.2113  0.2364 -0.0047
 4694TIP3    H135573   5.832   6.331  12.439 -1.2662  0.7051 -0.0354
 4694TIP3    H235574   5.786   6.474  12.462  0.6363  1.5931 -1.3808
 4695TIP3   OH235575   3.503   3.432  13.513  0.2517 -0.2627 -0.1598
 4695TIP3    H135576   3.501   3.511  13.567 -2.0705 -1.7704  2.2147
 4695TIP3    H235577   3.580   3.384  13.544  1.6381  0.9025 -1.5707
 4696TIP3   OH235578   6.724   5.962  10.686  0.1278 -0.2127  0.2560
 4696TIP3    H135579   6.768   5.878  10.680 -1.3301 -1.2487  2.4968
 4696TIP3    H235580   6.791   6.022  10.718  0.7147 -1.0147  0.5687
 4697TIP3   OH235581   4.497   2.684   5.827  0.1899  0.6900 -0.2013
 4697TIP3    H135582   4.456   2.659   5.909  0.5475 -0.2682 -0.3055
 4697TIP3    H235583   4.457   2.768   5.804 -0.7838  0.3745  0.3305
 4698TIP3   OH235584   2.146   2.056  12.998  0.2882  0.6983 -0.3688
 4698TIP3    H135585   2.188   2.027  12.917 -1.0385 -0.1827 -0.7931
 4698TIP3    H235586   2.073   2.111  12.968  0.1347  0.8353  0.2506
 4699TIP3   OH235587   4.896   6.012   3.529 -0.3588  0.3290  0.0862
 4699TIP3    H135588   4.896   6.104   3.502  0.6850  0.4844  0.5601
 4699TIP3    H235589   4.977   6.002   3.579  1.4207 -1.6727 -2.9065
 4700TIP3   OH235590   4.236   3.151   1.596 -0.2908 -0.1084 -0.1653
 4700TIP3    H135591   4.265   3.178   1.683 -0.5725  1.2065 -0.4537
 4700TIP3    H235592   4.142   3.168   1.595 -0.5792 -1.5863 -0.2182
 4701TIP3   OH235593   6.176   1.268  13.020 -0.3222  0.1484 -0.6929
 4701TIP3    H135594   6.216   1.348  13.053  1.0441 -1.5281  2.2298
 4701TIP3    H235595   6.249   1.219  12.982 -0.5507 -0.8233  0.0713
 4702TIP3   OH235596   1.697   4.930   5.180  0.4177  0.2406  0.4027
 4702TIP3    H135597   1.607   4.954   5.159  0.5231 -0.5993 -1.2391
 4702TIP3    H235598   1.699   4.921   5.275 -1.6970 -1.3888  0.3669
 4703TIP3   OH235599   3.434   2.105   2.017  0.5074 -0.0632  0.0551
 4703TIP3    H135600   3.463   2.016   2.036 -1.8690 -0.7299  0.9177
 4703TIP3    H235601   3.509   2.147   1.975  1.5716 -2.5602 -0.6901
 4704TIP3   OH235602   1.122   1.233  12.960  0.0950  0.0603 -0.3441
 4704TIP3    H135603   1.156   1.247  12.871 -1.2805 -0.7317 -1.0271
 4704TIP3    H235604   1.046   1.291  12.966  0.7081  0.7866  0.6599
 4705TIP3   OH235605   5.387   2.266   2.369  0.0305  0.0426 -0.4418
 4705TIP3    H135606   5.462   2.326   2.366 -0.1696  0.2791 -0.7471
 4705TIP3    H235607   5.369   2.255   2.462  1.2768 -1.0571 -0.2933
 4706TIP3   OH235608   0.657   3.698   4.360 -0.3627  0.6013 -0.9741
 4706TIP3    H135609   0.698   3.684   4.275  0.3318  1.7901 -0.8675
 4706TIP3    H235610   0.594   3.769   4.345 -1.7768 -0.5809 -0.9315
 4707TIP3   OH235611   5.326   4.310  16.518  0.0884  0.5938  0.7053
 4707TIP3    H135612   5.258   4.271  16.574  0.5723  0.3113  1.1100
 4707TIP3    H235613   5.400   4.250  16.526  0.4675  1.0260  0.4611
 4708TIP3   OH235614   0.654   6.528   4.933 -0.6293 -0.6856 -0.2049
 4708TIP3    H135615   0.745   6.535   4.960 -0.5534 -0.1040 -0.5905
 4708TIP3    H235616   0.647   6.442   4.892 -0.6507 -1.4135  1.2697
 4709TIP3   OH235617   1.341   5.831   1.426  0.5852 -0.0061  0.0058
 4709TIP3    H135618   1.272   5.897   1.426  1.7899  1.3119  0.6709
 4709TIP3    H235619   1.341   5.796   1.515  1.3272  0.6534  0.2857
 4710TIP3   OH235620   3.773   5.691   5.398 -0.2971 -0.9804  0.1331
 4710TIP3    H135621   3.735   5.679   5.485 -0.8113 -0.1479  0.0286
 4710TIP3    H235622   3.786   5.785   5.390  2.9554 -1.2803  0.6265
 4711TIP3   OH235623   0.981   2.445  14.654 -0.9818 -0.0089 -0.7134
 4711TIP3    H135624   0.889   2.443  14.628 -1.3653 -1.2813  0.5863
 4711TIP3    H235625   1.013   2.530  14.625 -2.2371 -0.0306 -2.2683
 4712TIP3   OH235626   3.087   2.280  15.381 -0.1693  0.1119  0.7120
 4712TIP3    H135627   3.017   2.292  15.317 -0.4456 -1.9316  0.5671
 4712TIP3    H235628   3.142   2.358  15.371 -0.9679  0.5026 -1.0183
 4713TIP3   OH235629   3.436   5.915   0.036 -0.3935  0.2364  0.2266
 4713TIP3    H135630   3.513   5.857   0.034 -0.2674  0.3516  1.1936
 4713TIP3    H235631   3.400   5.909  -0.052  0.0561 -0.7281  0.0887
 4714TIP3   OH235632   5.671   6.392   1.098 -0.0800 -0.1085  0.4648
 4714TIP3    H135633   5.629   6.329   1.157  1.8095 -1.1076  0.8515
 4714TIP3    H235634   5.728   6.338   1.043  0.2132  1.0948 -0.4512
 4715TIP3   OH235635   1.481   2.062  15.902  0.5393  0.0901  0.1101
 4715TIP3    H135636   1.463   2.143  15.855  1.8019  0.5107  0.2948
 4715TIP3    H235637   1.535   2.089  15.977  1.6927 -0.9979 -0.2874
 4716TIP3   OH235638   4.561   4.481  12.399 -0.3298  0.1371  0.3288
 4716TIP3    H135639   4.581   4.403  12.451 -0.7476 -0.3447 -0.2136
 4716TIP3    H235640   4.506   4.448  12.328 -0.4426  0.9197  0.0494
 4717TIP3   OH235641   1.238   0.198  11.993 -0.0427  0.1700  0.4098
 4717TIP3    H135642   1.260   0.288  12.018  1.2458  0.2217 -0.7819
 4717TIP3    H235643   1.247   0.196  11.898 -0.6400 -1.0694  0.3562
 4718TIP3   OH235644   4.111   0.393  15.544 -0.2249  0.0691 -0.1850
 4718TIP3    H135645   4.039   0.331  15.530 -0.6545  0.2562  1.0855
 4718TIP3    H235646   4.107   0.414  15.638  1.8902 -0.4272  0.0789
 4719TIP3   OH235647   6.372   5.659  15.985 -0.7076  0.2030  0.2217
 4719TIP3    H135648   6.447   5.685  16.040 -0.9967  0.5909  0.4401
 4719TIP3    H235649   6.345   5.740  15.942 -1.6833  0.3007  0.9789
 4720TIP3   OH235650   5.089   4.494  14.537  0.1151  0.2089  0.8025
 4720TIP3    H135651   5.025   4.554  14.576 -0.4067 -0.5418  1.1093
 4720TIP3    H235652   5.040   4.450  14.467  1.0971  1.7333 -0.9552
 4721TIP3   OH235653   0.149   4.183   1.763  0.1014 -0.0276  0.4518
 4721TIP3    H135654   0.145   4.152   1.673 -2.6602  0.5619  0.2750
 4721TIP3    H235655   0.174   4.106   1.814  1.5370 -0.4038 -0.7594
 4722TIP3   OH235656   0.042   2.620   0.289  0.2766  0.0171 -0.2474
 4722TIP3    H135657  -0.045   2.628   0.328 -0.5496  0.1461 -1.9876
 4722TIP3    H235658   0.067   2.710   0.267 -0.2863 -0.2026 -1.9806
 4723TIP3   OH235659   3.921   4.650   6.235  0.0191  0.2538 -0.8652
 4723TIP3    H135660   3.967   4.574   6.272  0.6380  1.1833  0.3587
 4723TIP3    H235661   3.978   4.679   6.163  0.8878  0.8013  0.0115
 4724TIP3   OH235662   2.809   5.488   2.318  0.0347  0.2619 -0.1836
 4724TIP3    H135663   2.714   5.480   2.316 -0.0102 -0.1045 -3.7639
 4724TIP3    H235664   2.834   5.454   2.403 -3.0151  0.3388  0.8697
 4725TIP3   OH235665   5.061   4.966  13.570  0.6565  0.2975  0.1418
 4725TIP3    H135666   5.006   4.968  13.491 -1.3304  0.1979  1.4571
 4725TIP3    H235667   5.095   5.055  13.578 -1.1862  1.0171  0.5107
 4726TIP3   OH235668   0.906   4.264   4.466  0.1235  0.1979  0.2945
 4726TIP3    H135669   0.855   4.343   4.445  1.0052  0.3527 -1.3585
 4726TIP3    H235670   0.978   4.296   4.521  2.4700  1.2524 -3.0769
 4727TIP3   OH235671   1.197   3.986   5.826  0.2176 -0.6602 -0.4567
 4727TIP3    H135672   1.203   3.901   5.871 -1.3145 -0.5672 -0.0338
 4727TIP3    H235673   1.252   3.976   5.749  2.5701 -1.0001  1.1436
 4728TIP3   OH235674   1.116   5.269   2.883 -0.0481  0.1086 -0.0451
 4728TIP3    H135675   1.060   5.272   2.961 -0.2990  0.6748 -0.2457
 4728TIP3    H235676   1.059   5.293   2.811  0.6980  1.8604 -0.1056
 4729TIP3   OH235677   0.145   4.095  10.124 -0.5328  0.3325 -0.0220
 4729TIP3    H135678   0.177   4.050  10.046  0.0057  1.4889 -0.5038
 4729TIP3    H235679   0.202   4.066  10.195 -0.0858  0.3804 -0.3567
 4730TIP3   OH235680   2.132   3.076   4.624 -0.1658 -0.7083  0.3587
 4730TIP3    H135681   2.146   3.149   4.563  0.8153  0.0762  1.4728
 4730TIP3    H235682   2.135   2.998   4.569 -2.4781  0.1103 -1.0464
 4731TIP3   OH235683   2.952   2.739  13.853 -0.1621 -0.4077 -0.3329
 4731TIP3    H135684   2.874   2.753  13.906  0.0452 -0.5638  0.0139
 4731TIP3    H235685   2.919   2.737  13.763 -0.2860  1.6783 -0.3807
 4732TIP3   OH235686   1.204   1.059   2.997  0.1136 -0.3385 -0.2278
 4732TIP3    H135687   1.250   1.125   3.048 -0.6768  0.1158 -0.0842
 4732TIP3    H235688   1.273   1.000   2.965  0.8720  0.7371 -0.6422
 4733TIP3   OH235689   5.078   5.695   5.590 -0.6333 -0.2028 -0.0214
 4733TIP3    H135690   5.022   5.769   5.568 -0.0005  0.5700  0.9308
 4733TIP3    H235691   5.059   5.676   5.682  0.1618 -0.3696  0.1170
 4734TIP3   OH235692   5.955   5.025   6.175 -0.7412  0.2399  0.2597
 4734TIP3    H135693   6.033   5.080   6.186 -0.4956 -0.3356  1.5398
 4734TIP3    H235694   5.976   4.944   6.221 -2.6005  0.5884  1.8430
 4735TIP3   OH235695   0.663   2.230  16.074  0.3189 -0.3201  0.2187
 4735TIP3    H135696   0.710   2.266  16.149  2.1582  1.2079 -1.5439
 4735TIP3    H235697   0.579   2.274  16.075  0.4930  0.0125  1.1292
 4736TIP3   OH235698   5.487   2.887   2.879  0.2518 -0.1901  0.5979
 4736TIP3    H135699   5.420   2.822   2.858  0.3543 -0.2809  0.5499
 4736TIP3    H235700   5.535   2.899   2.797 -0.4398  0.7387  0.3138
 4737TIP3   OH235701   5.273   5.734   4.203  0.2456  0.2154 -0.2156
 4737TIP3    H135702   5.218   5.657   4.190  1.0167 -0.0205 -2.3822
 4737TIP3    H235703   5.362   5.698   4.214  0.0677  0.5503  3.7197
 4738TIP3   OH235704   6.216   6.649   5.122  0.8251 -0.5142  0.0763
 4738TIP3    H135705   6.136   6.658   5.071 -0.7676  1.3527  2.6529
 4738TIP3    H235706   6.281   6.702   5.075  0.2542 -1.0936 -1.4228
 4739TIP3   OH235707   6.730   2.300  13.708 -0.1116  0.1373 -1.1124
 4739TIP3    H135708   6.812   2.254  13.723  0.2654  1.1998  0.3328
 4739TIP3    H235709   6.666   2.255  13.762 -0.1285  0.2320 -1.0517
 4740TIP3   OH235710   1.679   3.090   2.215  0.1143 -0.1043 -0.6696
 4740TIP3    H135711   1.743   3.107   2.284 -0.0459  0.1255 -0.5753
 4740TIP3    H235712   1.679   3.170   2.162 -1.2465  0.5444  0.2621
 4741TIP3   OH235713   2.655   6.681   5.934  0.2756 -0.3588 -0.1041
 4741TIP3    H135714   2.731   6.669   5.878  0.5113 -1.9019  0.4794
 4741TIP3    H235715   2.676   6.631   6.014 -0.9776 -0.0950  0.4170
 4742TIP3   OH235716   1.797   3.917   4.616  0.5845 -0.8969 -0.3613
 4742TIP3    H135717   1.721   3.942   4.668  1.4209 -2.0675  1.5039
 4742TIP3    H235718   1.835   4.000   4.588  0.6018 -0.1632  1.6757
 4743TIP3   OH235719   5.752   4.517  11.027 -0.1762 -0.1896 -0.3266
 4743TIP3    H135720   5.678   4.560  10.983 -0.1728 -0.8307 -0.9733
 4743TIP3    H235721   5.711   4.457  11.089 -0.1870  0.0999 -0.0505
 4744TIP3   OH235722   4.224   5.592  13.159 -0.1446  0.0298  0.2963
 4744TIP3    H135723   4.196   5.639  13.080 -0.5952 -0.5169  0.1198
 4744TIP3    H235724   4.145   5.585  13.212 -0.2668 -1.1303  0.0010
 4745TIP3   OH235725   4.789   5.973  14.238  0.1878 -0.1724 -0.1270
 4745TIP3    H135726   4.769   6.038  14.171  0.6483  0.1283  0.0240
 4745TIP3    H235727   4.884   5.964  14.235 -0.0082 -2.8733 -2.0549
 4746TIP3   OH235728   5.280   5.855   0.848  0.6831  0.6839 -0.3346
 4746TIP3    H135729   5.231   5.782   0.887  1.4119 -0.5246 -1.5609
 4746TIP3    H235730   5.264   5.846   0.754  1.8186  1.3410 -0.6090
 4747TIP3   OH235731   3.805   5.580  15.195  0.1420 -0.3819  0.0975
 4747TIP3    H135732   3.860   5.652  15.167 -0.7307 -0.0363 -0.8075
 4747TIP3    H235733   3.866   5.516  15.232  1.4773 -0.9643 -2.7712
 4748TIP3   OH235734   6.611   6.032  12.975 -0.9680 -0.1933 -0.1179
 4748TIP3    H135735   6.660   6.107  12.943 -0.9559 -0.2304 -0.1879
 4748TIP3    H235736   6.594   5.979  12.897 -0.6948 -0.4253 -0.0241
 4749TIP3   OH235737   4.913   0.992  14.516  0.0303 -0.0256  0.4172
 4749TIP3    H135738   4.933   1.061  14.452  2.0961 -1.0174 -0.1087
 4749TIP3    H235739   4.960   0.915  14.484  1.1920 -0.5670  3.1160
 4750TIP3   OH235740   6.651   4.564   2.494 -0.0234  0.4912 -0.5415
 4750TIP3    H135741   6.691   4.580   2.580  0.7732 -0.6005 -0.6938
 4750TIP3    H235742   6.574   4.510   2.514  2.0291 -2.6969 -0.7551
 4751TIP3   OH235743   6.193   3.176  15.747 -0.1764 -0.1273 -0.1566
 4751TIP3    H135744   6.242   3.249  15.708 -0.9035  0.2380 -0.3901
 4751TIP3    H235745   6.110   3.174  15.701 -0.4069 -0.7302  0.2620
 4752TIP3   OH235746   6.695   4.078  11.597  0.8587  0.6419 -0.0500
 4752TIP3    H135747   6.612   4.053  11.556 -0.3038 -0.0330  2.5018
 4752TIP3    H235748   6.756   4.090  11.524 -1.7718  2.3931 -2.1248
 4753TIP3   OH235749   1.334   5.399   2.940  0.1265 -0.2467 -0.0446
 4753TIP3    H135750   1.380   5.401   2.855  1.1848  2.3410  0.4810
 4753TIP3    H235751   1.252   5.353   2.922  0.2966  0.2545 -2.4947
 4754TIP3   OH235752   0.179   3.641   2.057 -0.1262  0.2782  0.2982
 4754TIP3    H135753   0.172   3.720   2.111  2.3949 -0.0019  1.1432
 4754TIP3    H235754   0.214   3.672   1.973  0.7053  0.0802  0.5716
 4755TIP3   OH235755   2.602   6.661  15.912  0.0538  1.2963 -0.2217
 4755TIP3    H135756   2.687   6.626  15.939 -0.6075 -0.5649 -0.3834
 4755TIP3    H235757   2.623   6.745  15.872  1.9025  0.5824 -0.8801
 4756TIP3   OH235758   1.802   1.832  16.407  0.3902 -0.1905 -0.4809
 4756TIP3    H135759   1.823   1.921  16.435 -1.3426  0.2875 -0.5697
 4756TIP3    H235760   1.855   1.819  16.329 -0.4319  1.3616 -1.3513
 4757TIP3   OH235761   1.415   0.510   0.506  0.1157 -0.1455 -0.1002
 4757TIP3    H135762   1.356   0.586   0.505 -1.5121 -1.3537 -0.3293
 4757TIP3    H235763   1.404   0.469   0.421  0.0222 -1.3246  0.4560
 4758TIP3   OH235764   4.249   6.781  12.178  0.0079  0.4262 -0.6676
 4758TIP3    H135765   4.222   6.702  12.130  2.3782  0.8849 -3.0288
 4758TIP3    H235766   4.343   6.768  12.192 -0.2372  1.1671  2.4503
 4759TIP3   OH235767   1.376   1.214  11.533 -0.1733 -0.8391 -0.1916
 4759TIP3    H135768   1.431   1.256  11.599 -1.0558  0.2836 -0.1441
 4759TIP3    H235769   1.384   1.120  11.551 -0.4137 -0.5534  1.5222
 4760TIP3   OH235770   5.090   0.505   3.575 -0.0100 -0.3530  0.2687
 4760TIP3    H135771   5.022   0.463   3.627 -1.4966  0.6684 -0.7664
 4760TIP3    H235772   5.044   0.572   3.525  1.9379  1.1483  0.3521
 4761TIP3   OH235773   4.475   2.457  10.602  0.2604 -0.3487 -0.4471
 4761TIP3    H135774   4.542   2.403  10.559 -0.3029  0.6986 -2.8408
 4761TIP3    H235775   4.398   2.447  10.546 -0.8568  0.3828  0.9090
 4762TIP3   OH235776   2.597   6.408   3.216  0.0358 -0.7671 -0.0259
 4762TIP3    H135777   2.569   6.499   3.223  0.0449 -0.8471  1.1431
 4762TIP3    H235778   2.678   6.412   3.164  0.4506 -0.0134  0.6560
 4763TIP3   OH235779   6.046   3.715   4.729  0.2366 -0.0185 -0.4585
 4763TIP3    H135780   5.966   3.742   4.774  0.1109 -2.1250  0.6985
 4763TIP3    H235781   6.025   3.725   4.636 -0.9177  0.6246 -0.1487
 4764TIP3   OH235782   5.011   3.475  13.103 -1.2440  0.5460 -0.8666
 4764TIP3    H135783   4.996   3.460  13.009 -2.0074 -1.4277 -0.4675
 4764TIP3    H235784   5.018   3.388  13.140 -0.1466  1.3127  0.8250
 4765TIP3   OH235785   4.998   4.352  11.718 -0.1947  0.5581 -0.1591
 4765TIP3    H135786   4.918   4.405  11.721  0.8009  2.1981 -1.0816
 4765TIP3    H235787   5.001   4.319  11.628  0.1504  0.4620 -0.1149
 4766TIP3   OH235788   5.473   1.000  16.148  0.4403 -0.0894 -0.8884
 4766TIP3    H135789   5.531   0.928  16.172  1.5490  1.0500  0.0186
 4766TIP3    H235790   5.432   1.026  16.231  0.4889  0.6726 -1.0950
 4767TIP3   OH235791   0.126   4.260   1.311 -0.3354 -0.2410  0.2702
 4767TIP3    H135792   0.197   4.199   1.293 -0.3520 -0.3419  0.5368
 4767TIP3    H235793   0.162   4.322   1.374  0.0945  0.8160 -0.9867
 4768TIP3   OH235794   5.532   2.937  12.317 -0.6851  0.3974 -0.7165
 4768TIP3    H135795   5.554   2.973  12.231 -0.4946  3.0346  0.3336
 4768TIP3    H235796   5.616   2.905  12.352  0.1697  3.2164  0.1003
 4769TIP3   OH235797   4.284   2.971   4.296  0.4204 -0.6752  0.1276
 4769TIP3    H135798   4.297   2.970   4.391  0.7908  1.2960  0.1360
 4769TIP3    H235799   4.364   2.932   4.261  0.4213 -1.1190  0.5978
 4770TIP3   OH235800   0.190   5.634   2.944 -0.3189  0.2868 -0.0936
 4770TIP3    H135801   0.279   5.607   2.921 -0.4173 -1.0873  1.0003
 4770TIP3    H235802   0.203   5.711   3.000  0.1707  0.3171 -0.2404
 4771TIP3   OH235803   1.655   5.130   6.646  0.6753 -0.0091 -0.0738
 4771TIP3    H135804   1.726   5.095   6.700  2.6572  1.4410 -1.6229
 4771TIP3    H235805   1.577   5.121   6.702  1.6180 -3.4500  0.9901
 4772TIP3   OH235806   0.852   6.739  14.179  0.0219 -0.1876 -0.3324
 4772TIP3    H135807   0.884   6.691  14.103 -1.3798 -0.8704 -0.5272
 4772TIP3    H235808   0.913   6.812  14.190 -0.1099  0.2890 -2.4902
 4773TIP3   OH235809   3.139   6.177   1.634 -0.0020  0.6160 -0.5097
 4773TIP3    H135810   3.046   6.176   1.656  0.1644  1.0385  0.2537
 4773TIP3    H235811   3.160   6.086   1.614 -0.6422  0.5691 -0.9890
 4774TIP3   OH235812   1.231   3.308  16.863 -0.0121  0.0746  0.0634
 4774TIP3    H135813   1.322   3.338  16.859  0.2288 -0.3821  1.6990
 4774TIP3    H235814   1.198   3.323  16.774  0.7074  3.2137  0.1822
 4775TIP3   OH235815   1.479   3.977   2.248  0.7643 -0.2738  0.5335
 4775TIP3    H135816   1.553   3.998   2.305  0.1509 -0.0685  1.2629
 4775TIP3    H235817   1.447   4.061   2.217  1.4027 -0.4034 -0.5338
 4776TIP3   OH235818   6.779   2.473  12.358 -0.1094 -0.6733 -0.4523
 4776TIP3    H135819   6.845   2.428  12.306  0.4062  1.1694 -1.4857
 4776TIP3    H235820   6.792   2.566  12.339 -2.4211 -0.1761 -0.0096
 4777TIP3   OH235821   4.355   6.135  13.014 -0.4857  0.2050  0.1233
 4777TIP3    H135822   4.268   6.108  13.041 -1.0499 -0.6045 -2.2688
 4777TIP3    H235823   4.340   6.202  12.947  0.7080 -0.1145 -0.4929
 4778TIP3   OH235824   4.070   6.856  16.761  0.3542 -0.5296 -0.1622
 4778TIP3    H135825   4.140   6.878  16.699 -0.8377  0.8259 -1.0914
 4778TIP3    H235826   4.004   6.811  16.708 -0.4492  0.1834  0.2101
 4779TIP3   OH235827   2.081   6.179  16.745 -0.9244 -0.1627 -0.1588
 4779TIP3    H135828   2.047   6.264  16.772 -0.1918 -0.1131  0.6545
 4779TIP3    H235829   2.172   6.179  16.774 -0.7512 -1.0050 -0.6589
 4780TIP3   OH235830   4.875   6.833  16.761 -0.3338 -0.0831 -0.0041
 4780TIP3    H135831   4.875   6.739  16.739 -2.2617 -0.0174 -0.4697
 4780TIP3    H235832   4.964   6.861  16.744  0.2013 -1.7627 -0.2134
 4781TIP3   OH235833   5.294   4.979  14.765 -0.2651 -0.1724 -0.3106
 4781TIP3    H135834   5.254   5.064  14.783  0.5162  0.1611 -0.1211
 4781TIP3    H235835   5.342   4.992  14.683  1.0065 -0.0286  0.4462
 4782TIP3   OH235836   6.013   1.701   0.518 -0.3475 -0.1658 -0.0024
 4782TIP3    H135837   6.009   1.636   0.588  0.7252 -0.2321  0.0076
 4782TIP3    H235838   6.041   1.782   0.561  2.2483 -0.6567 -0.5981
 4783TIP3   OH235839   3.147   4.619  16.975  0.4283 -0.0035  0.5963
 4783TIP3    H135840   3.156   4.702  16.929 -2.1212  1.5430  2.6063
 4783TIP3    H235841   3.084   4.569  16.924  0.4266  0.1543  0.4443
 4784TIP3   OH235842   2.060   2.078  14.047  0.0446 -0.5836  0.2621
 4784TIP3    H135843   2.109   2.023  14.108 -0.6165 -0.8800  0.5394
 4784TIP3    H235844   2.054   2.026  13.967 -0.4846 -0.8772  0.4879
 4785TIP3   OH235845   5.124   4.043  12.606 -0.1699 -0.0562  0.0028
 4785TIP3    H135846   5.151   4.103  12.675  2.9493 -3.1256  1.7879
 4785TIP3    H235847   5.207   4.017  12.564 -1.5225 -1.7885 -1.7727
 4786TIP3   OH235848   2.857   2.743   4.423  0.0966 -0.0162 -0.0010
 4786TIP3    H135849   2.886   2.688   4.350  0.3605  0.0704  0.0382
 4786TIP3    H235850   2.763   2.751   4.411  0.1026 -0.2182 -0.1855
 4787TIP3   OH235851   1.247   0.185  14.695  0.3162  0.4840 -0.9062
 4787TIP3    H135852   1.188   0.232  14.753 -0.0597 -0.1554 -0.7621
 4787TIP3    H235853   1.298   0.128  14.753  0.4069  0.3342 -1.1318
 4788TIP3   OH235854   0.469   0.117  12.079  0.0229  0.2818  0.3333
 4788TIP3    H135855   0.491   0.208  12.060  1.0125  0.1158  0.6405
 4788TIP3    H235856   0.417   0.121  12.159  1.1486  0.4922  1.0800
 4789TIP3   OH235857   2.018   0.834   0.379 -0.3190  0.4667  0.0687
 4789TIP3    H135858   1.995   0.753   0.424 -1.9720  0.7698 -0.1612
 4789TIP3    H235859   1.935   0.867   0.345  0.3757  2.0538 -0.1854
 4790TIP3   OH235860   3.374   1.771  12.687  0.2204 -0.6224  0.6848
 4790TIP3    H135861   3.323   1.793  12.610  2.2636 -1.7198 -1.1028
 4790TIP3    H235862   3.413   1.854  12.715  0.0196 -0.3239  0.0926
 4791TIP3   OH235863   5.012   2.231   5.600  0.7897  0.7235 -0.3459
 4791TIP3    H135864   4.945   2.255   5.664  0.7695 -0.3948  0.0740
 4791TIP3    H235865   5.059   2.158   5.640  0.9384  0.1613 -1.4958
 4792TIP3   OH235866   5.605   1.015  11.586 -0.4438 -0.5175  0.0629
 4792TIP3    H135867   5.517   1.052  11.580  0.5412  2.0091  0.2541
 4792TIP3    H235868   5.607   0.974  11.673 -0.6850  1.6441  1.1529
 4793TIP3   OH235869   0.829   3.975  13.108 -0.2444 -0.1416 -0.3886
 4793TIP3    H135870   0.738   3.986  13.137 -0.2988 -1.3047 -0.0548
 4793TIP3    H235871   0.866   3.913  13.171  0.2976 -0.9661 -1.4999
 4794TIP3   OH235872   6.153   6.672  13.732 -0.0057  0.0071 -0.4907
 4794TIP3    H135873   6.114   6.644  13.814  0.6370 -0.2335 -0.2548
 4794TIP3    H235874   6.101   6.746  13.704 -2.1082 -1.7029 -1.3957
 4795TIP3   OH235875   3.471   5.966  14.610  0.1592  0.2224 -0.0457
 4795TIP3    H135876   3.429   5.911  14.675 -2.4179  3.3788  1.2949
 4795TIP3    H235877   3.564   5.965  14.632 -0.5382  0.7707  3.5128
 4796TIP3   OH235878   5.386   6.713   3.303  0.5482  0.2207 -0.0900
 4796TIP3    H135879   5.325   6.689   3.373 -0.7126 -1.2589 -1.5812
 4796TIP3    H235880   5.473   6.699   3.340 -0.0778 -0.1059  1.3124
 4797TIP3   OH235881   4.579   1.145  12.625  0.1298  0.2576 -0.5709
 4797TIP3    H135882   4.657   1.169  12.675 -0.1956  1.4662 -0.6061
 4797TIP3    H235883   4.515   1.120  12.691  0.3922 -0.2641 -0.5123
 4798TIP3   OH235884   2.499   4.019   0.200 -0.2510  0.3676 -0.0063
 4798TIP3    H135885   2.441   3.943   0.211 -0.9178  1.1043  2.1347
 4798TIP3    H235886   2.581   3.993   0.241 -0.4716  0.7716  0.7055
 4799TIP3   OH235887   5.848   5.474   3.932 -0.2286 -0.3393 -0.2598
 4799TIP3    H135888   5.803   5.406   3.982 -2.1014 -0.2245 -1.6542
 4799TIP3    H235889   5.785   5.498   3.863 -0.0425  3.3998  0.6487
 4800TIP3   OH235890   5.480   3.942  15.188  0.3933 -0.1303  0.3994
 4800TIP3    H135891   5.404   4.000  15.192 -0.6742 -1.3121 -1.5056
 4800TIP3    H235892   5.457   3.868  15.244  1.7740  1.1874  2.8662
 4801TIP3   OH235893   3.226   1.006  11.555 -0.0950 -0.1137 -0.2926
 4801TIP3    H135894   3.139   1.033  11.584  0.0354 -1.8846  1.9930
 4801TIP3    H235895   3.268   0.971  11.633  2.1615 -0.6648 -1.6520
 4802TIP3   OH235896   2.786   2.317  11.307  0.3664  0.1906 -0.6276
 4802TIP3    H135897   2.815   2.381  11.372 -0.8822  0.0387  0.1177
 4802TIP3    H235898   2.779   2.235  11.356  0.0072 -0.0598 -1.0966
 4803TIP3   OH235899   6.312   3.702   3.032 -0.2836 -0.1032  0.0405
 4803TIP3    H135900   6.261   3.667   2.960 -0.6357 -0.4524  0.4543
 4803TIP3    H235901   6.255   3.693   3.109 -0.8158  2.3168  0.0125
 4804TIP3   OH235902   6.332   0.933  11.119  0.2046  0.1577  0.1947
 4804TIP3    H135903   6.272   0.938  11.193 -2.8530 -1.5151 -1.9732
 4804TIP3    H235904   6.362   1.023  11.106 -1.6028  1.0097  1.5730
 4805TIP3   OH235905   6.713   2.435  13.026 -0.1292 -0.3140 -0.0718
 4805TIP3    H135906   6.797   2.475  13.005 -1.2632  1.6530 -1.0804
 4805TIP3    H235907   6.701   2.367  12.960  0.2768 -0.0319 -0.4385
 4806TIP3   OH235908   4.388   4.891  11.029 -0.0552 -0.5036 -0.2838
 4806TIP3    H135909   4.330   4.907  10.954 -1.9197 -0.4221  1.0908
 4806TIP3    H235910   4.441   4.816  11.002  0.3585  0.4225 -2.2146
 4807TIP3   OH235911   6.128   2.836   3.504 -0.8573  0.9477 -0.6065
 4807TIP3    H135912   6.033   2.838   3.493 -1.2311 -3.5807  0.0849
 4807TIP3    H235913   6.163   2.829   3.415 -1.5852 -2.0150 -0.7313
 4808TIP3   OH235914   2.186   1.254   3.041  0.7003 -0.4248 -0.5750
 4808TIP3    H135915   2.153   1.256   3.131  1.6984 -0.5981 -0.1961
 4808TIP3    H235916   2.235   1.171   3.035 -0.0846 -0.8400 -1.5477
 4809TIP3   OH235917   0.850   1.184  11.224  0.3885 -0.2332 -0.6096
 4809TIP3    H135918   0.819   1.094  11.237  1.0586 -0.1572  2.0962
 4809TIP3    H235919   0.945   1.178  11.226  0.4376  0.5827  0.0669
 4810TIP3   OH235920   5.388   4.242   5.309 -0.1529 -0.5039  0.3586
 4810TIP3    H135921   5.440   4.162   5.317 -0.3520 -0.6307  0.3786
 4810TIP3    H235922   5.359   4.242   5.218 -0.5076 -0.6744  0.4678
 4811TIP3   OH235923   3.322   1.039   0.132 -0.0630 -0.4323  0.2372
 4811TIP3    H135924   3.252   0.974   0.127 -0.1507 -0.4247  1.1568
 4811TIP3    H235925   3.402   0.988   0.140  0.0126 -0.4391 -0.5594
 4812TIP3   OH235926   5.755   2.352   0.721 -0.1831 -0.1239 -0.7296
 4812TIP3    H135927   5.670   2.322   0.752 -1.2477  2.1222 -1.2611
 4812TIP3    H235928   5.799   2.384   0.799  0.3513 -1.5997 -0.3999
 4813TIP3   OH235929   1.807   2.282  13.915 -0.5828 -0.8390 -0.3617
 4813TIP3    H135930   1.852   2.206  13.878 -0.7473 -0.6372 -0.9818
 4813TIP3    H235931   1.857   2.304  13.994  0.0106 -1.0224 -0.6869
 4814TIP3   OH235932   5.998   6.643  13.270  0.3295 -0.7171 -0.2331
 4814TIP3    H135933   5.983   6.643  13.176 -0.5944 -0.5446 -0.0897
 4814TIP3    H235934   5.915   6.670  13.309  0.4184 -1.6770  0.6755
 4815TIP3   OH235935   0.642   1.249  15.542 -0.1652  0.0603  0.8347
 4815TIP3    H135936   0.718   1.216  15.494  0.0855  0.5078  0.9166
 4815TIP3    H235937   0.567   1.207  15.501 -0.1784  2.1725 -1.4832
 4816TIP3   OH235938   4.887   2.799   2.284 -0.1219 -0.1960  0.1882
 4816TIP3    H135939   4.944   2.805   2.207 -0.7344 -1.5152 -0.4051
 4816TIP3    H235940   4.897   2.883   2.328  2.5595 -0.4758  0.3179
 4817TIP3   OH235941   0.099   3.692   4.822 -0.4661 -0.5730 -0.1518
 4817TIP3    H135942   0.070   3.691   4.731  2.1922 -1.2358 -1.0737
 4817TIP3    H235943   0.160   3.765   4.827 -1.4098  0.1589  1.4397
 4818TIP3   OH235944   3.064   0.540  16.937  0.3798  0.7009 -0.0004
 4818TIP3    H135945   3.032   0.451  16.930 -0.9513  1.1841 -0.4680
 4818TIP3    H235946   3.120   0.540  17.014 -1.7890  0.0743  1.6621
 4819TIP3   OH235947   5.165   3.904   6.184  0.2842  0.8404  0.0945
 4819TIP3    H135948   5.138   3.837   6.121 -0.5763  0.6964  0.5970
 4819TIP3    H235949   5.232   3.861   6.237 -1.3866 -0.2127  1.4571
 4820TIP3   OH235950   2.791   5.094   6.701 -0.4149 -0.3618 -0.3055
 4820TIP3    H135951   2.747   5.085   6.786  0.7425  0.5328  0.4213
 4820TIP3    H235952   2.845   5.015   6.694  0.4979  0.1880  0.4165
 4821TIP3   OH235953   6.346   4.493  13.492 -0.4353 -0.0905 -0.0399
 4821TIP3    H135954   6.330   4.454  13.405  1.2658  0.1934 -0.5163
 4821TIP3    H235955   6.334   4.587  13.478 -1.9962 -0.1755  0.5085
 4822TIP3   OH235956   2.796   4.017   4.141  0.3840 -0.6899  0.1634
 4822TIP3    H135957   2.702   4.037   4.132  0.0062 -2.2872  0.2995
 4822TIP3    H235958   2.816   3.961   4.066  1.3228 -0.0891 -0.0466
 4823TIP3   OH235959   1.272   1.122  13.148 -0.1037  0.2232  0.3558
 4823TIP3    H135960   1.356   1.116  13.101  0.1522  1.0570  0.6745
 4823TIP3    H235961   1.209   1.146  13.080  0.0380  0.2203  0.2200
 4824TIP3   OH235962   5.286   0.046   5.264  0.4388  0.0830  0.2890
 4824TIP3    H135963   5.373   0.059   5.226  0.0328  2.9898  0.1156
 4824TIP3    H235964   5.227   0.091   5.204 -1.1980 -1.5231  0.6031
 4825TIP3   OH235965   4.306   2.246  16.153  0.3065  0.0908 -0.0610
 4825TIP3    H135966   4.240   2.312  16.133  0.6410  0.6096  0.5076
 4825TIP3    H235967   4.323   2.256  16.247  1.1514 -0.0658 -0.1851
 4826TIP3   OH235968   2.478   4.283   0.127 -0.7987  0.0763  0.6425
 4826TIP3    H135969   2.468   4.279   0.032 -0.0241  2.2142  0.4076
 4826TIP3    H235970   2.486   4.192   0.155 -3.1299 -0.7217 -1.0655
 4827TIP3   OH235971   3.336   6.758  11.481 -0.2306  0.2764  0.5778
 4827TIP3    H135972   3.292   6.805  11.410  0.7337 -1.1667 -1.0732
 4827TIP3    H235973   3.296   6.671  11.479  2.6063 -1.1465 -1.0767
 4828TIP3   OH235974   1.514   0.712  15.582 -0.1693  0.2868 -0.6577
 4828TIP3    H135975   1.456   0.784  15.609 -0.6810 -0.5223  0.4706
 4828TIP3    H235976   1.455   0.642  15.556  0.3269  0.0663 -1.2108
 4829TIP3   OH235977   1.677   3.457  17.026 -0.4657  0.0831  0.1034
 4829TIP3    H135978   1.655   3.501  16.944 -2.0266  0.5380  0.7216
 4829TIP3    H235979   1.738   3.517  17.069  0.9963 -0.5408 -1.0574
 4830TIP3   OH235980   3.656   6.122  16.468  0.1512  0.2256 -0.3287
 4830TIP3    H135981   3.565   6.103  16.445  0.1550  0.7971 -0.8531
 4830TIP3    H235982   3.653   6.208  16.509  0.2587 -0.4411  1.1491
 4831TIP3   OH235983   2.109   3.138   5.011 -0.2319  0.5087  0.6636
 4831TIP3    H135984   2.150   3.052   5.015 -1.4774 -0.5120 -3.3951
 4831TIP3    H235985   2.181   3.200   5.024  1.4599 -1.1887 -0.1732
 4832TIP3   OH235986   1.233   1.524  12.346  0.2658  0.2351  0.5194
 4832TIP3    H135987   1.300   1.537  12.413  1.0519  1.4251 -0.4652
 4832TIP3    H235988   1.278   1.478  12.275 -0.6761 -1.4281  0.9516
 4833TIP3   OH235989   5.044   5.215   3.429  0.1868 -0.1328  0.6111
 4833TIP3    H135990   4.980   5.145   3.421  0.3389 -0.1551 -0.6837
 4833TIP3    H235991   5.103   5.186   3.498  0.2122 -1.2616  0.1310
 4834TIP3   OH235992   3.924   4.771  12.153  0.0275  0.0703 -0.3403
 4834TIP3    H135993   4.007   4.819  12.149  0.3614 -0.3806  0.7234
 4834TIP3    H235994   3.859   4.835  12.124  0.6322  0.7337 -0.2847
 4835TIP3   OH235995   1.125   6.778  13.276  0.2327  0.2684  0.0101
 4835TIP3    H135996   1.068   6.709  13.240  1.1719 -0.6883  0.3244
 4835TIP3    H235997   1.182   6.802  13.203  0.5403  0.0262  0.1677
 4836TIP3   OH235998   1.883   1.081   5.008 -0.2880  0.5651 -0.5588
 4836TIP3    H135999   1.950   1.016   4.990 -0.3596  0.6031 -0.9731
 4836TIP3    H236000   1.932   1.160   5.032 -0.1933  0.4972 -0.5290
 4837TIP3   OH236001   4.525   2.178  14.029  0.4438  0.1697 -0.4104
 4837TIP3    H136002   4.550   2.089  14.003  0.6544  0.2076 -0.3453
 4837TIP3    H236003   4.515   2.172  14.124 -0.1552  0.0710 -0.4763
 4838TIP3   OH236004   0.839   2.407   1.990 -0.2843 -0.4010  0.4566
 4838TIP3    H136005   0.898   2.467   1.944  0.3408 -0.8096  0.7037
 4838TIP3    H236006   0.759   2.458   2.003  0.9351  1.1775  2.5468
 4839TIP3   OH236007   5.204   6.706   5.489  0.8034 -0.0430 -0.6961
 4839TIP3    H136008   5.248   6.735   5.409  0.2599  0.7398 -0.7243
 4839TIP3    H236009   5.215   6.779   5.550  0.0854 -0.0845 -0.5023
 4840TIP3   OH236010   1.265   0.239  11.708 -0.4564  0.0650 -0.2415
 4840TIP3    H136011   1.184   0.281  11.679 -1.9023 -0.9324  2.0351
 4840TIP3    H236012   1.256   0.148  11.679 -0.1836 -0.0661  0.0838
 4841TIP3   OH236013   5.835   3.866  14.938  0.1445 -0.0977  0.3578
 4841TIP3    H136014   5.746   3.898  14.923  0.5286  1.6518  1.4692
 4841TIP3    H236015   5.891   3.936  14.904  1.1381 -1.3218 -0.6419
 4842TIP3   OH236016   6.707   6.318   0.134  0.1544 -0.3461  0.8393
 4842TIP3    H136017   6.731   6.227   0.154  2.3465  0.1877  0.8457
 4842TIP3    H236018   6.767   6.344   0.065 -1.7608  0.5331 -0.6101
 4843TIP3   OH236019   4.631   4.307  13.662 -0.1432  0.0944 -0.2520
 4843TIP3    H136020   4.713   4.335  13.620 -1.4251  0.0724 -3.0424
 4843TIP3    H236021   4.582   4.389  13.674 -0.7801 -0.1359 -1.1771
 4844TIP3   OH236022   1.412   0.238  15.049  0.0401 -0.3906  0.2030
 4844TIP3    H136023   1.443   0.240  15.140  0.2312 -0.1973  0.1353
 4844TIP3    H236024   1.444   0.155  15.015 -0.0436 -0.4698  0.3161
 4845TIP3   OH236025   4.312   0.205  12.563 -0.8073 -0.2994  0.1664
 4845TIP3    H136026   4.308   0.181  12.470  0.5966  0.0488  0.0029
 4845TIP3    H236027   4.336   0.123  12.607  2.1205  0.2468 -0.1999
 4846TIP3   OH236028   4.610   0.470   1.169  0.2711  0.0617 -0.1857
 4846TIP3    H136029   4.575   0.466   1.079 -0.9905  1.9657  0.1590
 4846TIP3    H236030   4.704   0.481   1.158  0.2147 -0.4135 -1.2616
 4847TIP3   OH236031   3.159   0.602   5.817 -0.2296 -0.4100 -0.5138
 4847TIP3    H136032   3.190   0.655   5.744 -0.4566 -1.1688 -1.1779
 4847TIP3    H236033   3.093   0.657   5.861 -0.5373 -0.1846 -1.2511
 4848TIP3   OH236034   0.506   0.964  13.436  0.0655 -0.0384  0.1319
 4848TIP3    H136035   0.561   0.894  13.402  0.6867  0.8527 -0.7769
 4848TIP3    H236036   0.540   0.980  13.525  1.1805  0.3669 -0.3435
 4849TIP3   OH236037   5.784   0.367   1.700 -0.1645  0.3106 -0.4565
 4849TIP3    H136038   5.813   0.280   1.728  0.8164  0.8125  0.1188
 4849TIP3    H236039   5.745   0.352   1.614 -0.1712 -0.7248 -0.2911
 4850TIP3   OH236040   1.130   5.464  16.030  0.1468  0.4652 -0.3608
 4850TIP3    H136041   1.049   5.508  16.004 -0.8818 -1.2046 -0.0983
 4850TIP3    H236042   1.112   5.431  16.118 -0.1312 -2.7225 -1.5021
 4851TIP3   OH236043   2.696   2.163   4.884  0.2661  0.0079 -0.6392
 4851TIP3    H136044   2.785   2.127   4.876  0.0676 -1.0051  1.2052
 4851TIP3    H236045   2.640   2.097   4.843  0.0050 -1.4490  1.8626
 4852TIP3   OH236046   6.201   0.592   4.131 -0.2245 -0.6375  0.0248
 4852TIP3    H136047   6.190   0.682   4.162  0.0566  0.1458 -2.0304
 4852TIP3    H236048   6.294   0.585   4.108  0.0889 -1.9349  1.4501
 4853TIP3   OH236049   3.206   1.903   0.399  0.7595  0.3140 -0.2659
 4853TIP3    H136050   3.220   1.986   0.352  1.2317  2.6114  3.4714
 4853TIP3    H236051   3.288   1.855   0.387  2.4441  2.5816  1.2189
 4854TIP3   OH236052   1.609   3.324   5.014 -0.4463 -0.2303  0.3077
 4854TIP3    H136053   1.667   3.253   5.044 -1.3985 -2.8071 -3.2674
 4854TIP3    H236054   1.547   3.335   5.086  2.6080  0.6673  3.0842
 4855TIP3   OH236055   3.331   6.781   4.052  0.8789 -0.4679 -0.2486
 4855TIP3    H136056   3.368   6.827   3.977  0.5967  1.1606  0.5580
 4855TIP3    H236057   3.318   6.849   4.118 -2.3762 -1.1510 -0.0240
 4856TIP3   OH236058   6.425   4.663  15.740 -0.8885  0.2903 -0.1510
 4856TIP3    H136059   6.377   4.620  15.811 -0.1667 -0.4436 -0.1055
 4856TIP3    H236060   6.456   4.592  15.685 -1.4824  0.8595 -1.2485
 4857TIP3   OH236061   4.277   6.119   4.915  0.1804  0.1204  0.1178
 4857TIP3    H136062   4.253   6.051   4.978  0.1122  0.3631  0.3576
 4857TIP3    H236063   4.209   6.186   4.926  0.1759  0.1664 -0.2055
 4858TIP3   OH236064   5.356   5.004   3.821  0.3998  0.3647  0.8757
 4858TIP3    H136065   5.339   4.910   3.832  0.1039  0.3698  0.4566
 4858TIP3    H236066   5.436   5.019   3.872  0.2634 -0.0472  1.2247
 4859TIP3   OH236067   1.107   3.534  11.939  0.3131 -0.4508  0.2287
 4859TIP3    H136068   1.119   3.623  11.906  0.6429 -0.3711  0.5480
 4859TIP3    H236069   1.023   3.535  11.985  0.5461 -0.1688  0.6558
 4860TIP3   OH236070   2.028   5.828  13.760  0.0634  0.1379 -0.5512
 4860TIP3    H136071   2.011   5.783  13.678  0.1969  1.1331 -1.1493
 4860TIP3    H236072   1.944   5.866  13.785 -0.1278 -0.7079  0.1274
 4861TIP3   OH236073   4.004   4.144  11.663 -0.1156 -0.7672 -0.2559
 4861TIP3    H136074   3.937   4.077  11.670 -0.1502 -0.6380  0.9826
 4861TIP3    H236075   3.958   4.223  11.634 -0.2195 -1.0639 -0.9012
 4862TIP3   OH236076   2.265   2.226  12.318 -0.1441  0.2620 -0.1173
 4862TIP3    H136077   2.230   2.227  12.229 -0.7449  0.6768  0.1232
 4862TIP3    H236078   2.190   2.204  12.373  0.6947 -2.4684  0.0863
 4863TIP3   OH236079   3.599   0.822  16.402  0.2710 -0.3005 -0.3263
 4863TIP3    H136080   3.569   0.843  16.490  0.2108  0.4140 -0.5080
 4863TIP3    H236081   3.694   0.810  16.410  0.1456 -1.1652 -0.0021
 4864TIP3   OH236082   2.988   3.608  12.587 -0.2214 -0.4053 -0.2500
 4864TIP3    H136083   2.967   3.534  12.530 -0.4025 -1.7127  1.4238
 4864TIP3    H236084   3.074   3.638  12.558 -0.8407 -0.2423 -1.9692
 4865TIP3   OH236085   2.104   1.114  11.400 -0.4320  0.0047 -0.1008
 4865TIP3    H136086   2.082   1.157  11.483  0.1132  0.7522 -0.3275
 4865TIP3    H236087   2.175   1.167  11.364 -0.5570 -0.4005 -0.9724
 4866TIP3   OH236088   1.742   5.389  14.711 -0.3795 -0.1330  0.2170
 4866TIP3    H136089   1.677   5.339  14.661  0.6728 -1.4064  0.0590
 4866TIP3    H236090   1.825   5.344  14.694  0.0752 -0.4492  2.8418
 4867TIP3   OH236091   1.058   5.248   5.448  0.0427 -0.2699  0.2421
 4867TIP3    H136092   1.149   5.222   5.437  0.3953  1.3029 -0.7871
 4867TIP3    H236093   1.009   5.191   5.388  0.2807 -1.3308  1.0277
 4868TIP3   OH236094   2.670   3.231  13.764  0.3934  0.5923 -0.0212
 4868TIP3    H136095   2.738   3.265  13.706  2.0022 -0.3920  1.1625
 4868TIP3    H236096   2.715   3.221  13.849 -1.5189  0.8298  1.0666
 4869TIP3   OH236097   0.896   2.188   4.818 -0.0282 -0.2792 -0.0727
 4869TIP3    H136098   0.916   2.234   4.899  1.7426  2.2742 -1.8376
 4869TIP3    H236099   0.943   2.105   4.825 -1.0142 -0.7415  1.9952
 4870TIP3   OH236100   2.524   6.561  16.517 -0.1055  0.1259 -0.1833
 4870TIP3    H136101   2.598   6.621  16.505 -0.6040  1.2129  1.7502
 4870TIP3    H236102   2.468   6.606  16.580 -1.6376 -1.3955 -0.4197
 4871TIP3   OH236103   2.917   1.237  10.953  0.0537  0.4626  0.2236
 4871TIP3    H136104   2.866   1.177  10.899  1.7553 -1.1807  0.3221
 4871TIP3    H236105   2.987   1.268  10.896 -0.3908  1.8387  0.3869
 4872TIP3   OH236106   1.218   3.332  16.231  0.2546  0.2654 -0.1008
 4872TIP3    H136107   1.145   3.276  16.257  0.7283 -0.0870  0.4919
 4872TIP3    H236108   1.293   3.299  16.281  0.8570  0.5177 -0.8214
 4873TIP3   OH236109   3.481   3.550  10.759  0.2853  0.2237 -0.1504
 4873TIP3    H136110   3.558   3.492  10.756 -0.6041 -0.9547 -1.1225
 4873TIP3    H236111   3.410   3.498  10.720 -1.5377  0.4807  2.5579
 4874TIP3   OH236112   1.280   4.517   4.830  0.4231 -0.2552 -0.5436
 4874TIP3    H136113   1.280   4.423   4.811 -0.3315 -0.6445  1.1799
 4874TIP3    H236114   1.269   4.522   4.925 -0.1141  1.5942 -0.6695
 4875TIP3   OH236115   1.661   3.932  12.945 -0.0255 -0.1475 -0.1157
 4875TIP3    H136116   1.619   3.846  12.939 -1.0002  0.2663  0.4848
 4875TIP3    H236117   1.594   3.993  12.913  0.0263  0.5474  1.0525
 4876TIP3   OH236118   2.298   2.799   0.497 -0.2143 -0.0425  0.1392
 4876TIP3    H136119   2.213   2.800   0.541 -0.1315 -1.8149  0.3899
 4876TIP3    H236120   2.290   2.732   0.430  0.6183  0.5972 -0.6281
 4877TIP3   OH236121   3.622   5.076  12.489 -0.9549  0.5387  0.1941
 4877TIP3    H136122   3.548   5.019  12.509 -0.9822  1.0380  1.6520
 4877TIP3    H236123   3.698   5.031  12.527 -0.7241  0.7009 -0.0711
 4878TIP3   OH236124   1.803   0.663  16.418  0.5307 -0.2396 -0.1660
 4878TIP3    H136125   1.810   0.756  16.398 -1.8011  0.0494  0.0846
 4878TIP3    H236126   1.839   0.619  16.340 -0.7363  0.8718 -1.4223
 4879TIP3   OH236127   1.791   6.393   2.334  0.0045  0.1495 -0.2393
 4879TIP3    H136128   1.803   6.421   2.243 -0.0194  1.5006  0.1381
 4879TIP3    H236129   1.728   6.456   2.370 -0.1292 -0.4806  0.6622
 4880TIP3   OH236130   2.938   3.699  16.981 -0.1489 -0.0181  0.5302
 4880TIP3    H136131   2.918   3.789  16.954 -0.6409 -0.3210 -0.1436
 4880TIP3    H236132   2.978   3.659  16.903  0.4386 -0.2641  0.9551
 4881TIP3   OH236133   4.381   3.225   1.384  0.2151 -0.4531  0.0011
 4881TIP3    H136134   4.314   3.236   1.316 -0.2785  1.1125  0.6842
 4881TIP3    H236135   4.334   3.183   1.456  0.0480  0.2864  0.3332
 4882TIP3   OH236136   3.180   6.187   3.691 -0.4615 -0.7661  0.1892
 4882TIP3    H136137   3.131   6.243   3.631 -1.7163  0.6651  2.4630
 4882TIP3    H236138   3.264   6.231   3.701 -0.9475  0.0120  0.9226
 4883TIP3   OH236139   2.102   0.868   0.070  0.1800  0.2036 -0.1955
 4883TIP3    H136140   2.085   0.874   0.164  2.3375  0.3610  0.2473
 4883TIP3    H236141   2.126   0.957   0.045 -0.6821  0.2241 -0.9713
 4884TIP3   OH236142   6.259   0.317  13.159  0.3195  0.5433  0.7864
 4884TIP3    H136143   6.248   0.398  13.110  0.1552  0.5057  0.7619
 4884TIP3    H236144   6.319   0.265  13.106 -0.6384  0.0927  0.1171
 4885TIP3   OH236145   5.921   5.460  16.981 -0.5392 -0.6075  0.1803
 4885TIP3    H136146   5.911   5.458  16.886 -2.2086 -1.8993  0.3285
 4885TIP3    H236147   5.922   5.553  17.003  1.2621 -0.2494 -1.1760
 4886TIP3   OH236148   6.782   4.404   2.815  0.0313  0.2073 -0.1445
 4886TIP3    H136149   6.751   4.442   2.898 -0.9615  1.0579 -0.8730
 4886TIP3    H236150   6.832   4.475   2.773  1.9740 -0.7535  0.4416
 4887TIP3   OH236151   0.377   2.653  16.436  0.2741 -0.1898  0.7168
 4887TIP3    H136152   0.458   2.667  16.388  0.2192  1.2326  1.0032
 4887TIP3    H236153   0.405   2.643  16.528  0.1075  0.5461  0.8479
 4888TIP3   OH236154   3.632   6.037   0.463  0.2884 -0.2952 -0.2251
 4888TIP3    H136155   3.571   5.993   0.404  0.1941  1.2614 -1.3585
 4888TIP3    H236156   3.585   6.045   0.546 -1.2122  1.1079 -1.1544
 4889TIP3   OH236157   6.370   4.875   1.471  0.0430  0.5167 -0.6606
 4889TIP3    H136158   6.437   4.929   1.513 -0.0258 -1.7295  2.6431
 4889TIP3    H236159   6.288   4.921   1.488  0.0941 -0.0303  1.1997
 4890TIP3   OH236160   1.997   1.479  16.132 -0.2101  0.0536 -0.1810
 4890TIP3    H136161   1.923   1.539  16.138 -0.5909 -0.4890  0.7017
 4890TIP3    H236162   2.012   1.469  16.038  0.6162  2.4088 -0.3420
 4891TIP3   OH236163   5.564   1.990  15.768  0.0473 -0.3582 -0.7649
 4891TIP3    H136164   5.570   1.985  15.863  2.0200 -0.2636 -0.8371
 4891TIP3    H236165   5.572   2.084  15.748 -1.2933 -0.2759 -1.0034
 4892TIP3   OH236166   2.651   6.420  11.131  0.2722 -0.5639  0.4248
 4892TIP3    H136167   2.719   6.444  11.067 -0.0303 -0.3686  0.1727
 4892TIP3    H236168   2.577   6.391  11.077 -0.3639  0.5875  0.6425
 4893TIP3   OH236169   5.893   1.502  15.002  0.2709  0.0484  0.0529
 4893TIP3    H136170   5.840   1.566  15.049 -0.9642  0.9641 -2.4314
 4893TIP3    H236171   5.940   1.455  15.071 -1.3511  1.3370  2.1659
 4894TIP3   OH236172   2.602   6.222   1.235  0.3887  0.0460  0.3072
 4894TIP3    H136173   2.559   6.164   1.172 -0.7846  1.3545 -0.1510
 4894TIP3    H236174   2.695   6.198   1.229  0.0443 -1.2643 -0.3885
 4895TIP3   OH236175   6.242   5.930   6.811 -0.0292 -0.1689 -0.6355
 4895TIP3    H136176   6.215   5.841   6.786 -0.2524 -0.5271  0.7829
 4895TIP3    H236177   6.172   5.986   6.777 -0.2194 -0.6053 -0.9815
 4896TIP3   OH236178   2.955   0.279   2.529  0.4033  0.3857  0.3601
 4896TIP3    H136179   2.904   0.349   2.490  1.4275 -0.0728 -1.9433
 4896TIP3    H236180   2.891   0.228   2.579 -0.8301  1.4026 -0.1248
 4897TIP3   OH236181   2.249   5.928   2.656 -0.3003 -0.4841 -0.6692
 4897TIP3    H136182   2.269   5.856   2.597  2.8149 -0.4245  0.1683
 4897TIP3    H236183   2.235   6.003   2.598  0.7280 -0.8543 -1.4348
 4898TIP3   OH236184   3.366   3.561  15.591 -0.1575 -0.4680 -0.1666
 4898TIP3    H136185   3.366   3.478  15.637 -0.4552 -0.7450 -0.6630
 4898TIP3    H236186   3.298   3.613  15.634 -1.3056 -1.1703 -1.0703
 4899TIP3   OH236187   5.249   4.995  10.930  0.0727 -0.1020  0.1628
 4899TIP3    H136188   5.212   5.018  10.845  0.5837  1.5224  0.3375
 4899TIP3    H236189   5.331   5.045  10.935 -0.9273  1.5281  2.3958
 4900TIP3   OH236190   0.742   5.470  12.507  0.2179  0.2790 -0.4787
 4900TIP3    H136191   0.737   5.418  12.427 -0.2608  1.0087 -0.9354
 4900TIP3    H236192   0.795   5.417  12.567 -1.2739 -1.2987 -0.4850
 4901TIP3   OH236193   4.411   2.887  12.805  0.3731  0.3559  0.3778
 4901TIP3    H136194   4.329   2.936  12.807 -1.0711 -1.9392  1.5900
 4901TIP3    H236195   4.384   2.795  12.808  2.9779 -0.5129 -0.1877
 4902TIP3   OH236196   3.800   3.865   2.671  0.3671  0.0735  0.0219
 4902TIP3    H136197   3.786   3.913   2.590 -0.4703 -1.6289 -0.9020
 4902TIP3    H236198   3.738   3.903   2.733 -1.3192 -0.7131 -1.1119
 4903TIP3   OH236199   5.554   0.617   2.435  0.3839 -0.1797  0.3894
 4903TIP3    H136200   5.591   0.548   2.491  0.4368 -1.3671 -1.0505
 4903TIP3    H236201   5.472   0.640   2.478 -0.4852 -2.3715  0.0703
 4904TIP3   OH236202   2.604   4.111   1.755  0.3651 -0.4848  0.2018
 4904TIP3    H136203   2.584   4.089   1.846  1.7723 -1.2317  0.3520
 4904TIP3    H236204   2.536   4.067   1.704 -0.7932  0.4271  0.9008
 4905TIP3   OH236205   1.518   1.935  11.721  0.4141 -0.1055 -0.1823
 4905TIP3    H136206   1.536   2.015  11.672  0.3314  0.5420  0.8327
 4905TIP3    H236207   1.596   1.882  11.710  0.8520  0.5135 -0.0785
 4906TIP3   OH236208   4.557   3.896  11.782 -0.2352 -0.1970 -0.2634
 4906TIP3    H136209   4.586   3.804  11.781  1.2227  0.2177  0.2864
 4906TIP3    H236210   4.517   3.907  11.868 -1.3901 -0.5714 -0.7315
 4907TIP3   OH236211   1.248   4.175  12.704  0.3630 -0.1183  0.2622
 4907TIP3    H136212   1.229   4.211  12.617  1.7424  0.1197  0.0219
 4907TIP3    H236213   1.170   4.192  12.755 -0.0892  0.6621 -0.6558
 4908TIP3   OH236214   4.356   6.123   0.748 -0.1254 -0.2477  0.1739
 4908TIP3    H136215   4.276   6.174   0.734  0.6867  1.0068 -0.0156
 4908TIP3    H236216   4.426   6.188   0.750  0.7097 -1.1210  2.2734
 4909TIP3   OH236217   3.016   3.837  14.701  0.2276 -0.4128 -0.0802
 4909TIP3    H136218   2.955   3.895  14.656  0.3956 -1.2479 -1.4649
 4909TIP3    H236219   3.101   3.878  14.690  0.8283 -2.2307 -3.6900
 4910TIP3   OH236220   5.863   0.208  12.950 -0.2247 -0.0045 -0.4866
 4910TIP3    H136221   5.777   0.187  12.986 -0.1658  0.9157  0.2250
 4910TIP3    H236222   5.919   0.220  13.027  0.9528 -2.1268 -0.9266
 4911TIP3   OH236223   1.330   1.124  14.245 -0.5993 -0.4382 -0.2748
 4911TIP3    H136224   1.260   1.132  14.180 -1.4266  0.5110  0.6804
 4911TIP3    H236225   1.318   1.036  14.282 -0.2874 -0.8788 -1.2082
 4912TIP3   OH236226   4.275   4.901  13.793  0.7091  0.0722 -0.9819
 4912TIP3    H136227   4.263   4.969  13.728  1.8630 -0.0040 -1.2974
 4912TIP3    H236228   4.324   4.832  13.747  0.4502 -0.5279 -0.3829
 4913TIP3   OH236229   0.524   3.459   2.838  0.2824  0.3597  0.3278
 4913TIP3    H136230   0.603   3.479   2.888  0.6110 -2.4784  1.0987
 4913TIP3    H236231   0.499   3.371   2.866 -2.2270  0.5129 -1.1232
 4914TIP3   OH236232   0.010   1.595   3.576 -0.1377  0.3811 -0.1709
 4914TIP3    H136233  -0.072   1.576   3.531 -0.3159  1.4486 -0.3183
 4914TIP3    H236234   0.065   1.518   3.559 -1.6142 -1.0594  1.2149
 4915TIP3   OH236235   4.546   5.690   2.781  0.4593 -0.0408 -0.7649
 4915TIP3    H136236   4.517   5.707   2.691  0.8851 -1.7929 -1.2637
 4915TIP3    H236237   4.480   5.631   2.817  0.9448 -0.3348 -0.3445
 4916TIP3   OH236238   6.624   5.638  11.201 -0.2070  0.0736 -0.7304
 4916TIP3    H136239   6.587   5.654  11.114 -1.7900  1.3174  0.1181
 4916TIP3    H236240   6.583   5.557  11.229  0.8368 -0.7092 -1.3841
 4917TIP3   OH236241   5.231   1.306   2.898 -0.2095  0.0332 -0.4541
 4917TIP3    H136242   5.276   1.256   2.966 -0.8222  1.2985  0.9301
 4917TIP3    H236243   5.292   1.305   2.824  1.4462  0.3777  0.8326
 4918TIP3   OH236244   2.808   3.955  16.171  0.1931  0.1122  0.4111
 4918TIP3    H136245   2.727   3.987  16.130 -0.3428 -0.3669  1.0744
 4918TIP3    H236246   2.835   4.027  16.228  0.2949  0.3115  0.1162
 4919TIP3   OH236247   1.552   5.919  15.326  0.0764  0.3496 -0.0887
 4919TIP3    H136248   1.463   5.940  15.352  0.7171  0.5351  2.1974
 4919TIP3    H236249   1.557   5.824  15.330 -0.5510  0.1650 -2.3348
 4920TIP3   OH236250   3.826   4.374  10.283  0.0089  0.0070  0.1821
 4920TIP3    H136251   3.849   4.287  10.316  1.7896  0.1532 -0.5618
 4920TIP3    H236252   3.737   4.389  10.315 -0.1982 -1.9254  0.6323
 4921TIP3   OH236253   3.256   0.398   1.797 -0.1052 -0.4283 -0.0878
 4921TIP3    H136254   3.175   0.447   1.806  1.5966  2.6840 -0.4012
 4921TIP3    H236255   3.251   0.330   1.864 -1.8890  1.2530  1.6128
 4922TIP3   OH236256   5.909   0.938   0.156 -0.2255 -0.1704 -0.0532
 4922TIP3    H136257   5.930   1.010   0.096  1.1628  0.0272  0.6454
 4922TIP3    H236258   5.835   0.971   0.207  0.5277  0.8597  0.4001
 4923TIP3   OH236259   5.355   5.682   4.489 -0.4593  0.7772  0.4660
 4923TIP3    H136260   5.314   5.753   4.439  0.2990  1.2500  0.4989
 4923TIP3    H236261   5.314   5.687   4.575 -1.3148  0.3652  0.0918
 4924TIP3   OH236262   3.646   0.813   6.109 -0.3223 -0.2443 -0.4460
 4924TIP3    H136263   3.653   0.895   6.158 -1.8440 -1.0721  1.2822
 4924TIP3    H236264   3.731   0.771   6.122  0.3014  0.7999 -0.9414
 4925TIP3   OH236265   1.533   4.104  10.580 -0.6109  0.1259  0.0608
 4925TIP3    H136266   1.593   4.032  10.562 -1.5653 -0.4540 -0.9371
 4925TIP3    H236267   1.586   4.169  10.626  0.7671 -0.3722 -0.7744
 4926TIP3   OH236268   0.442   1.962   3.113 -0.5104 -0.0881 -0.1005
 4926TIP3    H136269   0.393   2.039   3.086 -0.3178 -0.1291 -0.5709
 4926TIP3    H236270   0.405   1.939   3.198  2.0132  2.8646  1.9981
 4927TIP3   OH236271   1.234   6.857  16.021  0.6658 -0.4556  0.3488
 4927TIP3    H136272   1.184   6.826  16.097 -1.0434  1.1740 -0.0591
 4927TIP3    H236273   1.229   6.785  15.958 -0.0115 -0.8386  0.8262
 4928TIP3   OH236274   3.658   5.008  15.375 -0.0555  0.0614  0.4257
 4928TIP3    H136275   3.659   4.969  15.462 -0.1651  1.1392  0.9188
 4928TIP3    H236276   3.617   4.941  15.319  0.7974 -0.9832  1.0164
 4929TIP3   OH236277   6.524   5.532   5.429  0.5714  0.3891 -0.2647
 4929TIP3    H136278   6.471   5.472   5.377  2.0906 -0.1340 -1.2748
 4929TIP3    H236279   6.500   5.619   5.396  1.0135  0.1017 -1.3612
 4930TIP3   OH236280   6.567   5.185  13.770 -0.2023 -0.0919  0.2314
 4930TIP3    H136281   6.581   5.270  13.729  1.3626  0.7396  2.3350
 4930TIP3    H236282   6.473   5.181  13.785 -0.6718  0.0959 -2.1571
 4931TIP3   OH236283   4.515   6.196   6.586  0.0006  0.0791  0.1542
 4931TIP3    H136284   4.453   6.133   6.623 -1.6530  0.7751 -1.2647
 4931TIP3    H236285   4.459   6.262   6.544  1.7092  0.6784 -1.2995
 4932TIP3   OH236286   5.538   2.317  13.811  0.3913 -0.3038 -0.2280
 4932TIP3    H136287   5.614   2.319  13.753  0.1109 -1.4324 -0.6552
 4932TIP3    H236288   5.550   2.393  13.869  1.4660 -0.0564 -0.7528
 4933TIP3   OH236289   2.174   6.048  16.333 -0.0641  0.2233 -0.4181
 4933TIP3    H136290   2.114   6.123  16.337 -0.0773  0.1902  0.0075
 4933TIP3    H236291   2.160   6.002  16.415 -2.7874 -2.3671 -2.1333
 4934TIP3   OH236292   0.969   1.914   0.696 -0.2810  0.2404 -0.4822
 4934TIP3    H136293   0.997   2.004   0.713 -0.9605  0.5494 -0.9550
 4934TIP3    H236294   1.048   1.862   0.709 -0.0999  0.7790  0.7879
 4935TIP3   OH236295   2.320   5.257   5.722 -0.6049  0.1655  0.0170
 4935TIP3    H136296   2.314   5.162   5.732 -0.7666  0.0990 -0.6959
 4935TIP3    H236297   2.236   5.290   5.754 -0.1322  0.1629  1.3055
 4936TIP3   OH236298   6.631   4.948  17.009  0.1483 -0.5760  0.0560
 4936TIP3    H136299   6.584   4.998  16.942 -0.2529 -1.0865 -0.0474
 4936TIP3    H236300   6.644   4.862  16.969  0.0135 -0.8457  0.5914
 4937TIP3   OH236301   3.276   3.020  13.571  0.8060 -0.2931 -0.0879
 4937TIP3    H136302   3.343   3.072  13.615 -1.9277  0.8824  3.1179
 4937TIP3    H236303   3.229   3.082  13.515 -1.0079  0.3043  1.9779
 4938TIP3   OH236304   4.726   6.077  13.118  0.0158  0.5088  0.4236
 4938TIP3    H136305   4.813   6.111  13.100  0.2653  0.3548  1.2722
 4938TIP3    H236306   4.692   6.132  13.189 -0.9122  1.0844 -0.4409
 4939TIP3   OH236307   3.344   0.016  15.830 -0.2783 -0.1044 -0.1623
 4939TIP3    H136308   3.415  -0.025  15.880 -0.2463  1.1462  0.8682
 4939TIP3    H236309   3.383   0.095  15.793 -1.4338  1.4187  1.6571
 4940TIP3   OH236310   6.194   2.216   4.057 -0.2738  0.3897 -0.0116
 4940TIP3    H136311   6.221   2.297   4.099  2.7661 -0.7593  0.4735
 4940TIP3    H236312   6.173   2.241   3.967 -1.3183  1.9627  0.6344
 4941TIP3   OH236313   6.794   5.515  12.547 -1.0140 -0.2746  0.1616
 4941TIP3    H136314   6.716   5.481  12.504 -0.9430  1.1138 -1.1476
 4941TIP3    H236315   6.863   5.509  12.481 -0.4899  0.3239  0.6305
 4942TIP3   OH236316   3.641   5.114  15.864  0.4404  0.0943 -0.1742
 4942TIP3    H136317   3.620   5.176  15.933  3.2490  0.3812  0.5468
 4942TIP3    H236318   3.669   5.035  15.911 -0.9033 -0.9572 -1.0623
 4943TIP3   OH236319   6.225   5.556   3.559  0.1947 -0.0622 -0.4698
 4943TIP3    H136320   6.141   5.602   3.572 -0.6205 -1.5563 -0.2382
 4943TIP3    H236321   6.215   5.475   3.608  1.8533 -0.2120 -0.3390
 4944TIP3   OH236322   1.705   1.420  13.732  0.5405  0.0033 -0.0467
 4944TIP3    H136323   1.697   1.434  13.826  1.2815 -0.9004  0.1544
 4944TIP3    H236324   1.723   1.508  13.697  0.1578  0.3624  0.6312
 4945TIP3   OH236325   2.315   4.501  16.643  0.1094 -0.1000  0.3053
 4945TIP3    H136326   2.326   4.419  16.596 -0.4278 -1.8835  3.0771
 4945TIP3    H236327   2.360   4.488  16.727 -1.8876  1.5582  1.7709
 4946TIP3   OH236328   1.295   2.327  16.356  0.1112  0.5715 -0.1933
 4946TIP3    H136329   1.304   2.395  16.289  0.3773 -0.3849 -1.1655
 4946TIP3    H236330   1.202   2.307  16.358 -0.2521  2.1413  1.3467
 4947TIP3   OH236331   2.761   3.702   6.359 -0.3561 -0.0481 -0.1153
 4947TIP3    H136332   2.732   3.637   6.423 -0.8596 -0.2101 -0.5041
 4947TIP3    H236333   2.704   3.778   6.375 -0.6951 -0.2014 -0.5744
 4948TIP3   OH236334   2.442   1.193  16.837 -0.3050  0.4311  0.0827
 4948TIP3    H136335   2.511   1.205  16.771  0.9683  0.7307  1.3969
 4948TIP3    H236336   2.483   1.221  16.919 -2.2665  1.3860  0.8038
 4949TIP3   OH236337   5.405   5.339  10.507 -0.3315  0.2884  0.1501
 4949TIP3    H136338   5.473   5.374  10.450  0.6046 -1.7606 -0.0692
 4949TIP3    H236339   5.356   5.417  10.535  2.5570  1.9974  0.9819
 4950TIP3   OH236340   0.947   5.841  14.631  0.6126  0.0183  0.0330
 4950TIP3    H136341   0.886   5.898  14.677 -0.7112 -1.7164  0.5109
 4950TIP3    H236342   0.970   5.773  14.694  2.0246 -0.0921 -0.5645
 4951TIP3   OH236343   1.525   2.111   2.016 -0.2179 -0.4885 -0.3688
 4951TIP3    H136344   1.493   2.042   1.959 -1.5646 -0.2714  0.0920
 4951TIP3    H236345   1.590   2.157   1.964  0.6252 -2.0175 -0.7217
 4952TIP3   OH236346   3.906   2.351  15.996  0.0928 -0.1349 -0.2088
 4952TIP3    H136347   3.860   2.424  15.955  1.3693  0.1701 -1.1134
 4952TIP3    H236348   3.841   2.314  16.057 -0.6048  1.6878  0.2272
 4953TIP3   OH236349   5.103   0.128   2.540 -0.1450  0.1371  0.4213
 4953TIP3    H136350   5.029   0.118   2.480  0.1423  0.5980 -0.0151
 4953TIP3    H236351   5.157   0.197   2.501  0.5987 -0.2981  0.6506
 4954TIP3   OH236352   4.267   5.202   2.885  0.1020 -1.0647  0.2634
 4954TIP3    H136353   4.291   5.163   2.969  1.3014  0.7201  0.7929
 4954TIP3    H236354   4.267   5.128   2.824  0.8648 -2.1320  1.4978
 4955TIP3   OH236355   1.049   4.977  15.898 -0.3255 -0.2862  0.1465
 4955TIP3    H136356   1.105   4.978  15.821 -0.8913  1.5941 -0.2940
 4955TIP3    H236357   0.960   4.967  15.864 -0.8209  2.7579  0.2703
 4956TIP3   OH236358   4.483   3.900   0.524  0.2477  0.7856  0.1128
 4956TIP3    H136359   4.515   3.844   0.453 -0.2329 -0.7562  1.0746
 4956TIP3    H236360   4.562   3.927   0.571  0.5020  1.1858 -0.5199
 4957TIP3   OH236361   2.373   0.198  11.575  0.1328 -0.4971  1.0036
 4957TIP3    H136362   2.360   0.175  11.483  1.7824  0.1945  0.5587
 4957TIP3    H236363   2.301   0.155  11.621 -1.0853 -0.3565 -0.6748
 4958TIP3   OH236364   4.028   5.598   6.243  1.4430 -0.5597  0.1642
 4958TIP3    H136365   3.935   5.623   6.251  1.5854 -0.2824  1.1209
 4958TIP3    H236366   4.048   5.554   6.326  2.5838  0.8527  0.6883
 4959TIP3   OH236367   1.825   0.609   1.830 -0.0232 -0.1693 -0.1592
 4959TIP3    H136368   1.746   0.580   1.877  0.4385  1.5384  1.7989
 4959TIP3    H236369   1.800   0.604   1.737 -2.3227  0.0062  0.3794
 4960TIP3   OH236370   1.493   6.709  13.926  0.0556 -0.7511  0.5195
 4960TIP3    H136371   1.409   6.710  13.971 -0.0061 -1.6426  0.4415
 4960TIP3    H236372   1.471   6.724  13.834  0.0025 -0.7851  0.5261
 4961TIP3   OH236373   3.588   6.105   4.504  0.0649 -0.0176  0.2435
 4961TIP3    H136374   3.509   6.095   4.451  0.4445  0.3858 -0.4177
 4961TIP3    H236375   3.621   6.016   4.516 -1.2547 -0.3511  1.7483
 4962TIP3   OH236376   0.828   5.574   4.213 -0.0637 -0.2535  0.8418
 4962TIP3    H136377   0.888   5.500   4.214 -0.5431 -0.6577  2.3243
 4962TIP3    H236378   0.752   5.545   4.264 -0.0675  1.3990  1.8462
 4963TIP3   OH236379   4.793   6.121   6.567  0.0152  0.3880  0.4550
 4963TIP3    H136380   4.699   6.136   6.557  0.0910  1.1695  0.8295
 4963TIP3    H236381   4.804   6.089   6.656  0.0626 -0.0795  0.2816
 4964TIP3   OH236382   2.490   3.646   1.550 -0.0599 -0.2072  0.1636
 4964TIP3    H136383   2.553   3.577   1.533 -2.4220 -2.3994 -0.4148
 4964TIP3    H236384   2.427   3.638   1.478 -1.5900  1.0795  1.2865
 4965TIP3   OH236385   0.572   1.168   0.519  0.3159 -0.0967 -0.4268
 4965TIP3    H136386   0.644   1.196   0.462 -0.7400 -1.1440 -2.3607
 4965TIP3    H236387   0.512   1.242   0.519  0.2971 -0.1103 -0.7277
 4966TIP3   OH236388   6.493   1.440  12.113 -0.1173  0.0480 -0.2537
 4966TIP3    H136389   6.531   1.372  12.169 -1.5423 -0.8597 -0.3476
 4966TIP3    H236390   6.520   1.416  12.025  0.4554  0.3479 -0.1655
 4967TIP3   OH236391   2.824   0.778   6.199  0.1653 -0.2230  0.4200
 4967TIP3    H136392   2.850   0.796   6.109 -1.1200 -0.7741 -0.0873
 4967TIP3    H236393   2.733   0.805   6.204 -0.6519 -2.7563  0.7240
 4968TIP3   OH236394   5.482   4.841   1.706  0.6259  0.3810  0.4415
 4968TIP3    H136395   5.442   4.805   1.785  0.5949 -1.1504 -0.2383
 4968TIP3    H236396   5.415   4.901   1.672  0.0760  0.0162  0.8493
 4969TIP3   OH236397   2.768   5.247   2.850  0.6113 -0.2493  0.0785
 4969TIP3    H136398   2.789   5.326   2.900  2.8622 -0.7264  0.0044
 4969TIP3    H236399   2.708   5.198   2.906  0.5566  0.7126  0.8899
 4970TIP3   OH236400   6.082   5.341   1.170  0.0057 -0.3669 -0.3515
 4970TIP3    H136401   6.018   5.364   1.103 -0.1593 -1.5272 -0.6112
 4970TIP3    H236402   6.146   5.413   1.169 -0.9152  0.4676 -0.5552
 4971TIP3   OH236403   1.883   3.756  12.749 -0.3019  0.1259  1.2004
 4971TIP3    H136404   1.873   3.827  12.685  0.9699 -0.2526  0.5481
 4971TIP3    H236405   1.887   3.799  12.834 -0.9412  0.7196  0.9380
 4972TIP3   OH236406   2.287   1.703   5.776 -0.3540 -0.6446  0.6924
 4972TIP3    H136407   2.242   1.666   5.700  0.4571 -0.0653 -0.0965
 4972TIP3    H236408   2.217   1.731   5.835 -1.1720  2.3533 -1.4775
 4973TIP3   OH236409   2.802   2.347   3.548 -0.5193  0.0250  0.4464
 4973TIP3    H136410   2.758   2.407   3.489  0.7428  1.8129  1.2117
 4973TIP3    H236411   2.886   2.389   3.567  0.5378 -2.1155  0.8488
 4974TIP3   OH236412   6.666   3.003   4.829 -0.5201  0.0797  0.0660
 4974TIP3    H136413   6.698   2.954   4.753 -0.0766 -1.6698  1.3009
 4974TIP3    H236414   6.593   2.951   4.862  0.5063 -0.2762  1.9321
 4975TIP3   OH236415   4.117   1.486  15.821 -0.0293 -0.5573 -0.0732
 4975TIP3    H136416   4.089   1.455  15.735  1.2754 -1.0120 -0.3635
 4975TIP3    H236417   4.152   1.408  15.864  0.0067 -0.1837  0.5854
 4976TIP3   OH236418   0.550   1.954   1.710 -0.3216  0.2665  0.3314
 4976TIP3    H136419   0.565   2.048   1.720  0.7667  0.0469  0.9692
 4976TIP3    H236420   0.546   1.941   1.615  1.2082  0.7399  0.1730
 4977TIP3   OH236421   3.726   4.241   6.074 -0.1777 -0.5405 -0.2134
 4977TIP3    H136422   3.782   4.262   6.150 -0.0082  1.2248 -0.7817
 4977TIP3    H236423   3.653   4.192   6.111  0.3292 -0.4454  0.9660
 4978TIP3   OH236424   2.692   2.539   2.310 -0.0554 -0.3630 -0.1827
 4978TIP3    H136425   2.681   2.499   2.396 -2.8487 -0.4182 -0.4833
 4978TIP3    H236426   2.644   2.622   2.316  1.0374  0.3747 -1.2275
 4979TIP3   OH236427   0.605   2.346  16.533  0.2855  0.4948  0.7299
 4979TIP3    H136428   0.523   2.312  16.496 -0.1350  1.4732  0.7312
 4979TIP3    H236429   0.641   2.273  16.583  0.4600 -0.6033 -0.9313
 4980TIP3   OH236430   5.744   5.048  15.596 -0.1735 -0.0890 -0.2171
 4980TIP3    H136431   5.708   4.991  15.664  1.1351 -0.2150  0.4140
 4980TIP3    H236432   5.757   4.989  15.521  2.2219 -0.9862  0.7869
 4981TIP3   OH236433   4.280   3.206  12.698  0.0582  0.1294  0.4955
 4981TIP3    H136434   4.272   3.148  12.622 -0.4219  1.0940 -0.2070
 4981TIP3    H236435   4.254   3.151  12.772  1.5448 -1.1319  0.1203
 4982TIP3   OH236436   0.898   0.482   1.722 -0.5283  0.0941  0.1785
 4982TIP3    H136437   0.904   0.389   1.703 -3.9550  0.3811 -3.6646
 4982TIP3    H236438   0.837   0.488   1.795  0.1074 -0.6813  0.7814
 4983TIP3   OH236439   2.005   2.210  11.809  0.7028  0.2010 -0.6029
 4983TIP3    H136440   2.042   2.241  11.892  1.8189  1.1283 -1.4123
 4983TIP3    H236441   1.933   2.153  11.835  0.7246  0.8444  1.0006
 4984TIP3   OH236442   4.988   3.011   4.036 -0.9579 -0.2039  0.0230
 4984TIP3    H136443   4.900   2.974   4.037 -1.1623  0.2622 -0.4812
 4984TIP3    H236444   4.996   3.055   4.121 -0.5495 -1.7448  0.8215
 4985TIP3   OH236445   4.577   1.415   3.688 -0.0174  0.2975 -0.3604
 4985TIP3    H136446   4.488   1.448   3.701  0.2993  2.1175 -2.2218
 4985TIP3    H236447   4.591   1.421   3.594  2.0384 -0.0562 -0.1213
 4986TIP3   OH236448   2.810   6.245   2.322 -0.2335 -0.2803 -0.1199
 4986TIP3    H136449   2.801   6.331   2.281  0.8812 -0.1519 -0.1401
 4986TIP3    H236450   2.749   6.189   2.274  0.0912  0.1706 -1.0962
 4987TIP3   OH236451   6.046   0.039   1.446  0.1797 -0.3206  0.1792
 4987TIP3    H136452   6.023   0.129   1.472  1.8938 -0.2430  1.6209
 4987TIP3    H236453   5.967  -0.012   1.463 -1.0961  1.0192 -1.4342
 4988TIP3   OH236454   3.564   5.653   5.166  1.0579  0.5757 -0.3125
 4988TIP3    H136455   3.621   5.674   5.240 -0.5814  1.1371  0.8369
 4988TIP3    H236456   3.513   5.578   5.196 -0.1580  1.2797 -0.5584
 4989TIP3   OH236457   5.111   2.862  16.611  0.1391 -0.1546  0.0370
 4989TIP3    H136458   5.107   2.956  16.594 -2.1660  0.3478  2.5610
 4989TIP3    H236459   5.178   2.854  16.680  1.0408 -0.5360 -0.8633
 4990TIP3   OH236460   4.638   4.881  12.491 -0.2259  0.2447  0.5439
 4990TIP3    H136461   4.698   4.806  12.491  1.7437  1.7253  0.9618
 4990TIP3    H236462   4.688   4.951  12.451 -2.0094  1.3628  0.1837
 4991TIP3   OH236463   1.007   3.719   5.669 -0.4980 -0.0762 -0.1004
 4991TIP3    H136464   1.024   3.671   5.749 -0.7439  0.1540  0.0925
 4991TIP3    H236465   1.025   3.657   5.599 -1.6086 -0.7103  0.1544
 4992TIP3   OH236466   0.225   2.155   1.635 -0.0340  0.6332  0.6780
 4992TIP3    H136467   0.187   2.167   1.722  1.3188  0.1844  1.3678
 4992TIP3    H236468   0.288   2.226   1.627  1.0463 -0.2848  0.7761
 4993TIP3   OH236469   4.627   1.380   3.958  0.0223 -0.0039  0.0821
 4993TIP3    H136470   4.717   1.360   3.983  1.1624  2.3527 -1.7269
 4993TIP3    H236471   4.623   1.363   3.864 -0.9154  1.3624 -0.1603
 4994TIP3   OH236472   3.274   4.810   1.252 -0.6629 -0.3374  0.3907
 4994TIP3    H136473   3.203   4.862   1.214 -0.9857 -2.2738 -1.9005
 4994TIP3    H236474   3.237   4.772   1.331 -1.6237 -0.0438  0.0870
 4995TIP3   OH236475   6.037   0.207   3.076  0.0955  0.1378  0.3606
 4995TIP3    H136476   5.996   0.147   3.139  1.8020 -2.3439 -0.7572
 4995TIP3    H236477   6.025   0.165   2.991  5.3632 -1.2988 -0.0345
 4996TIP3   OH236478   5.995   4.728   1.503  0.2300  0.1650 -0.2366
 4996TIP3    H136479   5.992   4.817   1.538  0.3174  0.2249 -0.3796
 4996TIP3    H236480   5.942   4.676   1.564  0.3080  0.2845 -0.0673
 4997TIP3   OH236481   5.350   4.809  12.701 -0.0689  0.2246  0.3362
 4997TIP3    H136482   5.358   4.780  12.792 -2.0070  0.0274  0.5073
 4997TIP3    H236483   5.431   4.781  12.659 -0.5006 -2.7556  1.2357
 4998TIP3   OH236484   2.996   3.093  15.926  0.0482 -0.3799  0.3522
 4998TIP3    H136485   3.036   3.007  15.934  2.0671  0.4597 -0.1121
 4998TIP3    H236486   3.040   3.146  15.993  0.2070  0.7507 -0.6148
 4999TIP3   OH236487   3.120   2.800  13.581 -0.2666  0.1743  0.3862
 4999TIP3    H136488   3.091   2.817  13.671 -0.2226  0.2825  0.3798
 4999TIP3    H236489   3.184   2.868  13.562 -2.1544  1.7606 -0.6245
 5000TIP3   OH236490   1.927   1.615  15.105 -0.0515 -0.5458 -0.3304
 5000TIP3    H136491   1.856   1.581  15.051  0.9787 -2.4364 -0.5934
 5000TIP3    H236492   1.888   1.628  15.192 -1.0725 -0.0324 -0.8533
 5001TIP3   OH236493   1.348   6.593  13.181  0.4327  0.0137 -0.4763
 5001TIP3    H136494   1.361   6.499  13.173 -1.1028 -0.2501 -0.2741
 5001TIP3    H236495   1.425   6.625  13.228 -0.0962 -1.5211  1.5943
 5002TIP3   OH236496   3.945   3.033  15.158  0.1442 -0.1934  0.0330
 5002TIP3    H136497   3.901   2.950  15.142 -0.5162 -0.1763  1.5292
 5002TIP3    H236498   4.023   3.031  15.102  0.5977 -2.1983  0.6445
 5003TIP3   OH236499   4.718   2.270  12.879  0.0290 -0.2955 -0.2402
 5003TIP3    H136500   4.785   2.212  12.915  1.9481  1.7192 -0.3749
 5003TIP3    H236501   4.688   2.227  12.799 -0.1322 -2.0507  0.7109
 5004TIP3   OH236502   6.638   0.032  13.180  0.3010  0.1341 -0.6866
 5004TIP3    H136503   6.560   0.020  13.234 -0.8353  2.5401 -1.6373
 5004TIP3    H236504   6.697  -0.039  13.206 -1.4997 -0.7332  1.2981
 5005TIP3   OH236505   3.824   6.629  16.583 -0.1619  0.3477  0.2718
 5005TIP3    H136506   3.854   6.548  16.625  1.1658 -0.2547 -1.6973
 5005TIP3    H236507   3.795   6.684  16.656 -0.0516 -1.4589  1.7653
 5006TIP3   OH236508   6.514   0.953   0.552 -0.0373  0.6121  0.1500
 5006TIP3    H136509   6.541   0.988   0.637 -1.4651 -1.3396  1.4742
 5006TIP3    H236510   6.423   0.979   0.543  0.6473  2.6918 -1.9012
 5007TIP3   OH236511   4.765   3.047  15.855 -0.3661 -0.5837  0.7424
 5007TIP3    H136512   4.784   3.114  15.921 -0.7828 -0.4572  0.7337
 5007TIP3    H236513   4.708   2.985  15.900 -1.1355 -0.1869  0.3260
 5008TIP3   OH236514   0.317   3.820  12.442 -0.2195 -0.2667  0.4019
 5008TIP3    H136515   0.303   3.741  12.389  0.5443 -0.5031  0.5441
 5008TIP3    H236516   0.232   3.864  12.442 -0.0135  0.2480 -1.8424
 5009TIP3   OH236517   1.471   0.356  11.299 -0.2583 -0.3551 -0.1370
 5009TIP3    H136518   1.517   0.433  11.333  1.3294 -1.1473 -0.3929
 5009TIP3    H236519   1.380   0.370  11.324  0.2597  0.8050  1.2848
 5010TIP3   OH236520   2.227   2.444   5.756 -0.1431 -0.4503  0.7655
 5010TIP3    H136521   2.155   2.387   5.783 -1.0088 -0.0721 -0.6428
 5010TIP3    H236522   2.273   2.394   5.688 -0.0775 -0.0307  0.4961
 5011TIP3   OH236523   0.058   5.589   4.073  0.2180  0.4673  0.2278
 5011TIP3    H136524   0.126   5.657   4.070 -0.4798  1.3519  2.2215
 5011TIP3    H236525   0.099   5.516   4.119 -0.1179  0.9872  1.3971
 5012TIP3   OH236526   6.371   1.962   5.097 -0.3784  0.2569 -0.4631
 5012TIP3    H136527   6.294   1.990   5.047  0.0408  0.1051 -1.2104
 5012TIP3    H236528   6.362   1.866   5.101 -1.9780  0.4297  2.3592
 5013TIP3   OH236529   4.370   1.037  16.233 -0.0813 -0.4248 -0.3895
 5013TIP3    H136530   4.442   0.997  16.282 -1.0670 -0.8920  0.7132
 5013TIP3    H236531   4.342   1.111  16.288 -0.0968  0.0855 -1.0691
 5014TIP3   OH236532   0.567   1.820  12.017  0.4629  0.1930  0.2924
 5014TIP3    H136533   0.650   1.792  12.057  0.5131  1.5151  1.1953
 5014TIP3    H236534   0.520   1.862  12.089 -0.3154  0.8637 -0.6007
 5015TIP3   OH236535   5.233   6.127   3.439  0.8966 -0.3515 -0.2625
 5015TIP3    H136536   5.229   6.178   3.520 -0.0080 -0.6114 -0.1331
 5015TIP3    H236537   5.158   6.157   3.388  1.7443  0.1744 -1.2400
 5016TIP3   OH236538   3.269   3.022  12.294 -0.2801  0.1118 -0.5282
 5016TIP3    H136539   3.313   3.044  12.376 -0.1739 -3.5931  0.6112
 5016TIP3    H236540   3.181   3.059  12.303 -0.0674  0.3358  0.9994
 5017TIP3   OH236541   4.237   6.268  16.586  0.0471 -0.4341 -0.4884
 5017TIP3    H136542   4.208   6.349  16.543 -0.7178 -1.0115 -1.0875
 5017TIP3    H236543   4.333   6.273  16.584  0.1000  1.7061  1.8780
 5018TIP3   OH236544   5.614   0.228  14.536 -0.2967  0.1684  0.5986
 5018TIP3    H136545   5.625   0.311  14.490 -0.9408 -0.7376 -1.3366
 5018TIP3    H236546   5.559   0.176  14.477  2.1771 -2.5510  0.4647
 5019TIP3   OH236547   4.062   5.739  13.404  0.1453 -0.5067  0.3676
 5019TIP3    H136548   4.078   5.831  13.425 -1.1573 -0.1872  0.0558
 5019TIP3    H236549   4.139   5.693  13.438  0.7628  0.6783  0.6286
 5020TIP3   OH236550   1.985   3.460   3.397  0.1558 -0.0644  0.1732
 5020TIP3    H136551   1.986   3.479   3.303  1.0075 -0.0265  0.1853
 5020TIP3    H236552   1.948   3.539   3.436  1.7704  0.8002  0.0367
 5021TIP3   OH236553   4.951   6.105   4.838  0.0269 -0.9347 -0.0322
 5021TIP3    H136554   5.018   6.047   4.801  0.3333 -1.4483  1.2701
 5021TIP3    H236555   4.937   6.171   4.771  0.9708 -1.5127 -0.8249
 5022TIP3   OH236556   3.804   0.663   2.329  0.3413 -0.0816 -0.5515
 5022TIP3    H136557   3.877   0.625   2.281  1.4041  0.3120  0.7169
 5022TIP3    H236558   3.828   0.755   2.343 -0.3754  0.0508 -0.0948
 5023TIP3   OH236559   2.181   1.220   1.900  0.6662  0.0768  0.1801
 5023TIP3    H136560   2.126   1.149   1.868  2.7070 -0.5525 -2.2957
 5023TIP3    H236561   2.168   1.291   1.837 -0.3660  1.5039  1.8979
 5024TIP3   OH236562   1.583   2.343  13.386  0.3062 -1.0134 -0.2997
 5024TIP3    H136563   1.621   2.313  13.304  1.5778 -0.5297  0.0927
 5024TIP3    H236564   1.522   2.274  13.411  1.7599 -2.3676 -0.3821
 5025TIP3   OH236565   1.856   3.872   1.479 -0.4208  0.4040  0.0820
 5025TIP3    H136566   1.784   3.932   1.496 -0.6049  0.5640 -1.1766
 5025TIP3    H236567   1.873   3.879   1.385 -0.6836 -1.7619 -0.1968
 5026TIP3   OH236568   3.774   6.444   0.303 -0.3935  0.4208  0.1785
 5026TIP3    H136569   3.825   6.402   0.233  0.2592 -1.4713  1.6797
 5026TIP3    H236570   3.726   6.514   0.259  0.1847 -0.5052 -2.1006
 5027TIP3   OH236571   2.752   0.916  12.886 -0.5849 -0.4977 -0.0506
 5027TIP3    H136572   2.725   0.897  12.976 -0.2228 -2.5174 -0.3354
 5027TIP3    H236573   2.685   0.876  12.831 -0.4119  0.0890 -0.7106
 5028TIP3   OH236574   1.282   0.286  17.084  0.2704 -0.3539  0.0889
 5028TIP3    H136575   1.346   0.245  17.026 -0.6924  0.2535 -1.4685
 5028TIP3    H236576   1.307   0.257  17.172  2.8747  0.1376 -0.4061
 5029TIP3   OH236577   4.448   1.609  11.609  0.5748  0.3119  0.2361
 5029TIP3    H136578   4.536   1.582  11.636  0.2762 -0.7887  0.1891
 5029TIP3    H236579   4.434   1.564  11.526  0.4884  1.5939 -0.4678
 5030TIP3   OH236580   6.015   4.615   0.883 -0.2765  0.1062 -0.2271
 5030TIP3    H136581   6.059   4.692   0.848 -0.4736  0.0845 -0.5237
 5030TIP3    H236582   5.950   4.650   0.945 -0.1808  0.1630 -0.1585
 5031TIP3   OH236583   0.332   6.181  17.081 -0.5151 -0.5887 -0.2276
 5031TIP3    H136584   0.324   6.086  17.072  1.1844 -0.6423 -1.6480
 5031TIP3    H236585   0.363   6.210  16.996 -1.1903  1.2962  0.1291
 5032TIP3   OH236586   2.148   4.089   3.713 -0.0531  0.1227  0.1474
 5032TIP3    H136587   2.127   4.022   3.779  0.6213 -0.6415 -0.3905
 5032TIP3    H236588   2.219   4.140   3.751  0.3886 -0.3679 -0.0090
 5033TIP3   OH236589   6.215   2.277   0.681  0.4645 -0.6211 -0.4169
 5033TIP3    H136590   6.288   2.258   0.740 -0.7382 -0.3966  1.2236
 5033TIP3    H236591   6.160   2.199   0.684  1.3941 -1.4877 -2.9666
 5034TIP3   OH236592   4.409   5.951   4.406  0.3902  0.1955 -0.3547
 5034TIP3    H136593   4.388   5.979   4.316 -0.4932 -0.0550 -0.2310
 5034TIP3    H236594   4.345   5.997   4.461  0.4954 -0.1775  0.0811
 5035TIP3   OH236595   2.997   4.608   2.901 -0.4318 -0.9011  0.1452
 5035TIP3    H136596   3.053   4.562   2.839 -0.6772 -0.1112 -0.6853
 5035TIP3    H236597   2.961   4.539   2.957 -2.3200 -2.0017 -2.2545
 5036TIP3   OH236598   4.912   2.138  13.049  0.9331  0.2524 -0.3017
 5036TIP3    H136599   4.936   2.128  13.141 -0.3699 -0.4944 -0.0155
 5036TIP3    H236600   4.939   2.227  13.027  1.0037  0.5457  0.8751
 5037TIP3   OH236601   2.861   0.740   4.920 -0.4954 -0.1895  0.1005
 5037TIP3    H136602   2.841   0.674   4.986  0.8912 -0.7349  0.0060
 5037TIP3    H236603   2.950   0.768   4.941 -0.3242  0.1947 -1.0770
 5038TIP3   OH236604   3.370   4.502  15.641  0.1400  0.8245  0.2044
 5038TIP3    H136605   3.286   4.481  15.682 -0.5458  1.4802 -0.8452
 5038TIP3    H236606   3.426   4.530  15.714  0.1230 -1.5098  1.2194
 5039TIP3   OH236607   1.171   3.670   2.085  0.0923 -0.2492 -0.3088
 5039TIP3    H136608   1.177   3.639   2.175 -0.2128 -1.1181 -0.5810
 5039TIP3    H236609   1.164   3.591   2.032  1.2665  0.1989 -1.1940
 5040TIP3   OH236610   0.792   2.823  11.005 -0.3263  0.2299  0.0405
 5040TIP3    H136611   0.767   2.891  10.942 -0.8893 -0.6678 -0.7251
 5040TIP3    H236612   0.804   2.744  10.952  1.3320 -0.0517  0.7749
 5041TIP3   OH236613   6.855   5.718   0.877  0.4831  0.7838  0.0613
 5041TIP3    H136614   6.797   5.648   0.849  1.5281 -0.1128  0.0554
 5041TIP3    H236615   6.798   5.782   0.919 -0.8228  1.0718 -2.0181
 5042TIP3   OH236616   2.002   2.781  12.925 -0.1561 -0.2951 -0.2104
 5042TIP3    H136617   1.910   2.799  12.903  0.2524 -0.7866 -2.6526
 5042TIP3    H236618   2.044   2.867  12.925 -0.7468  0.0384  1.8745
 5043TIP3   OH236619   4.690   1.311   4.391  0.0551 -0.0427 -0.1833
 5043TIP3    H136620   4.702   1.405   4.383  0.6337 -0.0083  0.9519
 5043TIP3    H236621   4.598   1.300   4.415  0.0509  0.2404 -0.0723
 5044TIP3   OH236622   0.513   2.423   2.482  0.0916 -0.3181 -0.1385
 5044TIP3    H136623   0.438   2.470   2.446 -0.9394 -1.3160  0.6094
 5044TIP3    H236624   0.487   2.331   2.478  1.2148 -0.6724  0.2952
 5045TIP3   OH236625   6.666   5.025   1.040  0.4714  0.2850 -0.1733
 5045TIP3    H136626   6.680   4.934   1.065  1.5433  0.3626 -0.4096
 5045TIP3    H236627   6.573   5.040   1.053  0.7124 -0.0353  2.5580
 5046TIP3   OH236628   5.244   1.812  14.742  0.0363 -0.2777  0.2131
 5046TIP3    H136629   5.338   1.829  14.737 -0.2348  0.8814 -1.8339
 5046TIP3    H236630   5.205   1.896  14.766 -0.6968  0.1824 -2.3003
 5047TIP3   OH236631   1.167   1.305  11.371  0.0406 -0.1158 -0.7279
 5047TIP3    H136632   1.240   1.271  11.422 -0.3756  1.4574  1.0219
 5047TIP3    H236633   1.096   1.315  11.434 -0.0650  3.2626 -1.1783
 5048TIP3   OH236634   5.752   1.003  14.136  0.8038  0.2195 -0.0901
 5048TIP3    H136635   5.784   1.093  14.140 -2.0406  1.3647 -0.8094
 5048TIP3    H236636   5.791   0.967  14.056  0.0414  1.6627 -1.1414
 5049TIP3   OH236637   3.619   2.488   0.543  0.3355 -0.0462  0.9349
 5049TIP3    H136638   3.542   2.494   0.600  0.2181  0.9467  0.6756
 5049TIP3    H236639   3.673   2.563   0.567  1.2292 -0.7233  1.1023
 5050TIP3   OH236640   2.869   3.655   0.125 -0.8251  0.1786  0.4374
 5050TIP3    H136641   2.880   3.660   0.030 -2.2854  3.1523  0.3253
 5050TIP3    H236642   2.785   3.610   0.137 -0.2708 -0.8990  0.3898
 5051TIP3   OH236643   0.810   5.668  13.709 -0.0550  0.0825 -0.0487
 5051TIP3    H136644   0.725   5.674  13.665  0.4504 -1.2401 -1.2698
 5051TIP3    H236645   0.861   5.740  13.672 -1.0794  1.8952  1.8471
 5052TIP3   OH236646   2.148   0.482   0.820 -0.5972  0.0149 -0.1822
 5052TIP3    H136647   2.068   0.500   0.870 -0.1756  0.0356  0.5012
 5052TIP3    H236648   2.125   0.407   0.764 -0.6377 -1.0041  1.1461
 5053TIP3   OH236649   4.426   6.442   4.393  0.5039  0.6075  0.0944
 5053TIP3    H136650   4.481   6.369   4.422  1.4049  1.1455 -0.2425
 5053TIP3    H236651   4.341   6.426   4.435  0.6300 -0.7398 -0.1308
 5054TIP3   OH236652   0.245   0.804  11.186  0.5497 -0.2094 -0.1822
 5054TIP3    H136653   0.199   0.857  11.120  0.3214 -0.2234 -0.0361
 5054TIP3    H236654   0.336   0.803  11.157  0.5235  0.1252 -0.2738
 5055TIP3   OH236655   4.631   3.512   6.363  0.8673 -0.1820  0.1827
 5055TIP3    H136656   4.670   3.431   6.327  1.5544  0.4937 -0.6501
 5055TIP3    H236657   4.537   3.498   6.356  0.9751 -0.9003  0.0129
 5056TIP3   OH236658   5.622   0.965   0.267  0.3232 -0.0994 -0.1875
 5056TIP3    H136659   5.590   0.985   0.355  1.2417 -1.5231  0.5174
 5056TIP3    H236660   5.595   0.875   0.251  3.1921 -1.1259  0.1557
 5057TIP3   OH236661   5.998   2.310   3.496 -0.2197  0.7607 -0.1097
 5057TIP3    H136662   5.940   2.384   3.478 -2.5826 -0.6460  1.2336
 5057TIP3    H236663   6.061   2.344   3.560  0.3221  2.2328 -1.3551
 5058TIP3   OH236664   2.442   6.632  14.361  0.7812  0.3994  0.2630
 5058TIP3    H136665   2.449   6.710  14.306 -1.1671  0.3986 -0.0596
 5058TIP3    H236666   2.483   6.658  14.444  0.6186  1.6039 -0.0065
 5059TIP3   OH236667   0.826   1.791   2.576 -0.4970 -1.1636  0.0127
 5059TIP3    H136668   0.893   1.813   2.512 -0.1980 -0.5628  0.5246
 5059TIP3    H236669   0.780   1.873   2.593 -0.5420 -1.3028  0.6028
 5060TIP3   OH236670   2.624   6.138  11.995  0.2325  0.0713 -0.2030
 5060TIP3    H136671   2.636   6.207  12.059 -1.4957 -1.7692  2.2851
 5060TIP3    H236672   2.571   6.178  11.926 -0.8676  1.1968  1.2416
 5061TIP3   OH236673   5.050   4.850  12.168  0.5052  0.5396  0.7603
 5061TIP3    H136674   4.985   4.779  12.162  0.7943  0.2957  0.4541
 5061TIP3    H236675   5.003   4.927  12.136  1.1240 -0.1590 -2.2159
 5062TIP3   OH236676   2.318   2.942   2.418  0.0974  0.5307  0.5254
 5062TIP3    H136677   2.299   2.852   2.391 -0.8816  0.8064  0.2498
 5062TIP3    H236678   2.308   2.941   2.513 -0.4516  0.4624  0.4706
 5063TIP3   OH236679   5.547   5.547  10.333  0.3921 -0.1713  0.2520
 5063TIP3    H136680   5.524   5.607  10.263  0.1644 -1.1961 -0.5755
 5063TIP3    H236681   5.591   5.602  10.399  1.7913  0.6017 -1.2636
 5064TIP3   OH236682   2.138   0.451   3.792 -0.2936  0.3872  0.1278
 5064TIP3    H136683   2.226   0.473   3.822  1.8483 -0.4096 -4.6986
 5064TIP3    H236684   2.133   0.356   3.798  0.6123  0.0848 -2.5411
 5065TIP3   OH236685   0.093   1.869   2.649 -0.5037 -0.4297  0.1905
 5065TIP3    H136686   0.042   1.929   2.594  1.0495 -1.0321 -2.0675
 5065TIP3    H236687   0.066   1.782   2.620 -0.6984 -0.7957  1.4437
 5066TIP3   OH236688   1.404   2.475   1.368  0.0220  0.5914 -0.5868
 5066TIP3    H136689   1.429   2.556   1.412  0.6987  0.7892 -1.2934
 5066TIP3    H236690   1.403   2.409   1.437 -0.8188  1.2534  0.0503
 5067TIP3   OH236691   0.433   5.381  13.045 -0.4193  0.2991  0.0629
 5067TIP3    H136692   0.519   5.413  13.018 -0.0466 -2.4727 -2.5933
 5067TIP3    H236693   0.450   5.299  13.092 -1.5682 -0.6562 -1.0976
 5068TIP3   OH236694   6.391   1.944  12.440 -0.6181  0.5444 -0.0272
 5068TIP3    H136695   6.420   1.953  12.349  0.3199  1.4379  0.3352
 5068TIP3    H236696   6.417   1.855  12.464  0.7759  0.8949 -0.1094
 5069TIP3   OH236697   2.854   5.804  12.126  0.0831 -0.1922  0.3662
 5069TIP3    H136698   2.878   5.713  12.146 -0.0508 -0.1372  0.7667
 5069TIP3    H236699   2.759   5.802  12.120  0.1440 -0.3431 -0.9111
 5070TIP3   OH236700   1.896   3.084  15.009 -0.2671  0.0573  0.3301
 5070TIP3    H136701   1.847   3.008  15.038  0.5684  0.1921  2.2286
 5070TIP3    H236702   1.863   3.156  15.063 -1.2165  1.1521 -1.5896
 5071TIP3   OH236703   2.322   6.393  11.320 -0.0334  0.0440 -0.1608
 5071TIP3    H136704   2.418   6.400  11.318  0.1357 -1.0039  1.8430
 5071TIP3    H236705   2.291   6.479  11.291  1.5197  0.5652 -0.3665
 5072TIP3   OH236706   3.644   1.388  11.864  0.0905  0.6812 -0.2870
 5072TIP3    H136707   3.590   1.466  11.879  1.8149  1.5476  1.9162
 5072TIP3    H236708   3.711   1.391  11.932  1.0421 -2.0446 -0.9554
 5073TIP3   OH236709   4.413   2.355  13.839  0.9900 -0.2291  0.6627
 5073TIP3    H136710   4.456   2.301  13.773  1.3535  0.2684  0.4846
 5073TIP3    H236711   4.437   2.313  13.922  0.0178 -1.2213  0.4714
 5074TIP3   OH236712   3.791   2.175  17.018  0.2279  0.0999  0.4092
 5074TIP3    H136713   3.836   2.103  17.061 -0.8911 -1.3458 -0.7052
 5074TIP3    H236714   3.723   2.202  17.080  1.1507  0.7386  1.1499
 5075TIP3   OH236715   2.399   6.008   1.455  0.4463  0.4208  0.2573
 5075TIP3    H136716   2.486   6.046   1.469  0.5071  0.2416  0.3755
 5075TIP3    H236717   2.354   6.071   1.400  1.1268 -0.1434 -0.9923
 5076TIP3   OH236718   0.919   0.287  13.303 -0.4155  0.3372 -0.2427
 5076TIP3    H136719   0.998   0.293  13.355 -0.8949 -0.0522  0.5417
 5076TIP3    H236720   0.897   0.378  13.282 -0.4180  0.5177  0.5374
 5077TIP3   OH236721   5.302   6.122   3.891  0.1439 -0.0640  0.2376
 5077TIP3    H136722   5.294   6.084   3.979  0.5499 -1.4843 -0.3284
 5077TIP3    H236723   5.365   6.067   3.846  0.9387  1.4367 -0.5520
 5078TIP3   OH236724   4.344   4.353   6.247  0.3131 -0.4676  0.0052
 5078TIP3    H136725   4.266   4.300   6.231  0.3554 -1.5500  2.9047
 5078TIP3    H236726   4.310   4.437   6.278  0.3185 -0.4052 -0.1522
 5079TIP3   OH236727   0.709   2.812   4.752 -0.0971  0.5466 -0.1147
 5079TIP3    H136728   0.654   2.879   4.711 -0.4418 -0.0786 -0.6857
 5079TIP3    H236729   0.798   2.838   4.730 -0.2731  0.2358 -1.2421
 5080TIP3   OH236730   4.538   1.515   1.002 -0.3617  0.3779  0.2377
 5080TIP3    H136731   4.446   1.525   1.027 -0.8205  0.9531 -1.5087
 5080TIP3    H236732   4.547   1.568   0.923  1.4368  0.1678  0.2577
 5081TIP3   OH236733   4.002   0.776   4.976 -0.8419 -0.5396  0.0334
 5081TIP3    H136734   3.960   0.859   4.952  0.5108  0.0943 -0.2466
 5081TIP3    H236735   4.005   0.778   5.071 -1.4934 -0.6349  0.0654
 5082TIP3   OH236736   0.062   1.020   4.094  0.3230  0.1616 -0.4377
 5082TIP3    H136737   0.137   1.080   4.096  0.5768 -0.1308 -1.0884
 5082TIP3    H236738  -0.001   1.063   4.036  1.7921 -1.6630 -3.6321
 5083TIP3   OH236739   4.032   5.149  11.049  0.2017  0.0419  0.3392
 5083TIP3    H136740   3.942   5.173  11.027  0.2864 -0.7948 -1.0547
 5083TIP3    H236741   4.027   5.057  11.074  0.4646  0.3896  1.7427
 5084TIP3   OH236742   5.253   2.155  12.329  0.4339  0.0066 -0.7213
 5084TIP3    H136743   5.207   2.190  12.406 -0.1612 -0.8225 -0.6811
 5084TIP3    H236744   5.336   2.202  12.327 -0.1084  1.0204 -0.3595
 5085TIP3   OH236745   4.880   2.143  15.853  0.3404 -0.1326 -0.2159
 5085TIP3    H136746   4.786   2.154  15.841  0.3396 -0.6119 -0.6742
 5085TIP3    H236747   4.890   2.054  15.885  0.7388 -0.5419 -1.4611
 5086TIP3   OH236748   0.209   3.173  12.952  0.5588 -0.0461 -0.0129
 5086TIP3    H136749   0.213   3.258  12.994 -0.7340 -0.6254  1.3959
 5086TIP3    H236750   0.289   3.167  12.900 -0.1715  2.7428 -1.6504
 5087TIP3   OH236751   1.909   6.519   1.068 -0.0134  0.4215 -0.4524
 5087TIP3    H136752   1.879   6.438   1.026  0.7635 -0.3191  0.3904
 5087TIP3    H236753   1.842   6.584   1.046 -0.8404 -0.5448 -0.8222
 5088TIP3   OH236754   0.071   5.558  15.696 -0.7624 -0.1166  1.0476
 5088TIP3    H136755   0.136   5.489  15.683 -2.1519 -1.1806 -0.8448
 5088TIP3    H236756   0.113   5.638  15.666 -0.2773 -0.7842 -0.1050
 5089TIP3   OH236757   0.724   4.978   4.824  0.2506  0.2859  1.0855
 5089TIP3    H136758   0.655   4.912   4.813  0.6285 -0.1884  1.5142
 5089TIP3    H236759   0.677   5.060   4.836 -0.2169  0.4000 -1.1952
 5090TIP3   OH236760   3.764   1.172  13.649 -0.5777 -0.1118 -0.5395
 5090TIP3    H136761   3.693   1.183  13.586 -1.0571  0.1261  0.0281
 5090TIP3    H236762   3.788   1.080  13.643 -1.6632 -0.4498  0.0174
 5091TIP3   OH236763   4.873   1.341   3.126 -0.2811  0.5106 -0.0103
 5091TIP3    H136764   4.780   1.360   3.140  0.2366  1.9428  1.8055
 5091TIP3    H236765   4.877   1.309   3.036 -2.4881  0.6700 -0.2233
 5092TIP3   OH236766   5.255   4.414  11.497  0.2355  0.2614  0.5642
 5092TIP3    H136767   5.337   4.366  11.499 -0.3484 -1.0387 -2.1480
 5092TIP3    H236768   5.197   4.366  11.557  0.3546 -1.0963 -0.3806
 5093TIP3   OH236769   0.392   4.344   6.111  0.6409  0.0206 -0.0706
 5093TIP3    H136770   0.429   4.360   6.198 -0.0273 -1.1251  0.4499
 5093TIP3    H236771   0.412   4.423   6.062  2.2983  0.1086  0.6825
 5094TIP3   OH236772   3.047   5.064   5.422 -0.2276  0.2578 -0.2222
 5094TIP3    H136773   3.004   5.017   5.350  1.3551 -0.9274 -0.4297
 5094TIP3    H236774   3.138   5.036   5.419  0.0043  0.6010  1.9171
 5095TIP3   OH236775   6.688   4.555   1.008 -0.5590 -0.4471 -0.2427
 5095TIP3    H136776   6.707   4.499   1.083 -1.0817 -1.0196 -0.5253
 5095TIP3    H236777   6.640   4.498   0.947 -1.1034  0.3039 -0.5327
 5096TIP3   OH236778   6.260   6.711   1.071 -0.2016  0.0399 -0.0281
 5096TIP3    H136779   6.331   6.668   1.023  0.1019 -2.4570  2.3903
 5096TIP3    H236780   6.304   6.780   1.121  0.1403 -0.0554 -0.1951
 5097TIP3   OH236781   5.169   6.368   3.555  0.2075  0.1390 -0.2516
 5097TIP3    H136782   5.100   6.381   3.619  1.1322 -0.5915  0.9464
 5097TIP3    H236783   5.136   6.407   3.474 -2.0342 -1.1250 -0.0044
 5098TIP3   OH236784   5.139   2.788   2.781  0.3479  0.3933 -0.1576
 5098TIP3    H136785   5.065   2.825   2.829 -0.7536 -0.7774 -0.8924
 5098TIP3    H236786   5.103   2.762   2.697  1.5670 -0.3617 -0.4746
 5099TIP3   OH236787   5.709   3.903   2.540  0.3869 -0.7150 -0.3611
 5099TIP3    H136788   5.656   3.832   2.575 -0.6113  0.8283  1.4671
 5099TIP3    H236789   5.699   3.896   2.445 -1.6820 -1.5377 -0.1427
 5100TIP3   OH236790   1.575   5.284  15.044  0.3224  0.2599 -0.3767
 5100TIP3    H136791   1.535   5.198  15.027 -0.3796  0.6994 -1.0063
 5100TIP3    H236792   1.514   5.346  15.004 -1.1166  1.3376  3.1324
 5101TIP3   OH236793   2.296   4.085  16.750 -0.6836 -0.3454  0.1039
 5101TIP3    H136794   2.238   4.160  16.739 -0.4169 -0.2441 -0.6003
 5101TIP3    H236795   2.265   4.021  16.685 -0.7838 -0.7774  0.5647
 5102TIP3   OH236796   1.602   1.189   1.675 -0.0339 -0.0149 -0.2781
 5102TIP3    H136797   1.607   1.241   1.595 -0.6935  1.3802  0.5506
 5102TIP3    H236798   1.509   1.171   1.686 -0.0304  0.4208  0.5392
 5103TIP3   OH236799   3.417   0.926  14.856  0.2151 -0.4451 -0.0104
 5103TIP3    H136800   3.481   0.911  14.786  1.4948 -0.0937  1.0500
 5103TIP3    H236801   3.386   0.839  14.879 -1.5679 -0.4795 -2.1657
 5104TIP3   OH236802   4.544   1.867  14.172  0.2424  0.5512  0.7448
 5104TIP3    H136803   4.561   1.901  14.084 -0.2246  3.3137  1.6422
 5104TIP3    H236804   4.454   1.894  14.191  0.2007 -0.3534  1.9362
 5105TIP3   OH236805   6.792   1.477   2.173 -0.0940  0.1356  1.0004
 5105TIP3    H136806   6.867   1.502   2.228  1.4919  0.2981 -1.1060
 5105TIP3    H236807   6.788   1.545   2.106 -2.1500  0.1004  1.0410
 5106TIP3   OH236808   1.078   3.665  14.330  0.0438 -0.2876 -0.3114
 5106TIP3    H136809   1.030   3.582  14.327 -2.2811  1.0049 -2.3459
 5106TIP3    H236810   1.015   3.727  14.366  1.7248  0.6685  1.1055
 5107TIP3   OH236811   0.019   6.708  14.138 -0.3900  0.1464  0.2279
 5107TIP3    H136812   0.022   6.798  14.104 -2.8845  0.0035 -0.5471
 5107TIP3    H236813   0.086   6.706  14.206 -0.7663  2.8288  0.8033
 5108TIP3   OH236814   0.259   4.123   2.795 -0.3401  0.1037  0.3993
 5108TIP3    H136815   0.169   4.121   2.827 -0.8157 -3.0212 -0.7494
 5108TIP3    H236816   0.254   4.169   2.711 -0.8566 -0.0645  0.3361
 5109TIP3   OH236817   3.111   1.904  14.365  0.3481 -0.2826 -0.4659
 5109TIP3    H136818   3.133   1.946  14.449 -2.5352  1.1494 -0.2960
 5109TIP3    H236819   3.177   1.937  14.304  1.4705  0.0195  0.8395
 5110TIP3   OH236820   0.768   1.781   3.899  0.4298  0.3309  0.2687
 5110TIP3    H136821   0.759   1.772   3.994 -0.9291  1.5040  0.3026
 5110TIP3    H236822   0.818   1.705   3.871 -1.2322 -1.3581  1.6454
 5111TIP3   OH236823   1.980   3.413   0.853  0.3138 -0.2115 -0.0431
 5111TIP3    H136824   2.005   3.423   0.945  1.3452 -1.6253 -0.1411
 5111TIP3    H236825   1.918   3.340   0.853 -0.5534  0.5018 -0.3560
 5112TIP3   OH236826   0.644   6.544   1.598 -0.5996 -0.2169 -0.2932
 5112TIP3    H136827   0.588   6.495   1.659  1.4550 -1.9582  0.3239
 5112TIP3    H236828   0.733   6.527   1.629  0.3366  2.0286 -1.5308
 5113TIP3   OH236829   5.338   0.684   2.584 -0.2537  0.6808 -0.5469
 5113TIP3    H136830   5.350   0.777   2.601 -1.2289  1.0710 -1.8710
 5113TIP3    H236831   5.243   0.672   2.578 -0.3710 -0.9550  2.3496
 5114TIP3   OH236832   4.248   3.982   0.385 -0.6145  0.6475  0.2237
 5114TIP3    H136833   4.267   4.071   0.357  0.0455  0.0490 -1.3329
 5114TIP3    H236834   4.333   3.947   0.414 -0.0809 -0.5658 -2.4941
 5115TIP3   OH236835   4.749   4.457   2.999  0.8635 -0.2197 -0.6370
 5115TIP3    H136836   4.686   4.391   2.967 -1.2729  1.7198 -0.6876
 5115TIP3    H236837   4.820   4.405   3.037 -0.7817 -2.5627 -0.5325
 5116TIP3   OH236838   2.108   6.244  11.784  0.3003  0.1840  0.0307
 5116TIP3    H136839   2.080   6.268  11.696  3.0588  1.5792 -0.5868
 5116TIP3    H236840   2.142   6.325  11.821  0.4370 -0.6715  1.8855
 5117TIP3   OH236841   2.834   4.126   0.569  0.1651 -0.4053  0.0955
 5117TIP3    H136842   2.922   4.132   0.530 -0.9254  0.6280 -2.4200
 5117TIP3    H236843   2.838   4.047   0.623  2.2589 -1.1705 -1.0412
 5118TIP3   OH236844   0.176   2.301  14.401  0.2506 -0.3171  0.5986
 5118TIP3    H136845   0.193   2.231  14.339 -0.7910  0.8198 -1.0636
 5118TIP3    H236846   0.097   2.274  14.448  0.5662 -0.8036  0.8529
 5119TIP3   OH236847   0.233   4.793  16.618  0.0453 -0.6716 -0.6731
 5119TIP3    H136848   0.212   4.713  16.667  1.4197 -0.2313  0.6971
 5119TIP3    H236849   0.156   4.849  16.628 -0.0721 -0.9780  0.1690
 5120TIP3   OH236850   6.447   3.169   3.752 -0.2026  0.5043 -0.1173
 5120TIP3    H136851   6.529   3.185   3.705 -0.3190  0.8911 -0.1995
 5120TIP3    H236852   6.398   3.110   3.695 -1.4099  2.9175 -1.7687
 5121TIP3   OH236853   0.604   4.465   0.077  0.3841  0.3148 -0.0199
 5121TIP3    H136854   0.591   4.548   0.032  0.6285  0.6541  0.5236
 5121TIP3    H236855   0.516   4.434   0.096  0.2995  0.6235  0.0910
 5122TIP3   OH236856   2.049   2.920   2.328  0.8550  0.7520  0.0073
 5122TIP3    H136857   2.025   3.003   2.286 -0.0697 -0.2022 -1.4480
 5122TIP3    H236858   2.102   2.875   2.262  3.0452  0.9744  1.5318
 5123TIP3   OH236859   3.279   4.344  12.341  0.0358  1.0504 -0.0785
 5123TIP3    H136860   3.231   4.314  12.263  0.4084 -1.6317  0.6017
 5123TIP3    H236861   3.366   4.306  12.331  0.6393  2.1332  0.8430
 5124TIP3   OH236862   6.231   0.794  12.221  0.1929 -0.1017  0.4351
 5124TIP3    H136863   6.173   0.827  12.290 -0.2466  0.2843 -0.0989
 5124TIP3    H236864   6.289   0.868  12.201  0.2591 -0.1808  0.3328
 5125TIP3   OH236865   6.004   6.728   5.537 -0.0698  0.4149  0.7824
 5125TIP3    H136866   6.020   6.812   5.578  0.1657  0.7715 -0.0148
 5125TIP3    H236867   5.958   6.749   5.455  2.0222 -0.0153 -0.5790
 5126TIP3   OH236868   6.048   1.105  14.435  0.1110  0.3613 -0.3758
 5126TIP3    H136869   6.005   1.191  14.440  0.0625  0.2734  1.2202
 5126TIP3    H236870   6.094   1.097  14.519 -0.4981 -1.4924 -0.1874
 5127TIP3   OH236871   3.334   4.827   2.518 -0.2245 -0.3222  0.2702
 5127TIP3    H136872   3.383   4.744   2.525  1.6943  0.8278  1.2827
 5127TIP3    H236873   3.249   4.807   2.557  0.3962 -1.6909  1.0111
 5128TIP3   OH236874   4.942   5.311   2.627  0.0477  0.3819 -0.3115
 5128TIP3    H136875   4.889   5.381   2.665  0.2454  0.1306  0.4533
 5128TIP3    H236876   5.028   5.350   2.615 -0.2897  0.7922 -1.5607
 5129TIP3   OH236877   2.026   3.833  16.504  0.2431  0.4201 -0.2195
 5129TIP3    H136878   2.105   3.853  16.555 -0.7849  0.5057  1.3922
 5129TIP3    H236879   2.038   3.742  16.476  0.5465  0.1626  0.7155
 5130TIP3   OH236880   0.876   6.409   2.135 -0.1715 -0.0943 -1.0528
 5130TIP3    H136881   0.948   6.470   2.150 -0.4157  0.6001 -2.5047
 5130TIP3    H236882   0.821   6.452   2.069 -0.2801 -1.9196 -2.2310
 5131TIP3   OH236883   5.070   6.293  15.605  0.1404  0.3124  0.4194
 5131TIP3    H136884   5.056   6.280  15.699 -0.8163  1.6585  0.4859
 5131TIP3    H236885   5.125   6.371  15.600  0.7575 -0.1542 -0.1274
 5132TIP3   OH236886   6.083   5.240   5.960  0.6114  0.8368 -0.0052
 5132TIP3    H136887   6.110   5.205   6.044 -0.7097  2.7287  1.2919
 5132TIP3    H236888   6.145   5.312   5.943  1.4285 -0.0875 -1.1440
 5133TIP3   OH236889   3.839   6.156  14.928 -0.4815  0.1980 -0.7876
 5133TIP3    H136890   3.814   6.137  14.838  0.7912 -0.4078 -1.0428
 5133TIP3    H236891   3.775   6.109  14.981  0.3600 -1.7735 -1.4173
 5134TIP3   OH236892   2.437   5.493   4.071  0.5298 -0.5230 -0.9963
 5134TIP3    H136893   2.458   5.433   4.143 -0.4805 -0.2137 -0.4325
 5134TIP3    H236894   2.360   5.454   4.029  1.0261 -0.6248 -1.8329
 5135TIP3   OH236895   0.458   2.321  14.341  0.3367 -0.3586  0.0824
 5135TIP3    H136896   0.380   2.353  14.387  0.5293  3.2316 -1.7740
 5135TIP3    H236897   0.529   2.334  14.404  0.1498  1.5306 -0.0329
 5136TIP3   OH236898   2.368   6.183  13.824 -0.2609  0.1538 -0.0178
 5136TIP3    H136899   2.450   6.233  13.831  0.1594 -0.6973  1.8992
 5136TIP3    H236900   2.384   6.104  13.876 -2.0790 -0.3492 -0.1597
 5137TIP3   OH236901   3.134   4.551   0.286 -0.0799  0.4821  0.2646
 5137TIP3    H136902   3.158   4.536   0.378 -0.9416  0.2168  0.4555
 5137TIP3    H236903   3.175   4.478   0.239 -0.9449 -0.2990  0.6657
 5138TIP3   OH236904   0.320   2.571  13.503 -0.1590  0.0319  0.2154
 5138TIP3    H136905   0.387   2.639  13.507 -0.7570  0.7339 -1.0611
 5138TIP3    H236906   0.295   2.556  13.594  1.4527  0.0021  0.6933
 5139TIP3   OH236907   3.298   3.508   3.919 -0.1569 -0.2234 -0.1949
 5139TIP3    H136908   3.273   3.416   3.907 -0.3798 -0.1327 -0.4297
 5139TIP3    H236909   3.270   3.529   4.008 -1.4138  0.0339 -0.6384
 5140TIP3   OH236910   3.517   3.315  14.855 -0.3628 -0.2726  0.8649
 5140TIP3    H136911   3.445   3.251  14.854  0.9215 -1.7758  0.3931
 5140TIP3    H236912   3.531   3.335  14.947 -0.0993 -1.5043  1.1093
 5141TIP3   OH236913   5.364   1.822   9.960 -0.6243  0.0761 -0.5142
 5141TIP3    H136914   5.272   1.845   9.973  0.0815  2.6053  0.5343
 5141TIP3    H236915   5.411   1.870  10.028  1.2717 -3.5626  1.0247
 5142TIP3   OH236916   6.798   0.395   4.757 -0.3375 -0.4320  0.4668
 5142TIP3    H136917   6.781   0.318   4.811  1.9391 -0.2297  1.6018
 5142TIP3    H236918   6.805   0.467   4.819 -2.0740  0.7040 -0.5457
 5143TIP3   OH236919   1.508   6.128  16.734 -0.1898  0.5482  0.3548
 5143TIP3    H136920   1.561   6.204  16.710 -1.1345  1.1731  0.2309
 5143TIP3    H236921   1.447   6.161  16.800 -0.1484 -0.2681  0.8143
 5144TIP3   OH236922   6.279   6.692  12.423 -0.0504  0.1057 -0.4924
 5144TIP3    H136923   6.202   6.723  12.471 -1.2414 -0.1245 -2.1806
 5144TIP3    H236924   6.323   6.772  12.394  1.4287  0.2948  1.9846
 5145TIP3   OH236925   5.389   6.219  13.232 -0.0375 -0.0376  0.1716
 5145TIP3    H136926   5.445   6.289  13.198  0.6333 -0.9543 -0.6674
 5145TIP3    H236927   5.392   6.230  13.327 -3.3552  3.6892  0.1215
 5146TIP3   OH236928   3.368   3.590  14.891 -0.3263  0.0304  0.1830
 5146TIP3    H136929   3.339   3.621  14.977 -0.2054 -0.4876  0.4189
 5146TIP3    H236930   3.434   3.524  14.912 -0.0448  0.1535 -0.3191
 5147TIP3   OH236931   1.699   1.056   4.808  0.3729  0.0805 -0.1631
 5147TIP3    H136932   1.671   1.146   4.791 -1.0073 -0.3076 -0.0069
 5147TIP3    H236933   1.773   1.066   4.869  0.3855  1.1088 -0.3237
 5148TIP3   OH236934   0.394   1.641  16.677 -0.0358 -0.7994 -0.2006
 5148TIP3    H136935   0.336   1.589  16.621  0.3616 -0.5912 -0.8022
 5148TIP3    H236936   0.335   1.678  16.743 -0.5356 -0.8777 -0.5975
 5149TIP3   OH236937   4.321   1.001   5.367 -0.1755  0.3739  0.0819
 5149TIP3    H136938   4.338   1.071   5.304 -0.7892  0.7463  0.3180
 5149TIP3    H236939   4.228   1.010   5.388 -0.3999 -0.8733 -0.3034
 5150TIP3   OH236940   3.965   3.134   4.131 -0.1471 -0.1815  0.4537
 5150TIP3    H136941   3.955   3.172   4.218  0.4796 -1.3199  1.0444
 5150TIP3    H236942   3.876   3.106   4.107 -0.3177  0.1106  0.7360
 5151TIP3   OH236943   0.956   6.709   2.290  0.0284  0.1671  0.7049
 5151TIP3    H136944   1.000   6.779   2.243 -1.3387 -1.3103 -3.2522
 5151TIP3    H236945   0.869   6.744   2.310 -0.1767  0.1333 -0.0559
 5152TIP3   OH236946   5.470   6.126   1.002  0.5441 -0.0559 -0.2649
 5152TIP3    H136947   5.523   6.148   1.079 -1.3289 -0.8144  1.3419
 5152TIP3    H236948   5.465   6.031   1.003  0.3433 -0.0630 -1.2292
 5153TIP3   OH236949   1.407   5.074  12.619 -0.5637  0.0241  0.0977
 5153TIP3    H136950   1.344   5.003  12.636 -1.0702  0.6663  1.0213
 5153TIP3    H236951   1.360   5.134  12.562  0.9151 -1.8083 -3.4033
 5154TIP3   OH236952   4.150   0.620   2.899  0.2685 -0.3848 -0.1211
 5154TIP3    H136953   4.127   0.711   2.881 -2.1215 -0.5948  1.3946
 5154TIP3    H236954   4.243   0.622   2.920  0.9720  1.2080 -2.8944
 5155TIP3   OH236955   6.505   1.339   3.133 -0.0560  0.8354 -0.0760
 5155TIP3    H136956   6.575   1.275   3.140  0.9089  1.8257 -0.4009
 5155TIP3    H236957   6.425   1.287   3.134  0.4941 -0.1605  3.3071
 5156TIP3   OH236958   0.494   1.087   3.760 -0.1927 -0.3133  0.4536
 5156TIP3    H136959   0.570   1.034   3.734 -1.3662 -2.0324  0.3268
 5156TIP3    H236960   0.456   1.039   3.833 -2.2004 -0.5259 -0.6563
 5157TIP3   OH236961   3.498   6.812  15.471 -0.0071  0.0363 -0.5595
 5157TIP3    H136962   3.422   6.838  15.420 -1.9389 -0.2466  2.0098
 5157TIP3    H236963   3.521   6.890  15.521 -1.1823 -0.9362  1.6307
 5158TIP3   OH236964   0.305   3.767  11.890  0.1243  0.1824 -0.2571
 5158TIP3    H136965   0.330   3.836  11.952 -0.6859  0.0634  0.2175
 5158TIP3    H236966   0.386   3.720  11.872  0.7569  1.4430 -0.8299
 5159TIP3   OH236967   6.035   1.215  16.989  0.0478 -0.0172  0.7665
 5159TIP3    H136968   5.977   1.154  16.944  0.1095  1.0738 -0.8364
 5159TIP3    H236969   6.123   1.176  16.980  0.5965  1.6778 -2.9841
 5160TIP3   OH236970   1.339   5.346  11.084  0.4974 -0.4792 -0.3717
 5160TIP3    H136971   1.381   5.394  11.012  2.4782 -0.4228  0.7697
 5160TIP3    H236972   1.388   5.264  11.090 -1.3684 -1.6865 -0.7763
 5161TIP3   OH236973   3.528   0.395   4.068 -0.0633  0.2425 -0.5201
 5161TIP3    H136974   3.446   0.366   4.028 -1.3513  0.6837  1.6589
 5161TIP3    H236975   3.508   0.481   4.105  1.0432 -0.1013  0.9976
 5162TIP3   OH236976   3.237   6.512  11.539  0.3209  0.0160 -0.5032
 5162TIP3    H136977   3.184   6.433  11.543 -0.0916  0.1680 -2.4330
 5162TIP3    H236978   3.327   6.480  11.528  0.4734 -0.1966  1.0816
 5163TIP3   OH236979   5.205   4.215  17.093  0.2281 -0.1570 -0.9886
 5163TIP3    H136980   5.123   4.226  17.141  1.0554  1.6120  0.1190
 5163TIP3    H236981   5.193   4.268  17.014  1.0588  2.0050  0.2497
 5164TIP3   OH236982   2.731   6.591   3.711  0.3071  0.6538 -0.0836
 5164TIP3    H136983   2.825   6.604   3.720  0.4991 -1.4447  1.9002
 5164TIP3    H236984   2.722   6.526   3.641  0.2152  1.8183 -1.1746
 5165TIP3   OH236985   1.418   3.436  14.714 -0.6486  0.5339 -0.2350
 5165TIP3    H136986   1.429   3.437  14.809 -0.7052  1.7843 -0.2235
 5165TIP3    H236987   1.385   3.524  14.693  1.3908  1.0129 -1.6407
 5166TIP3   OH236988   1.100   1.562   2.186 -0.7826  0.0991 -0.7018
 5166TIP3    H136989   1.110   1.629   2.252 -0.1833 -0.7446  0.0890
 5166TIP3    H236990   1.189   1.547   2.153 -1.3487  2.3805 -3.6505
 5167TIP3   OH236991   5.627   0.532   1.192 -0.4241  0.5756 -0.0997
 5167TIP3    H136992   5.567   0.575   1.253 -0.0152 -0.1816  0.8527
 5167TIP3    H236993   5.570   0.485   1.131 -0.8203  0.9206 -0.0021
 5168TIP3   OH236994   4.440   1.780  15.422  0.4959  0.2139  0.0486
 5168TIP3    H136995   4.470   1.696  15.388 -0.6395  0.7814 -2.6240
 5168TIP3    H236996   4.398   1.759  15.505  0.8390 -1.7476 -0.2337
 5169TIP3   OH236997   1.354   1.465   2.372  0.0497 -0.1589  0.1874
 5169TIP3    H136998   1.432   1.416   2.398  1.0017  0.7323 -0.8708
 5169TIP3    H236999   1.283   1.401   2.377  1.3174 -1.8458 -1.6427
 5170TIP3   OH237000   6.291   1.465  11.464  0.2642  0.4036  1.0729
 5170TIP3    H137001   6.249   1.405  11.403  0.3403 -0.3401  1.7477
 5170TIP3    H237002   6.351   1.411  11.514  0.5509  1.0973  1.4964
 5171TIP3   OH237003   4.709   4.140  15.606 -0.6627  0.1894 -0.1668
 5171TIP3    H137004   4.613   4.139  15.602 -0.6506  0.9444 -0.9558
 5171TIP3    H237005   4.732   4.233  15.610  0.0965  0.1592 -2.5588
 5172TIP3   OH237006   5.312   0.099   2.909  0.2121  0.0180 -0.5284
 5172TIP3    H137007   5.248   0.115   2.839  0.3395 -2.0129 -1.1913
 5172TIP3    H237008   5.356   0.183   2.922 -2.0754  1.2884 -0.5563
 5173TIP3   OH237009   1.942   6.593  15.716  0.6143  0.2168  0.0055
 5173TIP3    H137010   1.885   6.661  15.680  1.1447  0.6026 -0.1037
 5173TIP3    H237011   1.983   6.633  15.792 -3.2220 -1.6444  3.4476
 5174TIP3   OH237012   3.477   5.460  11.571  0.5270  0.2917  0.6309
 5174TIP3    H137013   3.443   5.460  11.661 -0.7654  1.5357  0.1686
 5174TIP3    H237014   3.428   5.529  11.527 -0.9304 -2.1266 -1.8249
 5175TIP3   OH237015   5.310   1.379  17.081 -0.1822 -0.1284  0.3284
 5175TIP3    H137016   5.292   1.409  17.170 -2.1009 -0.6886  0.1667
 5175TIP3    H237017   5.358   1.451  17.040 -0.1236  0.5230  1.5174
 5176TIP3   OH237018   1.390   4.864  15.706 -0.3945  0.8126 -0.3121
 5176TIP3    H137019   1.403   4.829  15.794 -0.1206 -2.4440 -1.5153
 5176TIP3    H237020   1.295   4.861  15.692 -0.2771 -1.3165 -1.0091
 5177TIP3   OH237021   1.639   1.329   2.435 -0.1891 -0.2708  0.4056
 5177TIP3    H137022   1.708   1.367   2.381 -0.4835 -1.5963 -0.9709
 5177TIP3    H237023   1.641   1.380   2.516  0.8025  1.2645 -0.5329
 5178TIP3   OH237024   5.832   5.473  11.402  0.0652  0.7002  0.3449
 5178TIP3    H137025   5.751   5.470  11.352 -0.8404  1.2911  1.6908
 5178TIP3    H237026   5.872   5.557  11.380  0.3180  0.4144 -0.3071
 5179TIP3   OH237027   5.227   5.262   6.233 -0.3979  0.3144  0.2476
 5179TIP3    H137028   5.272   5.197   6.180 -2.2231 -0.8699  0.0501
 5179TIP3    H237029   5.222   5.224   6.320 -0.1779  0.8541  0.5030
 5180TIP3   OH237030   2.001   0.507  13.320 -0.4146  0.5414 -0.8150
 5180TIP3    H137031   1.945   0.584  13.316 -1.0615  0.0980 -0.4172
 5180TIP3    H237032   1.982   0.468  13.405  0.1199  0.0993 -0.8967
 5181TIP3   OH237033   1.379   4.831  12.227 -0.3291  0.7588 -0.6156
 5181TIP3    H137034   1.445   4.813  12.294 -1.3688  0.8974  0.4810
 5181TIP3    H237035   1.411   4.785  12.150  0.0702 -0.8587  0.4539
 5182TIP3   OH237036   6.677   6.202   1.997  0.2477 -0.2639 -0.3402
 5182TIP3    H137037   6.607   6.225   1.936  0.7128  0.8336 -0.4809
 5182TIP3    H237038   6.647   6.235   2.081  0.6832  0.3927 -0.4399
 5183TIP3   OH237039   5.515   4.112   0.191  0.1697 -0.1000 -0.0989
 5183TIP3    H137040   5.453   4.059   0.242  0.8775  0.1722  1.0773
 5183TIP3    H237041   5.465   4.189   0.165 -0.0427  0.0195  0.6572
 5184TIP3   OH237042   3.306   3.025   3.105  0.5778 -0.4760 -0.0489
 5184TIP3    H137043   3.270   2.972   3.035  2.8183 -2.2868  0.0309
 5184TIP3    H237044   3.334   3.107   3.063 -2.3878  0.5180 -0.2778
 5185TIP3   OH237045   0.512   4.433   6.332  0.2684  0.0468 -0.6170
 5185TIP3    H137046   0.595   4.459   6.374  1.1969  0.8881 -2.8285
 5185TIP3    H237047   0.456   4.408   6.405  2.3878 -0.3439  0.9899
 5186TIP3   OH237048   0.513   4.102   1.702 -0.0728 -0.5472  0.4489
 5186TIP3    H137049   0.451   4.111   1.774 -0.0698 -1.2964  0.5569
 5186TIP3    H237050   0.589   4.153   1.729 -0.2438 -0.4654  0.7770
 5187TIP3   OH237051   0.772   6.077  13.891  0.0836  0.6702  0.0027
 5187TIP3    H137052   0.709   6.148  13.894  1.7733  2.3678 -1.5896
 5187TIP3    H237053   0.817   6.089  13.808  0.9201 -1.8780  0.0096
 5188TIP3   OH237054   1.262   0.750   0.502  0.0389 -0.0606  0.1094
 5188TIP3    H137055   1.206   0.824   0.478  3.7276  3.1816  0.6843
 5188TIP3    H237056   1.251   0.741   0.596 -1.0122 -0.8599 -0.0714
 5189TIP3   OH237057   2.082   3.608  11.679 -0.2976  0.0914  0.0996
 5189TIP3    H137058   2.077   3.699  11.651 -3.8401  0.0785  0.2051
 5189TIP3    H237059   2.095   3.559  11.598 -1.4418  0.5575 -0.3865
 5190TIP3   OH237060   0.961   6.178  13.679  0.2825 -0.6943  0.0767
 5190TIP3    H137061   1.044   6.132  13.668  0.7138 -0.1350  0.8966
 5190TIP3    H237062   0.972   6.229  13.759 -0.5574  0.0206 -0.2456
 5191TIP3   OH237063   4.528   0.303   4.249 -0.5255  0.0981  0.4125
 5191TIP3    H137064   4.596   0.305   4.182 -0.6018 -1.9827  0.1948
 5191TIP3    H237065   4.506   0.395   4.264  0.4312  0.6883 -1.4446
 5192TIP3   OH237066   5.821   3.731   3.419 -0.1628 -0.2034 -0.8147
 5192TIP3    H137067   5.728   3.742   3.400 -0.3178  2.1468  0.8818
 5192TIP3    H237068   5.833   3.636   3.430 -2.5044 -0.4859 -0.3090
 5193TIP3   OH237069   2.510   3.524  10.920 -0.2847 -0.5130  0.0281
 5193TIP3    H137070   2.545   3.539  10.832 -0.8518 -0.1314 -0.1303
 5193TIP3    H237071   2.415   3.533  10.910 -0.2516  1.1348  0.9945
 5194TIP3   OH237072   6.024   3.674  13.092  0.3012 -0.0120 -0.4808
 5194TIP3    H137073   5.958   3.709  13.033  0.2632 -1.0324 -1.0706
 5194TIP3    H237074   6.007   3.716  13.176 -1.5557 -0.7840 -0.4323
 5195TIP3   OH237075   2.567   5.946  13.326  0.4976  0.6014 -0.1667
 5195TIP3    H137076   2.525   5.976  13.407  1.9376  0.7468  0.5565
 5195TIP3    H237077   2.501   5.962  13.258 -0.1815  1.9125  0.7407
 5196TIP3   OH237078   4.622   5.821  12.649  0.3717  0.2007 -0.0288
 5196TIP3    H137079   4.687   5.859  12.590 -0.5570  0.1612 -1.1074
 5196TIP3    H237080   4.620   5.881  12.724 -0.7274  2.0972 -1.4803
 5197TIP3   OH237081   5.748   4.129  14.383  0.1874  0.0673 -0.7164
 5197TIP3    H137082   5.743   4.211  14.432 -1.5031 -1.1841  1.3990
 5197TIP3    H237083   5.842   4.114  14.372  0.5596  1.6324  0.0175
 5198TIP3   OH237084   2.209   1.606   6.188  0.0287 -0.0953  0.3618
 5198TIP3    H137085   2.119   1.575   6.198 -0.1523 -0.1365 -1.2121
 5198TIP3    H237086   2.263   1.529   6.210 -0.3307 -0.3209  0.4735
 5199TIP3   OH237087   3.941   6.251  12.977  0.7349  0.1250  0.1187
 5199TIP3    H137088   3.923   6.271  13.069 -0.6209  2.1370 -0.5256
 5199TIP3    H237089   3.855   6.232  12.939  1.2802 -0.6726 -0.7470
 5200TIP3   OH237090   1.696   4.650   4.522  0.1651  0.1630 -0.1205
 5200TIP3    H137091   1.617   4.637   4.575 -0.5825  0.9997 -0.9953
 5200TIP3    H237092   1.666   4.700   4.446  1.7877  1.6425  0.1669
 5201TIP3   OH237093   3.218   4.661   6.465 -0.1131  0.2482  0.0535
 5201TIP3    H137094   3.142   4.624   6.509 -1.3600  1.4120 -1.0451
 5201TIP3    H237095   3.290   4.650   6.527 -0.9919 -1.5866  0.7982
 5202TIP3   OH237096   1.631   2.063  14.382  0.6148 -0.0368  0.0013
 5202TIP3    H137097   1.678   2.143  14.404 -0.3446  0.6606 -0.4056
 5202TIP3    H237098   1.691   2.015  14.325  1.5973 -0.0874  1.0442
 5203TIP3   OH237099   3.728   5.859  13.105 -0.0723 -0.1251 -0.3189
 5203TIP3    H137100   3.644   5.836  13.145 -0.9003 -0.7791 -2.2977
 5203TIP3    H237101   3.785   5.784  13.124 -0.2762 -0.1815  0.0831
 5204TIP3   OH237102   4.543   5.561   4.468 -0.4481  0.1597  0.2910
 5204TIP3    H137103   4.495   5.592   4.545 -2.0346  0.7604 -0.8921
 5204TIP3    H237104   4.509   5.472   4.453 -1.9201  0.8964 -1.0531
 5205TIP3   OH237105   1.349   5.639   4.761  0.2317 -0.4017  0.0091
 5205TIP3    H137106   1.316   5.618   4.849 -0.9975 -0.1019 -0.3612
 5205TIP3    H237107   1.311   5.572   4.704  0.4357 -0.1675 -0.4088
 5206TIP3   OH237108   3.705   5.583   1.679 -0.2554  0.0017  0.0611
 5206TIP3    H137109   3.771   5.628   1.731 -0.4554  0.0589  0.2653
 5206TIP3    H237110   3.714   5.620   1.591 -0.4572  0.4805  0.2392
 5207TIP3   OH237111   2.944   0.005  13.731  0.3060  0.1724  0.0991
 5207TIP3    H137112   2.913  -0.086  13.721  0.2719  0.3601 -2.0337
 5207TIP3    H237113   3.037   0.001  13.707  0.2443  0.7306 -0.2428
 5208TIP3   OH237114   0.361   0.348  17.115 -0.4350  0.3171  0.0206
 5208TIP3    H137115   0.350   0.379  17.205  0.3214 -0.9973  0.5911
 5208TIP3    H237116   0.415   0.415  17.073  1.0874 -0.1130  1.2011
 5209TIP3   OH237117   1.474   5.599   1.876 -0.0868  0.0873  0.5028
 5209TIP3    H137118   1.491   5.691   1.897  0.4051  0.5473 -1.6133
 5209TIP3    H237119   1.513   5.550   1.948  2.6152  1.4488  0.1038
 5210TIP3   OH237120   1.859   2.698  15.430  0.5775  0.5234  0.4246
 5210TIP3    H137121   1.948   2.729  15.411 -0.0033  2.5504  0.7143
 5210TIP3    H237122   1.803   2.771  15.402 -0.9724 -0.5794  0.5640
 5211TIP3   OH237123   3.749   0.361   3.667 -0.3711 -0.4161  0.2294
 5211TIP3    H137124   3.788   0.418   3.600 -0.2648 -0.1825  0.4866
 5211TIP3    H237125   3.805   0.283   3.667 -0.6971 -0.6549 -0.3371
 5212TIP3   OH237126   3.153   3.293   5.384  0.0812  0.1887  0.5043
 5212TIP3    H137127   3.128   3.247   5.304  1.5919  1.1480 -0.5579
 5212TIP3    H237128   3.074   3.337   5.413 -0.8508 -1.3188  0.3638
 5213TIP3   OH237129   6.677   1.262  12.194 -0.1087 -0.0989  0.1772
 5213TIP3    H137130   6.661   1.194  12.259  0.2191 -0.0298  0.3367
 5213TIP3    H237131   6.767   1.291  12.212  0.1168 -0.3384 -0.5461
 5214TIP3   OH237132   3.570   0.562  12.487  0.4669 -0.0050  0.6733
 5214TIP3    H137133   3.526   0.614  12.554  0.7770  1.3698 -0.1586
 5214TIP3    H237134   3.500   0.538  12.426  0.8001  2.3383 -0.7483
 5215TIP3   OH237135   0.639   6.850  14.500 -0.6567 -0.4171  0.8955
 5215TIP3    H137136   0.714   6.909  14.500  0.2675 -1.5594  0.5589
 5215TIP3    H237137   0.674   6.766  14.529 -0.8438 -2.0770 -3.0241
 5216TIP3   OH237138   1.536   5.896   3.864  0.0656 -0.0119  0.3811
 5216TIP3    H137139   1.442   5.909   3.869  0.0060 -0.2538 -0.0354
 5216TIP3    H237140   1.546   5.801   3.850  0.3470  0.0845 -0.0962
 5217TIP3   OH237141   2.979   3.858  13.500 -0.2549 -0.1281 -0.1966
 5217TIP3    H137142   3.020   3.900  13.575  2.0312  0.5520 -1.7495
 5217TIP3    H237143   2.971   3.766  13.525  0.8440  0.0195  0.7238
 5218TIP3   OH237144   3.703   2.085   5.592  0.1676 -0.3019  0.3693
 5218TIP3    H137145   3.688   1.994   5.567  0.2547  0.3884 -2.5325
 5218TIP3    H237146   3.632   2.134   5.549  1.0663  1.1567  0.4747
 5219TIP3   OH237147   2.809   6.470   0.111 -0.0471  0.4771 -0.1567
 5219TIP3    H137148   2.808   6.476   0.015 -1.1494  1.6103 -0.1085
 5219TIP3    H237149   2.843   6.383   0.129  0.6831  0.4353 -1.5671
 5220TIP3   OH237150   4.351   5.546  14.436 -0.1011 -0.0660  0.4009
 5220TIP3    H137151   4.420   5.514  14.378  0.2257 -0.3514  0.9409
 5220TIP3    H237152   4.393   5.611  14.491 -0.1658 -0.4866  0.9662
 5221TIP3   OH237153   0.621   2.806   1.301  0.5178  0.4093 -0.5214
 5221TIP3    H137154   0.614   2.836   1.210  0.0637 -0.6644 -0.8533
 5221TIP3    H237155   0.696   2.854   1.336  0.3747  1.2306 -1.3004
 5222TIP3   OH237156   1.612   2.890  16.951 -0.0624  0.2138 -0.3929
 5222TIP3    H137157   1.526   2.876  16.989 -1.3580  2.1938 -2.3125
 5222TIP3    H237158   1.611   2.840  16.869  0.4812  0.4717 -0.5668
 5223TIP3   OH237159   5.599   0.223   0.775 -0.4497  0.2523 -0.3129
 5223TIP3    H137160   5.635   0.312   0.773  0.1303  0.0182 -1.8411
 5223TIP3    H237161   5.649   0.176   0.709 -0.8783 -1.1750  0.3500
 5224TIP3   OH237162   2.255   4.081   0.742 -0.4443  0.3094  0.1098
 5224TIP3    H137163   2.233   4.130   0.663  0.7611  0.5537 -0.0972
 5224TIP3    H237164   2.328   4.025   0.716  0.8238  1.3124  1.3502
 5225TIP3   OH237165   4.916   0.844  16.130  0.2367  0.1769  0.3490
 5225TIP3    H137166   4.990   0.893  16.166 -0.1636  1.1383 -0.0796
 5225TIP3    H237167   4.927   0.851  16.035  0.9476 -1.8072  0.2443
 5226TIP3   OH237168   5.816   3.509   2.830 -0.5780  0.0255 -0.3147
 5226TIP3    H137169   5.806   3.495   2.925 -1.0046  0.4313 -0.2961
 5226TIP3    H237170   5.891   3.454   2.806  0.4197  0.9743  0.5131
 5227TIP3   OH237171   4.355   0.234  15.582 -0.0893 -0.6108  0.2215
 5227TIP3    H137172   4.441   0.270  15.606 -0.4059  1.6125 -1.6237
 5227TIP3    H237173   4.293   0.305  15.602 -1.2920 -1.5828  0.0426
 5228TIP3   OH237174   2.761   4.083  11.677 -0.2306 -0.0231  0.5082
 5228TIP3    H137175   2.774   4.025  11.752  1.8195  0.0935  0.2781
 5228TIP3    H237176   2.747   4.170  11.716 -0.8737 -0.2383  0.7753
 5229TIP3   OH237177   3.562   2.420   4.862  0.3468 -0.6466 -0.6061
 5229TIP3    H137178   3.509   2.420   4.942  1.3683 -1.3566  0.0997
 5229TIP3    H237179   3.499   2.399   4.792 -0.1488 -2.6868  0.3535
 5230TIP3   OH237180   2.610   0.841   2.630 -0.2421  0.1236 -0.0399
 5230TIP3    H137181   2.613   0.783   2.554 -0.1886 -0.0343  0.0829
 5230TIP3    H237182   2.540   0.903   2.610  0.3057  0.5886 -0.5815
 5231TIP3   OH237183   0.602   3.199   3.244 -0.4558  0.0956 -0.0434
 5231TIP3    H137184   0.562   3.261   3.304 -2.8924 -1.4952  0.1333
 5231TIP3    H237185   0.675   3.247   3.204 -0.7826  2.2401  1.7567
 5232TIP3   OH237186   5.570   2.752   5.774 -0.0908  0.1671 -0.1042
 5232TIP3    H137187   5.662   2.741   5.751 -0.0407  0.4604 -0.0377
 5232TIP3    H237188   5.533   2.664   5.763  0.9120 -0.7972  3.1715
 5233TIP3   OH237189   2.422   5.905   3.587  0.0024 -0.4242 -0.1683
 5233TIP3    H137190   2.364   5.841   3.548  0.2556 -0.4486 -0.5109
 5233TIP3    H237191   2.410   5.895   3.681 -1.0233  0.0086 -0.2375
 5234TIP3   OH237192   3.615   2.198   1.837  0.1791 -0.0291 -0.3717
 5234TIP3    H137193   3.554   2.187   1.764  1.3470  1.3105 -1.6284
 5234TIP3    H237194   3.690   2.145   1.814  0.6764  0.6272 -0.3067
 5235TIP3   OH237195   2.062   4.442   2.722 -0.0883  0.4669 -0.4456
 5235TIP3    H137196   2.073   4.387   2.800  0.5599 -0.5062 -1.1917
 5235TIP3    H237197   2.023   4.523   2.755  0.2080  0.0974  0.8952
 5236TIP3   OH237198   0.354   0.617  16.600 -0.2815  0.2929 -0.2161
 5236TIP3    H137199   0.397   0.670  16.667  0.2808 -0.8681  0.3684
 5236TIP3    H237200   0.398   0.641  16.518  0.2828  0.4071  0.1141
 5237TIP3   OH237201   4.499   0.137  15.283 -0.2981  0.8391 -0.4076
 5237TIP3    H137202   4.408   0.108  15.292  0.0393  0.1692  1.0182
 5237TIP3    H237203   4.499   0.226  15.318 -0.5225  1.0807 -1.0073
 5238TIP3   OH237204   2.642   6.201  11.365 -0.0030  0.0753 -0.6355
 5238TIP3    H137205   2.606   6.225  11.450  0.0526 -2.3137  0.1376
 5238TIP3    H237206   2.657   6.285  11.320 -3.7722  1.3106  0.0889
 5239TIP3   OH237207   3.652   4.340  15.590  0.2493  0.0136  0.3234
 5239TIP3    H137208   3.728   4.313  15.538 -0.4777  0.1759 -0.8691
 5239TIP3    H237209   3.656   4.286  15.669  2.8436  1.5765  1.3818
 5240TIP3   OH237210   6.585   2.219   2.211 -0.0051 -0.6725 -0.2827
 5240TIP3    H137211   6.525   2.294   2.209  1.5466  0.7576  1.8910
 5240TIP3    H237212   6.626   2.219   2.125  1.4580  2.3718  0.2873
 5241TIP3   OH237213   0.658   3.719  13.897  0.1011 -0.1208  0.1275
 5241TIP3    H137214   0.747   3.685  13.893 -0.5696 -1.9586  0.2644
 5241TIP3    H237215   0.610   3.655  13.949 -1.4955  0.3984 -0.6510
 5242TIP3   OH237216   5.856   6.543  11.809  0.0074 -0.4500  0.8945
 5242TIP3    H137217   5.947   6.554  11.837  0.0265  0.6556  0.4627
 5242TIP3    H237218   5.806   6.602  11.866 -0.1639  0.5247 -0.2237
 5243TIP3   OH237219   1.867   2.887  13.991  0.1369  0.2916  0.0743
 5243TIP3    H137220   1.872   2.792  14.004 -1.1840  0.2247  0.3121
 5243TIP3    H237221   1.854   2.898  13.897 -0.1356  0.2049  0.1002
 5244TIP3   OH237222   1.684   5.226  11.280  0.5418 -0.4095  0.0141
 5244TIP3    H137223   1.608   5.214  11.222  0.4745  0.0886 -0.0071
 5244TIP3    H237224   1.667   5.167  11.353 -0.1624  0.1081  0.2891
 5245TIP3   OH237225   3.142   1.880   1.301  0.1632 -0.9639  0.0658
 5245TIP3    H137226   3.165   1.920   1.384  1.5635 -3.4305  0.9700
 5245TIP3    H237227   3.144   1.952   1.238 -0.0378  0.7969  1.9788
 5246TIP3   OH237228   4.437   4.215  14.904 -0.0111 -0.6373  0.7494
 5246TIP3    H137229   4.470   4.273  14.835 -4.3695  2.0570  0.5091
 5246TIP3    H237230   4.434   4.129  14.863 -0.2317  0.4114 -1.6536
 5247TIP3   OH237231   6.284   6.186  14.378 -0.2872  0.3887 -0.4402
 5247TIP3    H137232   6.363   6.198  14.432  0.6174  0.7820 -1.7839
 5247TIP3    H237233   6.273   6.270  14.333 -0.7167 -0.0720 -1.2248
 5248TIP3   OH237234   2.075   5.590   3.641  0.8022  0.1062 -0.2267
 5248TIP3    H137235   2.088   5.610   3.734  0.5909  0.6575 -0.3101
 5248TIP3    H237236   2.159   5.613   3.600  0.1230  2.2875 -0.5438
 5249TIP3   OH237237   5.875   0.485  10.927 -0.0752 -0.0292 -0.3262
 5249TIP3    H137238   5.795   0.485  10.875 -0.6518 -0.8629  0.5234
 5249TIP3    H237239   5.940   0.529  10.872 -0.9803  0.2014 -1.2320
 5250TIP3   OH237240   5.930   3.316   6.231  0.4209 -0.2499 -0.1460
 5250TIP3    H137241   5.882   3.355   6.304  1.1302  1.4754 -0.5585
 5250TIP3    H237242   5.934   3.223   6.253 -2.4693 -0.3701  0.2340
 5251TIP3   OH237243   6.359   2.747  11.235  0.1534 -0.3766 -0.6280
 5251TIP3    H137244   6.301   2.770  11.162  0.7906 -2.9321 -2.0739
 5251TIP3    H237245   6.336   2.657  11.256 -0.9409  0.6444  3.3794
 5252TIP3   OH237246   6.269   1.167  11.923  0.0914  0.1292 -0.1423
 5252TIP3    H137247   6.216   1.245  11.909 -1.6001 -0.8446  0.5831
 5252TIP3    H237248   6.304   1.177  12.011 -1.0353 -0.4096  0.3881
 5253TIP3   OH237249   5.225   3.631  13.632  0.1612  0.2854  0.9644
 5253TIP3    H137250   5.240   3.667  13.719  1.0685  0.2736  0.8278
 5253TIP3    H237251   5.284   3.681  13.575 -0.2869  0.1673  0.3880
 5254TIP3   OH237252   3.155   4.114  16.294  0.0658  0.3411 -0.1111
 5254TIP3    H137253   3.164   4.115  16.199 -0.7607  0.2826 -0.1973
 5254TIP3    H237254   3.088   4.179  16.312  1.4708  1.6653  0.5878
 5255TIP3   OH237255   1.068   3.088  16.728  0.3332 -0.0499  0.2366
 5255TIP3    H137256   1.081   3.050  16.815 -1.3731 -0.0065  0.5573
 5255TIP3    H237257   0.986   3.137  16.736  0.1713 -0.0106 -1.3868
 5256TIP3   OH237258   0.068   0.943  15.010 -0.0926 -0.1305 -0.2319
 5256TIP3    H137259   0.040   0.861  14.969  0.3436 -0.5527  0.2988
 5256TIP3    H237260   0.164   0.941  15.005 -0.0392 -0.1170  0.6668
 5257TIP3   OH237261   2.465   2.230  16.797  0.4823 -0.2032 -0.1302
 5257TIP3    H137262   2.494   2.151  16.843 -2.4889 -0.6449  1.1947
 5257TIP3    H237263   2.545   2.266  16.758  2.1818 -2.9651  0.5688
 5258TIP3   OH237264   5.059   0.141   0.508 -0.2238 -0.3700  0.2619
 5258TIP3    H137265   5.070   0.050   0.479 -2.4672 -0.5058 -0.2914
 5258TIP3    H237266   5.149   0.172   0.523  0.6776 -2.1866 -1.0105
 5259TIP3   OH237267   3.571   1.488   4.638  0.5620 -0.4300 -0.3010
 5259TIP3    H137268   3.585   1.583   4.638  0.0261 -0.3498  0.4804
 5259TIP3    H237269   3.607   1.460   4.554 -0.2052  0.6047 -1.0059
 5260TIP3   OH237270   3.710   1.917  14.975  0.7430  0.1732  0.4323
 5260TIP3    H137271   3.781   1.964  14.930  0.3959  0.9076  0.6233
 5260TIP3    H237272   3.634   1.976  14.966  0.6718  0.3455  1.9755
 5261TIP3   OH237273   6.620   2.517   4.309  0.1324  0.1243  0.4663
 5261TIP3    H137274   6.619   2.611   4.329  2.9632  0.1536  0.7718
 5261TIP3    H237275   6.688   2.507   4.242 -1.3063 -1.5293 -0.8432
 5262TIP3   OH237276   4.002   3.038  10.152  0.6764 -0.1308 -0.0923
 5262TIP3    H137277   3.941   2.997  10.214  0.8207  0.9589  0.7997
 5262TIP3    H237278   4.001   3.131  10.175  2.3562 -0.0252 -0.3340
 5263TIP3   OH237279   3.388   4.992  10.672  0.5289  0.0089  0.1890
 5263TIP3    H137280   3.482   4.971  10.664  0.2672 -0.8884 -0.7434
 5263TIP3    H237281   3.344   4.910  10.652 -0.4775  0.5274  0.2463
 5264TIP3   OH237282   2.257   6.848  10.457 -0.1175 -0.3470 -0.1518
 5264TIP3    H137283   2.350   6.824  10.458 -0.2730 -0.9816  0.3203
 5264TIP3    H237284   2.256   6.940  10.430  0.6724 -0.2388  0.1451
 5265TIP3   OH237285   4.797   2.263   2.176  0.2170  0.4602  0.5043
 5265TIP3    H137286   4.813   2.225   2.263  1.9689  1.8490  0.8561
 5265TIP3    H237287   4.840   2.348   2.180  1.8174 -0.1057 -2.2652
 5266TIP3   OH237288   4.390   2.829   3.747 -0.1440 -0.1864  0.1037
 5266TIP3    H137289   4.345   2.904   3.786 -0.2970 -0.0567 -0.3089
 5266TIP3    H237290   4.386   2.761   3.813  1.0447  0.5410  0.9728
 5267TIP3   OH237291   2.687   6.486   3.959  0.2177 -0.2615  0.0468
 5267TIP3    H137292   2.744   6.544   4.009 -1.9857  2.1504 -0.0497
 5267TIP3    H237293   2.703   6.510   3.867  0.5516 -1.0888 -0.1216
 5268TIP3   OH237294   4.341   5.503   0.861  0.5310 -0.3823 -0.0229
 5268TIP3    H137295   4.329   5.544   0.775  1.0120 -1.2986 -0.5415
 5268TIP3    H237296   4.353   5.577   0.921 -0.5403  0.3032 -0.6042
 5269TIP3   OH237297   2.447   0.407  11.300 -0.2792 -0.1971 -0.5581
 5269TIP3    H137298   2.428   0.466  11.372  1.9275  0.7182 -0.6478
 5269TIP3    H237299   2.377   0.424  11.236 -0.9268  0.6796  0.3516
 5270TIP3   OH237300   3.181   3.273  14.209  0.1290  0.2287 -0.7450
 5270TIP3    H137301   3.268   3.309  14.194 -0.2314  0.9365 -1.1795
 5270TIP3    H237302   3.123   3.349  14.215 -0.2099 -0.1201  1.3708
 5271TIP3   OH237303   1.593   3.142  16.211  0.6238  0.1638  0.2586
 5271TIP3    H137304   1.499   3.146  16.197  0.7310  0.1636 -0.5176
 5271TIP3    H237305   1.608   3.056  16.250  0.4021 -0.2343 -0.5121
 5272TIP3   OH237306   4.194   0.718  14.544 -0.3300 -0.0828  0.1012
 5272TIP3    H137307   4.105   0.741  14.570 -0.5723 -2.2512  1.4602
 5272TIP3    H237308   4.237   0.694  14.626  1.1859 -0.0441 -0.6644
 5273TIP3   OH237309   6.001   0.808  14.971 -0.3088 -0.1232 -0.0553
 5273TIP3    H137310   6.010   0.726  14.921 -1.7005 -1.1130  1.2350
 5273TIP3    H237311   5.907   0.822  14.978 -0.0888  1.5583 -0.1619
 5274TIP3   OH237312   0.059   5.111   3.692 -0.0853  0.1317  0.0518
 5274TIP3    H137313   0.080   5.205   3.688 -1.9093  0.6259  0.7720
 5274TIP3    H237314  -0.027   5.105   3.649 -0.8210 -0.9098  1.5931
 5275TIP3   OH237315   1.318   4.114   0.850 -0.5202  0.1113  0.2758
 5275TIP3    H137316   1.325   4.068   0.766 -1.5753  0.7762 -0.2040
 5275TIP3    H237317   1.257   4.061   0.901  1.0393 -0.9425  1.1050
 5276TIP3   OH237318   3.366   6.323   1.021 -0.2447 -0.1691  0.4491
 5276TIP3    H137319   3.359   6.279   1.105 -0.9059  1.2969  1.1977
 5276TIP3    H237320   3.457   6.352   1.016  0.4522 -2.3331 -0.4662
 5277TIP3   OH237321   1.790   4.143  16.968  0.3429  0.5676  0.4879
 5277TIP3    H137322   1.740   4.196  16.906 -0.1757 -2.2275 -1.7105
 5277TIP3    H237323   1.810   4.202  17.040 -0.0024  3.7574 -1.8103
 5278TIP3   OH237324   5.258   2.917  12.305  0.1980 -0.6599 -0.0283
 5278TIP3    H137325   5.353   2.912  12.293  0.8125  3.8490  1.1263
 5278TIP3    H237326   5.227   2.970  12.232 -0.6633  1.4393  1.7478
 5279TIP3   OH237327   3.699   2.660  16.658 -0.1906  0.2660 -0.8091
 5279TIP3    H137328   3.636   2.626  16.721  1.1668 -0.2686  0.3059
 5279TIP3    H237329   3.657   2.739  16.623 -1.4343 -0.0291 -0.0638
 5280TIP3   OH237330   4.586   2.309  16.136 -0.0242 -0.1524  0.2435
 5280TIP3    H137331   4.579   2.403  16.155  2.2326  0.0253  0.4718
 5280TIP3    H237332   4.495   2.278  16.138 -0.8313  1.9818  0.2870
 5281TIP3   OH237333   5.638   1.960  12.833  0.4709 -0.1800  0.6604
 5281TIP3    H137334   5.580   2.034  12.851  0.1217  0.3945 -2.3069
 5281TIP3    H237335   5.596   1.886  12.876 -0.0154  0.9991  2.3475
 5282TIP3   OH237336   5.342   2.606   4.864 -0.2472  0.3501  0.5121
 5282TIP3    H137337   5.358   2.700   4.873 -0.6787  0.5893 -1.0239
 5282TIP3    H237338   5.252   2.599   4.831  0.8021 -0.3846 -2.5497
 5283TIP3   OH237339   1.354   3.927  16.378 -0.1861  0.4153 -0.4044
 5283TIP3    H137340   1.417   3.986  16.337 -0.9864  1.7681  0.2407
 5283TIP3    H237341   1.339   3.859  16.313  2.2463 -0.2020 -0.4081
 5284TIP3   OH237342   2.076   2.192   3.678 -0.2183 -0.1260 -0.3923
 5284TIP3    H137343   1.987   2.183   3.643 -0.7967  1.4903  0.5155
 5284TIP3    H237344   2.062   2.212   3.771  0.9974  1.7207 -0.5612
 5285TIP3   OH237345   3.108   3.671   6.300  0.7193 -0.3366  0.0708
 5285TIP3    H137346   3.137   3.717   6.378  0.8502  0.7651 -0.6129
 5285TIP3    H237347   3.137   3.580   6.313 -1.3725 -0.7850  2.4089
 5286TIP3   OH237348   0.575   3.272   4.672  0.0774 -0.2806 -0.0823
 5286TIP3    H137349   0.558   3.316   4.588 -0.7855 -0.2125  0.1200
 5286TIP3    H237350   0.611   3.187   4.647  0.0688 -0.1599 -0.5163
 5287TIP3   OH237351   5.453   4.015  10.400 -0.0926 -0.2276 -0.2415
 5287TIP3    H137352   5.399   3.937  10.402 -0.5400  0.0738  1.4351
 5287TIP3    H237353   5.457   4.043  10.492  1.0539  1.0251 -0.6415
 5288TIP3   OH237354   6.571   6.588  11.928  0.0356  0.3949 -0.0653
 5288TIP3    H137355   6.569   6.557  11.838 -0.2364  0.9058 -0.2389
 5288TIP3    H237356   6.491   6.639  11.938  0.6324  1.3282  0.1012
 5289TIP3   OH237357   0.500   6.028   1.039 -0.5845 -0.2394  0.3591
 5289TIP3    H137358   0.469   5.967   1.106 -0.7711  1.1643  1.5911
 5289TIP3    H237359   0.480   6.115   1.073  2.5921  0.7007  0.1925
 5290TIP3   OH237360   1.383   2.608  12.605 -0.2541 -0.1908  0.1717
 5290TIP3    H137361   1.344   2.525  12.580  1.0597 -1.4406  2.0543
 5290TIP3    H237362   1.312   2.657  12.647 -0.5314 -1.2519  0.9796
 5291TIP3   OH237363   5.440   4.883   5.412  0.0168 -0.0845 -0.7404
 5291TIP3    H137364   5.497   4.896   5.337  0.0626 -0.7526 -0.8225
 5291TIP3    H237365   5.496   4.898   5.488  1.3937 -4.3837 -0.6672
 5292TIP3   OH237366   0.128   0.593  11.308 -0.1557 -0.3378  0.4701
 5292TIP3    H137367   0.046   0.610  11.354 -0.7009 -2.4830  0.3838
 5292TIP3    H237368   0.148   0.676  11.264 -0.4722  1.2938  3.1351
 5293TIP3   OH237369   2.269   1.928  16.353 -0.3891 -0.4007  0.0659
 5293TIP3    H137370   2.177   1.923  16.380  0.0571 -0.2495  1.7511
 5293TIP3    H237371   2.268   1.980  16.273 -1.6809  0.3886  0.5649
 5294TIP3   OH237372   5.410   6.625  16.666  0.4261 -0.5672  0.2796
 5294TIP3    H137373   5.321   6.652  16.644  0.1420 -1.0233  0.8275
 5294TIP3    H237374   5.403   6.531  16.686  0.5851 -0.1811  2.4688
 5295TIP3   OH237375   5.400   2.110   3.848  0.3933  0.4026 -0.2076
 5295TIP3    H137376   5.327   2.130   3.789 -0.1044 -0.8154 -0.0266
 5295TIP3    H237377   5.382   2.163   3.926 -0.6255 -0.3011  0.0585
 5296TIP3   OH237378   3.092   0.084   0.813 -0.6021  0.3035  0.3044
 5296TIP3    H137379   3.024   0.069   0.878 -0.1367 -1.9367  0.3620
 5296TIP3    H237380   3.073   0.021   0.743  0.9674  0.1331 -0.0070
 5297TIP3   OH237381   2.020   6.279  14.512  0.9452  0.5651 -0.0246
 5297TIP3    H137382   2.019   6.373  14.493 -1.1574  0.0513 -3.1016
 5297TIP3    H237383   1.938   6.263  14.559  0.4751  0.0460 -0.9973
 5298TIP3   OH237384   1.628   1.305  12.146  0.0705  0.5089 -0.7070
 5298TIP3    H137385   1.539   1.298  12.114  0.4446 -0.3905 -1.5746
 5298TIP3    H237386   1.633   1.241  12.217 -0.4456  1.7562  0.5098
 5299TIP3   OH237387   0.525   0.307   3.462  0.3328 -0.0356 -0.4178
 5299TIP3    H137388   0.540   0.397   3.492 -0.3644  0.2098 -0.8020
 5299TIP3    H237389   0.444   0.280   3.506  1.8383 -1.4089  1.7625
 5300TIP3   OH237390   1.957   2.386  17.104  0.3855 -0.7850 -0.0150
 5300TIP3    H137391   1.983   2.410  17.015 -0.5423 -1.9875 -0.6515
 5300TIP3    H237392   1.911   2.302  17.093  1.0628 -1.4161  1.7223
 5301TIP3   OH237393   1.725   1.152  11.523  0.1819  0.0095  0.2831
 5301TIP3    H137394   1.755   1.180  11.437  0.5188 -0.6758  0.1714
 5301TIP3    H237395   1.669   1.224  11.554 -0.0343  0.2096 -0.5524
 5302TIP3   OH237396   3.321   6.552  13.458 -0.3544 -0.2502 -0.2423
 5302TIP3    H137397   3.300   6.509  13.375 -1.4771  1.4046 -0.8705
 5302TIP3    H237398   3.289   6.491  13.525  1.2652 -1.9754 -0.9341
 5303TIP3   OH237399   0.648   0.216   1.363  0.2259  0.0963 -1.0219
 5303TIP3    H137400   0.669   0.146   1.424  0.6336  1.2136  0.1520
 5303TIP3    H237401   0.717   0.282   1.376 -1.7698  2.0888  0.1071
 5304TIP3   OH237402   1.167   0.236   0.680 -0.0209  0.3397  0.4091
 5304TIP3    H137403   1.228   0.179   0.632 -1.3033  1.1218 -2.3970
 5304TIP3    H237404   1.092   0.180   0.699 -0.9177  0.7394 -1.5979
 5305TIP3   OH237405   5.262   1.442   4.372  0.6039  0.1906 -0.2514
 5305TIP3    H137406   5.298   1.474   4.290  0.9075 -1.2694 -0.7082
 5305TIP3    H237407   5.296   1.502   4.438 -0.2338  1.8256 -1.2386
 5306TIP3   OH237408   2.114   1.046   5.691  0.1578 -0.1576 -0.7273
 5306TIP3    H137409   2.172   1.029   5.616  0.6395  0.1555 -0.4286
 5306TIP3    H237410   2.085   1.136   5.679 -0.2315 -0.2975 -0.8478
 5307TIP3   OH237411   1.235   0.864   1.794  0.0580 -0.1846  0.2463
 5307TIP3    H137412   1.179   0.796   1.757 -1.2133  0.9407  0.0520
 5307TIP3    H237413   1.324   0.834   1.774 -0.4821 -1.4658 -0.3885
 5308TIP3   OH237414   2.431   0.164   5.382 -0.0279  0.7860  0.1246
 5308TIP3    H137415   2.484   0.097   5.425  1.9268  3.3261  1.9364
 5308TIP3    H237416   2.354   0.173   5.439 -0.9466 -0.7118 -0.8139
 5309TIP3   OH237417   5.746   1.718   0.117 -0.2830  0.1468 -0.0442
 5309TIP3    H137418   5.724   1.731   0.209  2.8846  0.9624  0.7332
 5309TIP3    H237419   5.752   1.623   0.106 -0.2347  0.0627  0.7185
 5310TIP3   OH237420   4.524   3.011  11.380 -0.2298  0.4299 -0.1434
 5310TIP3    H137421   4.519   2.987  11.288 -1.1678  0.2676 -0.0619
 5310TIP3    H237422   4.575   3.092  11.381  1.6367 -0.6863 -0.5709
 5311TIP3   OH237423   3.639   5.216   0.860 -0.5981 -0.1525 -0.1717
 5311TIP3    H137424   3.636   5.188   0.768 -1.6026 -0.0518 -0.1741
 5311TIP3    H237425   3.617   5.137   0.909  1.6032 -0.6702  0.1046
 5312TIP3   OH237426   3.474   3.631  11.573  0.6402 -0.3320 -0.0398
 5312TIP3    H137427   3.561   3.594  11.590  2.0344  2.0830 -1.2660
 5312TIP3    H237428   3.443   3.583  11.496  1.4123 -0.4400 -0.2992
 5313TIP3   OH237429   3.513   0.761  12.031 -0.2152  0.1144 -0.6346
 5313TIP3    H137430   3.592   0.756  12.085 -0.6272  0.9403  0.0701
 5313TIP3    H237431   3.496   0.670  12.005 -0.2129 -0.3744  0.9440
 5314TIP3   OH237432   3.702   2.958  13.200 -0.2657  0.4577  0.0050
 5314TIP3    H137433   3.661   2.878  13.233  2.8196 -1.3601 -0.1855
 5314TIP3    H237434   3.751   2.992  13.274 -0.0880  1.1685 -0.4272
 5315TIP3   OH237435   2.268   5.591   1.085 -0.3258  0.6168 -0.1765
 5315TIP3    H137436   2.180   5.560   1.106 -0.3269  0.4563 -0.4198
 5315TIP3    H237437   2.324   5.547   1.149 -0.4720  1.0717  0.2750
 5316TIP3   OH237438   4.681   1.952   6.081 -0.4675 -0.4185  0.0333
 5316TIP3    H137439   4.679   1.867   6.123 -1.7417 -0.6279 -0.4048
 5316TIP3    H237440   4.593   1.988   6.094 -0.2893  0.3441 -0.7441
 5317TIP3   OH237441   6.108   3.100  14.838  0.3725  0.3664 -0.4239
 5317TIP3    H137442   6.166   3.075  14.910 -1.2683 -0.3194  0.6939
 5317TIP3    H237443   6.125   3.194  14.826  0.4320  0.5779  1.0955
 5318TIP3   OH237444   1.991   4.343   3.249 -0.5667  0.4596  0.5536
 5318TIP3    H137445   1.896   4.350   3.239 -0.7784  2.7086  3.0491
 5318TIP3    H237446   2.003   4.301   3.334  0.6933 -0.0622  0.1369
 5319TIP3   OH237447   0.093   1.760   4.326  0.1393 -0.3772  0.0405
 5319TIP3    H137448   0.051   1.708   4.257 -0.1243  0.1967 -0.2423
 5319TIP3    H237449   0.119   1.696   4.392  4.8495 -1.6772 -2.6794
 5320TIP3   OH237450   5.799   3.271  10.817 -0.1057 -0.0868  0.6681
 5320TIP3    H137451   5.753   3.342  10.772  1.8614  0.5932 -0.3753
 5320TIP3    H237452   5.878   3.257  10.766  1.1373 -0.8440  2.6705
 5321TIP3   OH237453   1.569   2.316  11.181  0.0859 -0.3555  0.5145
 5321TIP3    H137454   1.508   2.370  11.130  0.1507 -0.9179 -0.1863
 5321TIP3    H237455   1.538   2.322  11.271 -1.9953 -1.8993 -0.0329
 5322TIP3   OH237456   2.336   5.439  10.945 -0.4264  0.1437 -0.1581
 5322TIP3    H137457   2.283   5.476  11.016  1.8122  0.4703  1.4501
 5322TIP3    H237458   2.366   5.515  10.896 -2.1229 -0.0907 -1.6724
 5323TIP3   OH237459   4.935   5.997  12.045  0.0689  0.2392  0.5307
 5323TIP3    H137460   4.858   5.998  11.989  0.1064 -0.2930  0.4644
 5323TIP3    H237461   4.903   5.965  12.129 -0.0082  1.1353  0.8474
 5324TIP3   OH237462   0.478   2.957  15.267  0.5588 -0.3260 -0.1346
 5324TIP3    H137463   0.533   2.879  15.254 -0.9548 -1.7271  1.3426
 5324TIP3    H237464   0.520   3.002  15.340 -0.0153 -1.2231  0.7798
 5325TIP3   OH237465   0.838   5.234  14.029 -0.3532  0.2946  0.4155
 5325TIP3    H137466   0.842   5.329  14.045  1.6489  0.4353 -0.5881
 5325TIP3    H237467   0.761   5.222  13.975 -0.2390  1.4679 -0.0375
 5326TIP3   OH237468   2.340   3.286  13.522 -1.1472 -0.1673 -0.3932
 5326TIP3    H137469   2.250   3.272  13.494 -0.8433 -0.0894 -1.4337
 5326TIP3    H237470   2.369   3.363  13.472 -0.3245 -0.5270 -0.4799
 5327TIP3   OH237471   4.731   2.880   0.568 -0.0365 -0.0101  0.4219
 5327TIP3    H137472   4.650   2.836   0.593 -0.2903 -0.8924 -1.7105
 5327TIP3    H237473   4.800   2.817   0.590 -0.2816 -0.9191 -1.1931
 5328TIP3   OH237474   1.086   4.003   1.870 -0.1550  0.1822  0.4059
 5328TIP3    H137475   1.170   4.017   1.915  0.8612 -0.4466 -1.2085
 5328TIP3    H237476   1.101   3.927   1.814 -1.8545 -0.0053  0.1529
 5329TIP3   OH237477   2.334   4.289  11.735  0.0162  0.1452  0.1968
 5329TIP3    H137478   2.300   4.221  11.677  0.1886 -0.2386  0.5344
 5329TIP3    H237479   2.366   4.241  11.811  0.1616  0.6066  0.4304
 5330TIP3   OH237480   4.867   5.123   0.571 -0.3354  0.0420 -0.5917
 5330TIP3    H137481   4.963   5.126   0.560 -0.0636 -2.1332  0.5513
 5330TIP3    H237482   4.833   5.176   0.499  1.7231  0.5956 -1.2285
 5331TIP3   OH237483   1.717   4.740   4.898  0.0312 -0.3797  0.1602
 5331TIP3    H137484   1.658   4.815   4.885 -0.0462 -0.7243 -1.6837
 5331TIP3    H237485   1.672   4.667   4.855  0.3955 -1.3737  1.4036
 5332TIP3   OH237486   6.726   2.346   3.029  0.1948  0.5892  0.0582
 5332TIP3    H137487   6.799   2.284   3.031  0.1369  0.5299  1.0973
 5332TIP3    H237488   6.648   2.292   3.041  0.1847  0.8819  1.5520
 5333TIP3   OH237489   6.631   0.166  16.326 -0.4348 -0.0097  0.2752
 5333TIP3    H137490   6.711   0.197  16.284 -0.6569 -0.3060 -0.3767
 5333TIP3    H237491   6.588   0.245  16.358 -0.7849  0.3231 -0.9921
 5334TIP3   OH237492   1.560   4.302   4.542 -0.2257 -0.4574 -0.1882
 5334TIP3    H137493   1.479   4.320   4.495  0.0781  0.4588 -0.3995
 5334TIP3    H237494   1.552   4.212   4.572 -1.0644 -0.5673 -0.7169
 5335TIP3   OH237495   6.824   6.823  13.478  0.3164  0.2447 -0.3970
 5335TIP3    H137496   6.855   6.740  13.441 -0.6735  0.7096 -2.3392
 5335TIP3    H237497   6.733   6.805  13.502  1.2903 -0.5095  3.4281
 5336TIP3   OH237498   1.098   2.453   2.151  0.4346 -0.1590  0.4714
 5336TIP3    H137499   1.003   2.463   2.156  0.3368 -1.1298  0.6280
 5336TIP3    H237500   1.116   2.432   2.059  0.5585  0.4826  0.3377
 5337TIP3   OH237501   2.338   4.625  15.675  0.8236  0.2346 -0.3260
 5337TIP3    H137502   2.269   4.568  15.641  0.0270  1.1450 -0.2548
 5337TIP3    H237503   2.414   4.605  15.620  0.2114 -0.0097 -1.1110
 5338TIP3   OH237504   6.607   3.719  14.213  0.5077 -0.0819  0.6869
 5338TIP3    H137505   6.527   3.695  14.166 -0.4099  0.5641  1.8941
 5338TIP3    H237506   6.628   3.642  14.265 -0.5909  0.4996  2.0454
 5339TIP3   OH237507   2.897   5.735   5.125 -0.4467  0.3136  0.2409
 5339TIP3    H137508   2.957   5.768   5.058  0.1463 -0.6585  0.2755
 5339TIP3    H237509   2.923   5.780   5.205  0.6607 -0.5483  0.3864
 5340TIP3   OH237510   5.002   1.307  15.931 -0.1131 -0.4034 -0.7102
 5340TIP3    H137511   5.066   1.236  15.930 -2.0426 -2.2197 -0.7028
 5340TIP3    H237512   4.923   1.269  15.969 -1.1556  1.8346 -0.4562
 5341TIP3   OH237513   0.653   3.877   0.759 -0.9042  0.5565  0.2021
 5341TIP3    H137514   0.600   3.870   0.679 -0.3386  1.2736 -0.2439
 5341TIP3    H237515   0.740   3.846   0.733 -1.3853 -1.8880  1.2703
 5342TIP3   OH237516   0.790   2.216   0.494  0.2549 -0.1553  0.0949
 5342TIP3    H137517   0.841   2.146   0.452  0.4562  1.6343 -2.9178
 5342TIP3    H237518   0.699   2.189   0.482  0.3530 -0.8379  0.7887
 5343TIP3   OH237519   1.572   5.826   2.279  0.0077 -0.0921  0.5346
 5343TIP3    H137520   1.622   5.849   2.358 -1.2506  0.7833  1.1145
 5343TIP3    H237521   1.577   5.904   2.224  1.3775 -0.9111 -0.5448
 5344TIP3   OH237522   5.287   1.487  12.972 -0.0198  0.6612 -0.3655
 5344TIP3    H137523   5.275   1.510  13.064  0.5591  0.9976 -0.3679
 5344TIP3    H237524   5.207   1.518  12.929 -0.2156  0.6610 -0.0059
 5345TIP3   OH237525   0.546   3.887  11.588  0.3459 -0.1992 -0.7703
 5345TIP3    H137526   0.469   3.922  11.632  1.9482  2.2438  0.3196
 5345TIP3    H237527   0.541   3.922  11.499  0.7148  0.9050 -0.3754
 5346TIP3   OH237528   0.653   5.741   0.259 -0.2282  0.2008 -0.1822
 5346TIP3    H137529   0.747   5.755   0.247 -0.4137  1.6000 -0.1547
 5346TIP3    H237530   0.647   5.661   0.312  0.9576  0.2972  0.1174
 5347TIP3   OH237531   1.309   5.138   0.232 -0.5495  0.2586 -0.1043
 5347TIP3    H137532   1.391   5.187   0.238  0.2101 -1.0800  1.0162
 5347TIP3    H237533   1.334   5.055   0.192 -0.9698 -0.8783  1.8442
 5348TIP3   OH237534   4.731   6.585  13.909  0.1186  0.5262 -0.6560
 5348TIP3    H137535   4.730   6.520  13.979 -0.4871 -0.6180 -1.6938
 5348TIP3    H237536   4.715   6.535  13.829 -0.7461  1.9980 -1.4485
 5349TIP3   OH237537   2.532   6.409  16.141  0.2773  0.1759 -0.1929
 5349TIP3    H137538   2.492   6.464  16.074  1.3467  1.0654 -0.1263
 5349TIP3    H237539   2.473   6.333  16.149 -0.2047  0.3784 -1.6458
 5350TIP3   OH237540   5.022   1.996   2.559  0.1696  0.7122  0.3934
 5350TIP3    H137541   5.086   2.052   2.515 -0.6093 -0.4431 -2.4360
 5350TIP3    H237542   5.067   1.966   2.638  2.4478  1.3629 -0.5704
 5351TIP3   OH237543   1.196   4.855  16.067 -0.0256 -0.3570 -0.1534
 5351TIP3    H137544   1.159   4.767  16.067 -0.9074  0.0020 -0.3756
 5351TIP3    H237545   1.150   4.901  15.997  0.6604  0.1921 -0.2624
 5352TIP3   OH237546   6.849   3.130  15.449 -0.2246 -0.3981 -1.1983
 5352TIP3    H137547   6.781   3.092  15.393  0.5056 -1.2545 -1.5410
 5352TIP3    H237548   6.931   3.096  15.413  0.3470  0.1089 -0.4099
 5353TIP3   OH237549   2.630   3.959   4.721  0.1656  0.4793  0.0401
 5353TIP3    H137550   2.648   3.967   4.628 -2.4349  1.1553 -0.4908
 5353TIP3    H237551   2.602   3.868   4.733  0.0243  0.5259  0.0652
 5354TIP3   OH237552   5.828   4.186   1.352  0.1210  0.6780  0.0048
 5354TIP3    H137553   5.861   4.232   1.429  2.4381  0.3857 -0.7296
 5354TIP3    H237554   5.747   4.230   1.330 -0.3958  1.0326  2.3566
 5355TIP3   OH237555   5.031   0.046   1.052 -0.5747 -0.3149 -0.5903
 5355TIP3    H137556   5.048   0.141   1.051 -0.2828 -0.2556  2.0286
 5355TIP3    H237557   5.110   0.007   1.014 -1.0545  0.4747 -2.5100
 5356TIP3   OH237558   0.465   0.268   4.737 -0.0603 -0.1257 -0.5380
 5356TIP3    H137559   0.447   0.226   4.652  1.4230 -0.6553 -0.6160
 5356TIP3    H237560   0.541   0.221   4.771  1.3575  2.1607 -0.3669
 5357TIP3   OH237561   4.153   4.918  12.650 -0.2366  0.2535 -0.4861
 5357TIP3    H137562   4.222   4.970  12.609  0.3095  0.0339  0.1509
 5357TIP3    H237563   4.147   4.952  12.739  0.3956 -1.0279  0.0582
 5358TIP3   OH237564   2.728   3.704   5.191 -0.1325 -0.2861  0.4487
 5358TIP3    H137565   2.819   3.717   5.218  0.8310 -1.4836 -1.9005
 5358TIP3    H237566   2.688   3.790   5.201  1.9608  0.9328 -0.7279
 5359TIP3   OH237567   3.228   0.945  13.317  0.3698 -0.0163  0.1793
 5359TIP3    H137568   3.153   0.975  13.266 -1.0720 -2.8710  0.3899
 5359TIP3    H237569   3.196   0.941  13.407  0.5153 -1.7878  0.1994
 5360TIP3   OH237570   1.812   1.491   0.718 -0.8103  0.3254  0.2576
 5360TIP3    H137571   1.906   1.509   0.708 -0.8534  1.8166  1.9690
 5360TIP3    H237572   1.781   1.473   0.629  0.6828  2.0307 -0.6727
 5361TIP3   OH237573   6.204   6.832  14.440  0.1180  0.0410  0.5000
 5361TIP3    H137574   6.110   6.812  14.437  0.2682 -0.9873  1.6350
 5361TIP3    H237575   6.208   6.922  14.472 -0.5053  0.6868 -1.1526
 5362TIP3   OH237576   2.709   4.335  14.089 -0.2514 -0.6025 -0.0804
 5362TIP3    H137577   2.770   4.267  14.119  4.1021  3.0404  0.3210
 5362TIP3    H237578   2.662   4.360  14.169  0.6354 -0.8045  0.5290
 5363TIP3   OH237579   6.315   2.913  15.751 -0.2584 -0.2515 -0.1365
 5363TIP3    H137580   6.235   2.887  15.797 -1.6928  1.7241 -1.3417
 5363TIP3    H237581   6.315   3.008  15.755  0.3939 -0.0675 -2.7430
 5364TIP3   OH237582   2.003   1.742  11.988 -0.1651  0.1114 -0.5794
 5364TIP3    H137583   2.023   1.751  11.895 -0.7307  0.7293 -0.6507
 5364TIP3    H237584   1.962   1.825  12.012 -1.9292 -0.7839 -0.2869
 5365TIP3   OH237585   1.016   5.839   6.378 -0.1199  0.1359 -0.4949
 5365TIP3    H137586   1.065   5.759   6.399  0.1455 -0.2553 -2.4482
 5365TIP3    H237587   1.038   5.899   6.449  1.8521 -0.6223 -0.3943
 5366TIP3   OH237588   0.938   6.479  16.014 -0.9509  0.4687 -0.1049
 5366TIP3    H137589   0.989   6.445  15.941 -1.5687  1.9426 -1.2671
 5366TIP3    H237590   1.003   6.523  16.070 -0.6179  0.2308 -0.3039
 5367TIP3   OH237591   1.801   4.024  14.092 -0.0859 -0.2480 -0.2956
 5367TIP3    H137592   1.833   4.035  14.003  0.3985 -0.4462 -0.1448
 5367TIP3    H237593   1.739   3.952  14.087 -0.5608  0.1719 -0.5963
 5368TIP3   OH237594   2.538   1.443   6.220 -0.6626  0.2242 -0.2489
 5368TIP3    H137595   2.630   1.421   6.230 -1.1797 -1.3987  1.6374
 5368TIP3    H237596   2.493   1.359   6.219 -2.2245  1.0154  0.1737
 5369TIP3   OH237597   6.659   0.794   6.320  1.0018 -0.3826 -0.2573
 5369TIP3    H137598   6.648   0.739   6.398  0.7231  0.3465  0.2230
 5369TIP3    H237599   6.595   0.760   6.258  0.9166 -0.6797 -0.0105
 5370TIP3   OH237600   2.914   4.705   0.809  0.0756  0.5059  0.5217
 5370TIP3    H137601   2.935   4.754   0.888 -4.1909  0.9074  1.6386
 5370TIP3    H237602   2.918   4.614   0.835 -0.1957  0.5944  0.8760
 5371TIP3   OH237603   2.114   0.674  15.300  0.3121  0.0345  0.2102
 5371TIP3    H137604   2.157   0.758  15.316  0.3606 -0.1168  0.9202
 5371TIP3    H237605   2.021   0.692  15.315  0.0952  0.3757 -1.3765
 5372TIP3   OH237606   0.620   2.184  13.054  0.0865  0.3020 -0.0250
 5372TIP3    H137607   0.581   2.262  13.093  0.5585  0.8068 -0.5477
 5372TIP3    H237608   0.565   2.112  13.085 -2.0137  1.0848 -1.6408
 5373TIP3   OH237609   2.421   0.351  16.665 -0.4306 -0.0084  0.3744
 5373TIP3    H137610   2.387   0.327  16.579 -0.2063 -0.5349  0.4290
 5373TIP3    H237611   2.364   0.423  16.694 -0.2093  0.4905 -0.4123
 5374TIP3   OH237612   6.667   1.735   3.383  0.4447  0.1238  0.7973
 5374TIP3    H137613   6.596   1.785   3.423  2.5430  1.6653  2.9154
 5374TIP3    H237614   6.725   1.801   3.345  0.7096 -1.0940 -1.0723
 5375TIP3   OH237615   6.347   2.153  14.434 -0.6691  0.0463 -0.3630
 5375TIP3    H137616   6.287   2.163  14.508  0.6196  0.7362  0.6411
 5375TIP3    H237617   6.346   2.059  14.416 -0.1525 -0.3252  1.3253
 5376TIP3   OH237618   6.400   0.316   1.651  0.0984 -0.1269  0.3504
 5376TIP3    H137619   6.361   0.363   1.578  2.6841 -1.1466 -1.8576
 5376TIP3    H237620   6.457   0.380   1.693 -0.1817  0.0346  0.4863
 5377TIP3   OH237621   0.925   0.324  15.919  0.0893  0.4894  0.0127
 5377TIP3    H137622   0.973   0.267  15.859 -1.9554 -0.2204 -1.0638
 5377TIP3    H237623   0.881   0.264  15.980  1.0360  1.1448  1.4022
 5378TIP3   OH237624   2.308   5.935  11.434 -0.2910  0.5550 -0.0907
 5378TIP3    H137625   2.281   5.892  11.515 -0.8192  1.7403  0.4019
 5378TIP3    H237626   2.289   6.028  11.450  1.0440  1.0035 -0.9963
 5379TIP3   OH237627   2.789   1.745  15.441 -0.0060  0.2295 -0.2217
 5379TIP3    H137628   2.830   1.829  15.461 -0.1100  0.2602 -0.1379
 5379TIP3    H237629   2.822   1.723  15.354 -1.1689  1.0972 -0.9165
 5380TIP3   OH237630   1.912   4.138   4.219  0.3385 -0.1103  0.0970
 5380TIP3    H137631   1.821   4.169   4.223  0.0794 -0.9149  0.4814
 5380TIP3    H237632   1.949   4.183   4.143  0.2320  1.8199  1.1251
 5381TIP3   OH237633   5.842   3.636   4.299  0.4735 -0.0371 -0.1975
 5381TIP3    H137634   5.914   3.687   4.336 -0.1639  1.9954 -1.5595
 5381TIP3    H237635   5.847   3.652   4.205  0.8102 -3.3631 -0.8898
 5382TIP3   OH237636   6.430   4.238   3.111 -0.0185 -0.1061  0.1696
 5382TIP3    H137637   6.450   4.144   3.109  2.2700  0.3117  0.6846
 5382TIP3    H237638   6.371   4.248   3.185 -0.3874 -1.1463  0.0386
 5383TIP3   OH237639   5.274   6.839   3.948  0.4770 -0.5698  0.1752
 5383TIP3    H137640   5.275   6.906   4.016  0.1391  0.9395 -1.2469
 5383TIP3    H237641   5.192   6.791   3.963 -1.1315  1.6651 -0.8741
 5384TIP3   OH237642   4.942   3.236   4.725 -0.3210  0.0803 -0.3609
 5384TIP3    H137643   4.926   3.177   4.651  0.6157 -0.1336 -0.4041
 5384TIP3    H237644   4.877   3.211   4.790 -0.6731 -0.2280 -0.8275
 5385TIP3   OH237645   6.660   6.418  11.260  0.3722 -0.0451 -0.0226
 5385TIP3    H137646   6.715   6.339  11.255  0.3876 -0.2394  2.1543
 5385TIP3    H237647   6.598   6.409  11.188  0.5356 -1.9253  0.0303
 5386TIP3   OH237648   1.177   6.639   2.873 -0.1146  0.7408  0.3627
 5386TIP3    H137649   1.158   6.552   2.838  0.9010  0.0447  1.4966
 5386TIP3    H237650   1.166   6.697   2.797 -1.9037 -0.1976 -0.1541
 5387TIP3   OH237651   2.353   1.366  15.107 -0.2175 -0.2890  0.7612
 5387TIP3    H137652   2.290   1.369  15.035 -1.2520  0.7338  1.6586
 5387TIP3    H237653   2.337   1.282  15.150 -0.9937 -0.0375  0.9845
 5388TIP3   OH237654   6.816   0.235   4.135 -0.3768 -0.0513  0.5595
 5388TIP3    H137655   6.824   0.246   4.230 -2.8827  2.2489  0.6199
 5388TIP3    H237656   6.760   0.158   4.125  1.6301 -1.6283  0.7882
 5389TIP3   OH237657   5.284   1.938   5.541 -0.0173 -0.1836  0.3176
 5389TIP3    H137658   5.211   1.912   5.486  0.3313 -1.4247  0.4118
 5389TIP3    H237659   5.246   1.999   5.604 -0.7560 -0.0525 -0.2424
 5390TIP3   OH237660   1.734   2.438   3.805  0.1400  0.2564  0.3261
 5390TIP3    H137661   1.699   2.520   3.840  1.0039  0.4842  0.6817
 5390TIP3    H237662   1.727   2.376   3.877  0.2475  0.2415  0.3247
 5391TIP3   OH237663   0.101   1.105  12.110 -0.3290 -0.6459 -0.3962
 5391TIP3    H137664   0.059   1.189  12.127  1.5811  0.4290 -0.6684
 5391TIP3    H237665   0.159   1.091  12.185  0.6180 -0.8570 -1.1413
 5392TIP3   OH237666   0.881   5.867   3.355 -0.4391 -0.8112  0.0613
 5392TIP3    H137667   0.930   5.802   3.406 -0.4758 -1.2876 -0.5095
 5392TIP3    H237668   0.894   5.842   3.264 -0.8875 -0.3279 -0.1416
 5393TIP3   OH237669   1.239   3.578  12.702 -0.1341 -0.5643 -0.7034
 5393TIP3    H137670   1.206   3.667  12.695 -0.5858 -0.7989 -1.6731
 5393TIP3    H237671   1.167   3.528  12.741  0.1452 -0.5043 -0.0890
 5394TIP3   OH237672   6.404   6.415  11.120  0.3326 -0.3829 -0.3690
 5394TIP3    H137673   6.390   6.469  11.042  0.6174 -0.4932 -0.4992
 5394TIP3    H237674   6.354   6.459  11.189  0.0145 -0.3283 -0.6326
 5395TIP3   OH237675   1.727   2.255  11.884  0.1198  0.0330  0.5250
 5395TIP3    H137676   1.672   2.238  11.807  1.5198  0.0495 -0.5166
 5395TIP3    H237677   1.729   2.172  11.931 -0.3132 -0.1385  0.2462
 5396TIP3   OH237678   3.767   4.401   0.957 -0.2342  0.7095  0.0665
 5396TIP3    H137679   3.787   4.364   1.043 -0.9989 -0.0255 -0.0606
 5396TIP3    H237680   3.727   4.328   0.908  0.1241  1.1313 -0.8882
 5397TIP3   OH237681   0.353   6.320  16.275 -0.4098  0.2758  0.0997
 5397TIP3    H137682   0.315   6.325  16.363 -0.0350 -0.3059  0.3057
 5397TIP3    H237683   0.337   6.406  16.237 -3.0393 -0.3059 -0.2969
 5398TIP3   OH237684   3.191   1.607  11.192 -0.2426 -0.3857 -0.1258
 5398TIP3    H137685   3.097   1.592  11.180 -0.9137  1.6093  1.7854
 5398TIP3    H237686   3.214   1.668  11.123 -0.9094  0.7876  0.6506
 5399TIP3   OH237687   1.186   1.908   5.389  0.3072 -0.0260  0.0473
 5399TIP3    H137688   1.168   1.818   5.417  0.1430 -0.4948 -1.4850
 5399TIP3    H237689   1.117   1.960   5.431  0.5434 -0.5675  1.1369
 5400TIP3   OH237690   2.042   3.840   3.138  0.4536  0.6622  0.0399
 5400TIP3    H137691   2.110   3.773   3.151  1.2921  1.0854 -1.9412
 5400TIP3    H237692   1.965   3.791   3.108  0.3925  0.3879  0.6134
 5401TIP3   OH237693   2.850   2.460  12.445  0.6608  0.4161 -0.6862
 5401TIP3    H137694   2.805   2.386  12.486  0.2205  0.2022 -1.5209
 5401TIP3    H237695   2.943   2.437  12.449  0.4911 -0.4689 -1.4414
 5402TIP3   OH237696   1.781   6.831   3.632 -0.3967 -0.3870 -0.0082
 5402TIP3    H137697   1.847   6.768   3.662 -0.2344 -0.7901 -1.1797
 5402TIP3    H237698   1.725   6.781   3.573 -2.2987 -0.2780  1.6120
 5403TIP3   OH237699   2.528   5.127  16.372  0.4393 -0.1114 -0.4747
 5403TIP3    H137700   2.449   5.181  16.371 -0.4020 -1.3088 -1.4961
 5403TIP3    H237701   2.532   5.092  16.461 -1.4968 -1.8316 -0.9947
 5404TIP3   OH237702   6.059   4.867  13.482  0.2251 -0.4185  0.4001
 5404TIP3    H137703   6.069   4.952  13.439  1.3152 -1.6343 -1.9180
 5404TIP3    H237704   6.145   4.848  13.519  0.0496 -0.6127  0.7146
 5405TIP3   OH237705   3.925   3.484  12.347  0.7770 -0.4411 -0.2719
 5405TIP3    H137706   4.011   3.502  12.309  0.2169 -0.7069 -1.7414
 5405TIP3    H237707   3.905   3.395  12.320  0.3841 -0.6846  0.7653
 5406TIP3   OH237708   2.394   6.010  10.900 -0.1634  0.3369 -0.1681
 5406TIP3    H137709   2.340   6.077  10.860 -0.0673  0.1101 -0.6890
 5406TIP3    H237710   2.449   6.057  10.963  0.3550  0.8490 -0.9850
 5407TIP3   OH237711   5.947   6.155   1.232  0.5850 -0.5416 -0.5889
 5407TIP3    H137712   5.939   6.101   1.310  1.5113 -0.7737 -0.6392
 5407TIP3    H237713   5.890   6.113   1.167 -1.5657  0.6460  0.4602
 5408TIP3   OH237714   5.418   5.930   3.452  0.4456  0.3565 -0.5874
 5408TIP3    H137715   5.369   5.849   3.436  0.1065  0.8167 -1.9844
 5408TIP3    H237716   5.350   5.996   3.469  0.7363  0.2412  1.2258
 5409TIP3   OH237717   4.046   5.389  15.769 -0.2259  0.2489 -0.3176
 5409TIP3    H137718   3.963   5.345  15.750 -0.9845  1.0411  1.0766
 5409TIP3    H237719   4.111   5.319  15.764 -1.4784 -1.2453  2.4620
 5410TIP3   OH237720   1.872   0.147   3.886  0.2021 -0.4555 -0.0527
 5410TIP3    H137721   1.964   0.158   3.863 -0.1751  0.5513 -1.2129
 5410TIP3    H237722   1.873   0.101   3.970  1.7593  0.0295  0.2221
 5411TIP3   OH237723   0.138   4.627   3.749  0.3288  0.1335  0.7467
 5411TIP3    H137724   0.203   4.694   3.730  0.6473 -0.1375  0.8829
 5411TIP3    H237725   0.106   4.649   3.837 -1.5448  1.7151 -0.2413
 5412TIP3   OH237726   1.661   1.530   3.490  0.0284  0.9810  0.3723
 5412TIP3    H137727   1.753   1.553   3.500  0.1015  0.5427  0.7582
 5412TIP3    H237728   1.614   1.613   3.493  0.5043  1.3209 -1.0570
 5413TIP3   OH237729   4.883   2.572  12.818  0.5307  0.5173 -0.1025
 5413TIP3    H137730   4.963   2.571  12.765  0.2321 -1.1579 -0.5953
 5413TIP3    H237731   4.880   2.485  12.858 -0.2911  1.0739  1.0897
 5414TIP3   OH237732   5.613   5.385   0.711  0.2200 -0.2980 -0.1034
 5414TIP3    H137733   5.535   5.369   0.764  1.8445  1.4783  3.1482
 5414TIP3    H237734   5.608   5.478   0.689  0.7642 -0.4866 -1.0542
 5415TIP3   OH237735   3.263   2.262   0.891 -0.5182  0.3305  0.2645
 5415TIP3    H137736   3.173   2.248   0.923 -0.3001 -0.9303  0.3731
 5415TIP3    H237737   3.287   2.178   0.852  0.4537  0.8103 -0.1806
 5416TIP3   OH237738   5.360   2.960  15.940 -0.4757  0.2811 -0.0426
 5416TIP3    H137739   5.346   2.892  15.873 -1.2970  0.0920  0.3134
 5416TIP3    H237740   5.281   3.014  15.937 -0.4386  0.3831  0.6453
 5417TIP3   OH237741   5.030   3.799  10.542 -0.4408 -0.3697  0.1523
 5417TIP3    H137742   5.085   3.873  10.516  0.1452 -0.7928  0.1769
 5417TIP3    H237743   4.954   3.840  10.583  0.8219  0.1855  2.0637
 5418TIP3   OH237744   0.684   6.482   2.349  0.2248 -0.1103  0.4338
 5418TIP3    H137745   0.657   6.404   2.398 -1.3354 -1.5208 -2.4007
 5418TIP3    H237746   0.768   6.457   2.311 -0.3721 -0.5602 -0.6428
 5419TIP3   OH237747   5.642   4.467  13.510  0.2985 -0.3985  0.3200
 5419TIP3    H137748   5.566   4.505  13.466 -0.1262 -1.3481  0.2027
 5419TIP3    H237749   5.701   4.541  13.525 -0.7906  0.4193  0.7094
 5420TIP3   OH237750   4.357   0.457   1.433  0.1309 -0.0408 -0.1027
 5420TIP3    H137751   4.449   0.432   1.445  0.3422  0.9545  0.4853
 5420TIP3    H237752   4.342   0.448   1.339  0.6132 -0.9247 -0.1014
 5421TIP3   OH237753   5.316   1.114  11.554  0.2810  0.4102 -0.0395
 5421TIP3    H137754   5.250   1.163  11.505 -0.0708  1.3863  1.3485
 5421TIP3    H237755   5.338   1.171  11.628  0.7833 -1.0169  0.9478
 5422TIP3   OH237756   0.564   0.561   5.243 -0.1010  0.1439  0.3424
 5422TIP3    H137757   0.534   0.576   5.332  0.4399  0.4840  0.4719
 5422TIP3    H237758   0.654   0.529   5.253 -0.4972 -1.1718 -0.0176
 5423TIP3   OH237759   0.776   3.541   2.955 -0.1867 -0.2713 -0.3326
 5423TIP3    H137760   0.850   3.577   2.907 -0.2975 -0.3065 -0.5280
 5423TIP3    H237761   0.767   3.600   3.031 -0.3299  0.0810 -0.6219
 5424TIP3   OH237762   1.908   1.878   1.780 -0.4500  0.1543  0.2927
 5424TIP3    H137763   1.833   1.901   1.726  0.1533  1.0820 -0.1791
 5424TIP3    H237764   1.927   1.958   1.829  0.4011  0.0221  0.1959
 5425TIP3   OH237765   4.282   0.932   2.024 -0.0613 -0.5816  0.5882
 5425TIP3    H137766   4.351   0.929   1.958  1.4532  0.5067  2.0486
 5425TIP3    H237767   4.328   0.945   2.107 -2.0062 -0.0824  1.6598
 5426TIP3   OH237768   4.156   5.971  16.186  0.4717  0.1239 -0.2165
 5426TIP3    H137769   4.082   5.924  16.223 -0.3335  0.9494 -0.7280
 5426TIP3    H237770   4.137   5.977  16.092  1.3645  0.0338 -0.4119
 5427TIP3   OH237771   0.297   4.712  16.194 -0.8295  0.2518  0.1759
 5427TIP3    H137772   0.218   4.766  16.194 -0.6232  0.5800  0.9912
 5427TIP3    H237773   0.361   4.765  16.242 -0.6462 -0.7536  1.0666
 5428TIP3   OH237774   3.156   4.150  15.688 -0.1652 -0.2030 -0.4571
 5428TIP3    H137775   3.235   4.195  15.658 -0.3040  0.1737 -0.2721
 5428TIP3    H237776   3.098   4.221  15.716 -0.0457 -0.5275  0.6852
 5429TIP3   OH237777   2.340   3.313  10.793 -0.2082  0.2723 -0.3131
 5429TIP3    H137778   2.318   3.403  10.814  1.6631  0.8185 -0.5107
 5429TIP3    H237779   2.260   3.276  10.756 -1.9335  0.9237  2.4592
 5430TIP3   OH237780   1.645   4.914  12.618 -0.5815 -0.4976  0.0096
 5430TIP3    H137781   1.576   4.967  12.580 -0.3591  0.6192  1.0830
 5430TIP3    H237782   1.647   4.835  12.565 -1.7778  0.0230 -0.8550
 5431TIP3   OH237783   6.787   0.377  11.875  0.0673 -0.1202  0.2968
 5431TIP3    H137784   6.693   0.367  11.859  0.1397 -2.9287  1.1038
 5431TIP3    H237785   6.817   0.433  11.804 -1.9504 -0.5656 -1.0043
 5432TIP3   OH237786   5.930   1.048   3.064  0.5160 -0.1413 -0.2073
 5432TIP3    H137787   5.957   0.992   2.991 -0.1553 -0.2817 -0.3564
 5432TIP3    H237788   5.968   1.007   3.141  0.5126 -0.4758 -0.3804
 5433TIP3   OH237789   4.109   4.711  11.689 -0.4307  0.1652 -0.1430
 5433TIP3    H137790   4.133   4.627  11.648  0.2436  0.9083 -1.3144
 5433TIP3    H237791   4.069   4.686  11.772 -0.2759 -1.3278 -0.4885
 5434TIP3   OH237792   1.104   4.175  11.542 -0.1579 -0.2508 -0.2617
 5434TIP3    H137793   1.053   4.107  11.588  0.4318 -1.1442 -0.8840
 5434TIP3    H237794   1.191   4.136  11.531  0.1337  0.5332 -0.8101
 5435TIP3   OH237795   4.426   0.076   3.933  0.1213 -0.1148 -0.2851
 5435TIP3    H137796   4.364   0.049   4.001  0.4569  1.0538  0.5198
 5435TIP3    H237797   4.503   0.105   3.982  0.0674  1.5254 -1.1178
 5436TIP3   OH237798   0.677   2.468  12.821 -0.0181  0.5646 -0.2762
 5436TIP3    H137799   0.722   2.486  12.903  0.9244 -3.1511  0.2413
 5436TIP3    H237800   0.592   2.511  12.829 -0.0790  0.0816  2.8390
 5437TIP3   OH237801   1.259   0.617  15.799  0.0176  0.3988 -0.2113
 5437TIP3    H137802   1.174   0.634  15.758 -0.5481 -1.9723 -0.2173
 5437TIP3    H237803   1.237   0.587  15.888  0.7430 -1.1527 -0.5223
 5438TIP3   OH237804   2.758   3.506  15.486 -0.4146 -0.4924 -0.0934
 5438TIP3    H137805   2.833   3.456  15.518 -0.0466 -0.0539 -0.2667
 5438TIP3    H237806   2.727   3.555  15.562 -0.4838 -0.6238 -0.0371
 5439TIP3   OH237807   1.492   0.601   6.247  0.1575  0.2193 -0.1862
 5439TIP3    H137808   1.407   0.591   6.204 -0.9981 -0.9342  2.1681
 5439TIP3    H237809   1.538   0.519   6.228  0.9735  1.0293 -1.8406
 5440TIP3   OH237810   4.909   4.398   0.667  0.0860 -0.2586  0.2924
 5440TIP3    H137811   4.924   4.342   0.743  0.3023 -1.4648 -0.6021
 5440TIP3    H237812   4.989   4.449   0.658 -0.3180  0.6095  1.4354
 5441TIP3   OH237813   2.438   3.898   5.049 -0.0062 -0.5281  0.3811
 5441TIP3    H137814   2.429   3.807   5.024  0.7297 -0.1696 -1.3260
 5441TIP3    H237815   2.378   3.945   4.991  2.1360  0.3849 -1.2368
 5442TIP3   OH237816   1.997   2.393  11.589 -0.4777 -0.4339  0.2411
 5442TIP3    H137817   1.934   2.454  11.627 -0.2339 -0.5389  0.8357
 5442TIP3    H237818   2.008   2.325  11.656  1.1051  0.1655  0.6418
 5443TIP3   OH237819   5.776   1.106   0.942 -0.1299 -0.1072  0.4999
 5443TIP3    H137820   5.697   1.052   0.928  0.1196 -0.3207 -0.1531
 5443TIP3    H237821   5.844   1.042   0.964 -0.0791  0.0503  0.7941
 5444TIP3   OH237822   6.608   2.201  14.531 -0.1158  0.1251  0.2759
 5444TIP3    H137823   6.628   2.290  14.501  1.1653  0.1885  1.2705
 5444TIP3    H237824   6.523   2.181  14.490  1.7054 -0.0370 -3.9521
 5445TIP3   OH237825   4.382   2.624  13.108 -0.2289  0.1771 -0.2232
 5445TIP3    H137826   4.296   2.595  13.137  0.2805  0.0549  1.2336
 5445TIP3    H237827   4.428   2.544  13.082 -1.2557  0.4245 -3.1551
 5446TIP3   OH237828   2.362   1.168   4.509  0.2382 -0.1414 -0.6740
 5446TIP3    H137829   2.346   1.079   4.540  0.9534 -0.6497 -1.7115
 5446TIP3    H237830   2.360   1.162   4.414  2.1918  0.5602 -0.8126
 5447TIP3   OH237831   4.667   1.034  14.182  0.0620 -0.2797 -0.3683
 5447TIP3    H137832   4.575   1.007  14.184  0.3463 -1.2634  0.5971
 5447TIP3    H237833   4.712   0.960  14.141  0.6579 -0.6535  0.9144
 5448TIP3   OH237834   5.719   4.854   2.281  0.0952 -0.4696  0.0001
 5448TIP3    H137835   5.698   4.928   2.223  1.9409  0.0075 -0.1267
 5448TIP3    H237836   5.694   4.776   2.231 -0.6672  0.0067 -0.3886
 5449TIP3   OH237837   1.240   2.704  13.610  0.1165 -0.6283 -0.4354
 5449TIP3    H137838   1.203   2.629  13.563  0.4714 -1.5047  0.6636
 5449TIP3    H237839   1.225   2.685  13.702 -1.1848  1.4050 -0.1741
 5450TIP3   OH237840   3.996   1.384   2.218 -0.0437  1.0564 -0.0231
 5450TIP3    H137841   4.074   1.434   2.241 -1.1334  2.7349  0.1903
 5450TIP3    H237842   3.990   1.391   2.123  0.1387  0.8126 -0.0526
 5451TIP3   OH237843   3.800   2.471  15.738  0.2660 -0.1081  0.7342
 5451TIP3    H137844   3.893   2.490  15.747  0.2521  0.5588 -0.3418
 5451TIP3    H237845   3.771   2.525  15.664 -0.4795 -1.9854 -0.4028
 5452TIP3   OH237846   2.783   5.103   0.591 -0.2610  0.2704 -0.0721
 5452TIP3    H137847   2.849   5.160   0.553  1.1571 -1.6141 -0.5701
 5452TIP3    H237848   2.797   5.108   0.685  0.2338  0.2996 -0.1484
 5453TIP3   OH237849   6.023   0.123   1.179 -0.5842 -0.1123  0.8308
 5453TIP3    H137850   6.076   0.200   1.161  0.4309 -0.9712  0.0325
 5453TIP3    H237851   6.064   0.082   1.255  0.6181 -1.3649 -0.4328
 5454TIP3   OH237852   3.557   0.847   0.351  0.6118  0.1827 -0.3388
 5454TIP3    H137853   3.513   0.901   0.417 -0.6596 -0.8940 -0.2604
 5454TIP3    H237854   3.523   0.879   0.268 -2.2492 -2.0821 -0.2237
 5455TIP3   OH237855   0.183   3.081  14.708  0.0228  0.1731  0.5462
 5455TIP3    H137856   0.191   3.173  14.682  0.7868  0.0997  0.4796
 5455TIP3    H237857   0.171   3.083  14.802  1.5313  0.3078  0.7624
 5456TIP3   OH237858   4.513   4.271   0.604 -0.3780  0.3968  0.2178
 5456TIP3    H137859   4.522   4.302   0.514  1.4550  1.5295  0.7208
 5456TIP3    H237860   4.512   4.351   0.657  3.5639 -0.1534  1.5029
 5457TIP3   OH237861   2.531   1.532  13.356 -0.0821  0.2900 -0.3434
 5457TIP3    H137862   2.512   1.612  13.406 -0.1175  1.0173 -1.4924
 5457TIP3    H237863   2.498   1.551  13.268 -1.2960 -1.4940 -0.3139
 5458TIP3   OH237864   6.156   6.090   0.976  0.2080 -0.3147  0.2366
 5458TIP3    H137865   6.117   6.010   1.013  0.2707  0.1731  1.4046
 5458TIP3    H237866   6.153   6.076   0.882 -0.5821 -1.3270  0.3851
 5459TIP3   OH237867   3.485   4.004  13.644 -0.1488  0.1508 -0.5741
 5459TIP3    H137868   3.472   3.948  13.720 -0.5724 -0.0999 -0.8238
 5459TIP3    H237869   3.563   3.969  13.601 -0.1397  0.0457 -0.4720
 5460TIP3   OH237870   2.743   2.880   5.106  0.3044  0.1911 -0.3352
 5460TIP3    H137871   2.684   2.941   5.062  1.7168  2.6410  0.9413
 5460TIP3    H237872   2.788   2.835   5.034  0.7600  2.2738 -1.4379
 5461TIP3   OH237873   4.233   5.705  14.134 -0.1588 -0.1118  0.0173
 5461TIP3    H137874   4.327   5.723  14.143 -0.5175  1.5133  0.9998
 5461TIP3    H237875   4.228   5.610  14.123  1.6952 -0.0860 -1.8303
 5462TIP3   OH237876   1.554   2.709  16.755  0.1659  0.0044  0.0851
 5462TIP3    H137877   1.465   2.686  16.779 -0.5305  1.9375 -0.4665
 5462TIP3    H237878   1.593   2.627  16.724 -1.5772 -0.7689 -0.1614
 5463TIP3   OH237879   6.240   1.263   1.821  1.2658  0.4709  0.1037
 5463TIP3    H137880   6.260   1.258   1.915 -1.4224 -0.8019  0.7157
 5463TIP3    H237881   6.168   1.325   1.815 -0.1091 -1.1379 -0.7584
 5464TIP3   OH237882   2.171   4.844   0.431 -0.0469 -0.8269 -0.1888
 5464TIP3    H137883   2.156   4.788   0.355 -1.2421 -2.0919  0.9233
 5464TIP3    H237884   2.153   4.788   0.506  0.2793  0.6244  1.0173
 5465TIP3   OH237885   0.328   4.842   1.052  0.0364  0.1296 -0.4915
 5465TIP3    H137886   0.278   4.923   1.060  0.4889  0.3162  0.7020
 5465TIP3    H237887   0.319   4.800   1.138  0.6592 -0.5727 -0.7595
 5466TIP3   OH237888   3.040   1.342  14.006 -0.1982 -0.3465  0.2278
 5466TIP3    H137889   3.100   1.369  14.076 -0.9894 -0.2817  0.9038
 5466TIP3    H237890   3.041   1.415  13.944  0.7368 -0.5307  0.0203
 5467TIP3   OH237891   5.875   6.436   1.539  0.1267  0.1548  0.1913
 5467TIP3    H137892   5.908   6.419   1.450  0.9151  0.3538  0.4424
 5467TIP3    H237893   5.920   6.372   1.594  0.8617  1.0835  0.6914
 5468TIP3   OH237894   5.762   4.640   4.121  0.5742  0.3170 -0.4265
 5468TIP3    H137895   5.830   4.625   4.055 -0.6366  0.3365 -1.7482
 5468TIP3    H237896   5.728   4.553   4.140  2.3212  0.0432  1.8353
 5469TIP3   OH237897   1.166   0.486   1.219  0.8844 -0.4476  0.2095
 5469TIP3    H137898   1.109   0.451   1.151  1.4827 -0.0467 -0.5230
 5469TIP3    H237899   1.140   0.441   1.299  0.7808 -1.6106 -0.4629
 5470TIP3   OH237900   3.426   5.872  13.756 -0.3791  0.0236 -0.4483
 5470TIP3    H137901   3.496   5.900  13.814 -0.1571  0.8377 -1.0933
 5470TIP3    H237902   3.441   5.778  13.743 -0.4524 -0.1709  0.8073
 5471TIP3   OH237903   0.537   6.350   5.135  0.0173  0.0143 -0.1619
 5471TIP3    H137904   0.460   6.356   5.078 -0.9599  0.0461  1.1268
 5471TIP3    H237905   0.595   6.288   5.090 -1.2585 -0.9014 -0.5974
 5472TIP3   OH237906   0.252   2.345  13.919 -0.0784 -0.0774 -0.6342
 5472TIP3    H137907   0.314   2.405  13.962 -1.1092  1.5353 -1.3264
 5472TIP3    H237908   0.191   2.321  13.989  1.9085 -2.6599  0.3830
 5473TIP3   OH237909   2.838   3.896   3.919 -0.4232  0.1567  0.0174
 5473TIP3    H137910   2.909   3.946   3.878 -0.3803 -0.4092 -0.6135
 5473TIP3    H237911   2.817   3.827   3.856  1.0923 -2.0952  1.7600
 5474TIP3   OH237912   0.090   4.837  11.628  0.5884 -0.0229 -0.0025
 5474TIP3    H137913   0.176   4.804  11.655  0.6997  0.5100  0.3253
 5474TIP3    H237914   0.027   4.775  11.664  0.7971  0.0542  0.5033
 5475TIP3   OH237915   1.903   3.064   4.803  0.7146  0.0038 -0.3697
 5475TIP3    H137916   1.964   3.096   4.869  0.1252 -1.7458  1.1032
 5475TIP3    H237917   1.948   3.079   4.719  2.8423 -0.5494  0.6130
 5476TIP3   OH237918   5.106   4.127   3.523 -0.4608  0.1661  0.4038
 5476TIP3    H137919   5.043   4.166   3.583 -0.5926 -0.2548  0.5420
 5476TIP3    H237920   5.175   4.193   3.514 -1.5205  1.1866 -0.7420
 5477TIP3   OH237921   0.421   4.429  16.614  0.2334  0.1044  0.2309
 5477TIP3    H137922   0.454   4.462  16.530 -0.7204 -1.6053 -0.8842
 5477TIP3    H237923   0.446   4.337  16.614  0.9171  0.2537  2.2401
 5478TIP3   OH237924   5.968   3.549  16.519 -0.3503 -0.4206  0.1351
 5478TIP3    H137925   5.895   3.608  16.537 -0.9245 -1.1940  0.3792
 5478TIP3    H237926   5.927   3.466  16.497  0.4568 -1.3593  1.9450
 5479TIP3   OH237927   0.445   4.696  12.126 -0.4410  0.4114 -0.0230
 5479TIP3    H137928   0.460   4.790  12.117  0.4537  0.4838  1.8443
 5479TIP3    H237929   0.530   4.660  12.154 -1.0691 -0.7746  0.4527
 5480TIP3   OH237930   1.812   3.263   2.439  0.0746  0.4465  0.2737
 5480TIP3    H137931   1.845   3.341   2.395  0.4538 -0.9703 -2.1250
 5480TIP3    H237932   1.888   3.227   2.485 -0.0700  1.3533  1.2748
 5481TIP3   OH237933   5.098   3.498   5.437  0.5772  0.1747  0.3427
 5481TIP3    H137934   5.120   3.478   5.528 -1.4307 -1.5280  0.5080
 5481TIP3    H237935   5.036   3.570   5.444 -1.1585 -1.2824  0.5038
 5482TIP3   OH237936   0.940   2.242  12.602  1.0979  0.1089 -0.5819
 5482TIP3    H137937   0.979   2.174  12.656  0.2461 -0.1130 -0.2465
 5482TIP3    H237938   0.996   2.245  12.524  2.7940  0.9483  0.5943
 5483TIP3   OH237939   0.127   1.666  14.382 -0.0691 -0.1310  0.6934
 5483TIP3    H137940   0.201   1.684  14.323  0.6318  0.8271  1.8292
 5483TIP3    H237941   0.055   1.717  14.346  0.2718  0.2128  0.4848
 5484TIP3   OH237942   6.110   3.275   1.874  0.0175 -0.1787  0.1771
 5484TIP3    H137943   6.106   3.370   1.870 -0.5061 -0.2109 -0.2919
 5484TIP3    H237944   6.133   3.248   1.785 -2.6673 -0.5805 -0.4984
 5485TIP3   OH237945   2.124   2.440   5.416 -0.1130  0.3751 -0.1882
 5485TIP3    H137946   2.207   2.441   5.464  0.0770 -1.8338 -0.3334
 5485TIP3    H237947   2.146   2.472   5.328  0.6875 -0.5076 -0.3273
 5486TIP3   OH237948   0.645   2.196  17.140  0.0754 -0.0224 -0.1221
 5486TIP3    H137949   0.589   2.138  17.190  0.7728  1.2428  2.2564
 5486TIP3    H237950   0.732   2.158  17.146  0.1886  0.2001 -0.3023
 5487TIP3   OH237951   3.954   3.075  11.014  0.4968 -0.0311  0.1232
 5487TIP3    H137952   3.871   3.031  10.996  1.2580 -1.5464  0.1286
 5487TIP3    H237953   3.935   3.134  11.086 -1.1802  1.6362 -1.5523
 5488TIP3   OH237954   3.632   0.373  17.127 -0.0660 -0.4270  0.1221
 5488TIP3    H137955   3.656   0.462  17.153 -0.0760 -0.2870 -0.3341
 5488TIP3    H237956   3.595   0.334  17.206 -2.8080  0.9261 -0.3716
 5489TIP3   OH237957   2.638   3.525   0.333 -0.1314 -0.1575 -0.5079
 5489TIP3    H137958   2.593   3.576   0.266 -1.8527  0.6759  1.2053
 5489TIP3    H237959   2.642   3.582   0.409  2.7137 -0.6969 -0.1188
 5490TIP3   OH237960   3.337   2.314  12.265  0.1282  0.5532  0.5813
 5490TIP3    H137961   3.267   2.335  12.326 -0.1690 -0.2625  0.5390
 5490TIP3    H237962   3.315   2.227  12.232  1.5498 -0.0703  1.1669
 5491TIP3   OH237963   1.513   3.606  13.873  0.2672 -0.0786 -0.0971
 5491TIP3    H137964   1.511   3.659  13.793 -0.5426  0.5354  0.3207
 5491TIP3    H237965   1.427   3.619  13.913  1.4341  1.5316  2.1015
 5492TIP3   OH237966   3.563   4.243   4.051 -0.1162 -0.0271  0.0008
 5492TIP3    H137967   3.512   4.244   4.131  0.3928 -2.3222  0.4183
 5492TIP3    H237968   3.523   4.175   3.997  1.4300 -0.6822 -0.3723
 5493TIP3   OH237969   5.132   0.986  16.209 -0.2708 -0.6504  0.3537
 5493TIP3    H137970   5.098   1.059  16.157  1.7379 -0.1746 -0.3690
 5493TIP3    H237971   5.187   1.027  16.275 -2.0057 -1.3224  2.3416
 5494TIP3   OH237972   4.302   4.947   1.036 -0.1208  0.6522 -0.1159
 5494TIP3    H137973   4.359   5.005   0.986 -0.6454 -0.0124 -1.5546
 5494TIP3    H237974   4.351   4.864   1.040  0.2657  0.9171  1.2090
 5495TIP3   OH237975   4.086   1.133  11.620  0.3711  0.3735 -0.2594
 5495TIP3    H137976   4.036   1.198  11.670  1.0305  0.9135 -0.2815
 5495TIP3    H237977   4.021   1.070  11.591 -0.7186  2.2659 -2.2262
 5496TIP3   OH237978   5.828   4.166  16.524  0.6575 -0.0041  0.0817
 5496TIP3    H137979   5.761   4.206  16.469  0.9949 -0.4703 -0.6910
 5496TIP3    H237980   5.861   4.237  16.578  0.2211  0.4356 -0.2302
 5497TIP3   OH237981   6.530   4.420   2.699  0.5344  0.0448 -0.0015
 5497TIP3    H137982   6.603   4.389   2.753 -0.5377 -2.5636  0.0902
 5497TIP3    H237983   6.452   4.384   2.741 -0.4951 -0.5821 -2.2853
 5498TIP3   OH237984   1.699   4.982   3.215 -0.4904 -0.2886 -0.0264
 5498TIP3    H137985   1.616   4.983   3.168 -0.1403  1.3953 -0.6736
 5498TIP3    H237986   1.674   4.975   3.307 -1.2367 -2.0650 -0.3183
 5499TIP3   OH237987   4.225   4.018   4.987  0.2579  0.7698 -0.4664
 5499TIP3    H137988   4.302   4.058   4.947  1.1337  0.4329  0.8245
 5499TIP3    H237989   4.245   3.924   4.987 -0.9392  0.4787 -1.7174
 5500TIP3   OH237990   5.566   4.182  16.236  0.0529 -0.3416  0.1156
 5500TIP3    H137991   5.540   4.214  16.150  0.1557 -0.4024  0.0633
 5500TIP3    H237992   5.623   4.250  16.271 -1.3249  0.5065  0.8370
 5501TIP3   OH237993   0.649   1.650   2.767 -0.4952 -0.0685 -0.2612
 5501TIP3    H137994   0.700   1.712   2.715 -1.7445  1.2484  0.0366
 5501TIP3    H237995   0.711   1.618   2.833  0.8207 -0.9880 -1.8844
 5502TIP3   OH237996   0.754   5.744   4.559 -0.1269  0.2496 -0.0190
 5502TIP3    H137997   0.751   5.649   4.567 -0.7006  0.4209  2.8695
 5502TIP3    H237998   0.838   5.768   4.599 -0.2797  0.9866 -0.1307
 5503TIP3   OH237999   2.794   1.603   0.306  0.3374  0.4484 -0.0299
 5503TIP3    H138000   2.848   1.673   0.268  1.7813  0.2134  1.4606
 5503TIP3    H238001   2.723   1.649   0.349 -0.4263  0.7989 -1.5888
 5504TIP3   OH238002   0.657   6.513  11.157  0.1390 -0.0199 -0.0064
 5504TIP3    H138003   0.700   6.501  11.242 -0.1938  0.8963  0.3026
 5504TIP3    H238004   0.611   6.596  11.165  0.9294  0.5907 -1.4472
 5505TIP3   OH238005   0.153   4.480  17.123  0.5824 -0.9056 -0.0095
 5505TIP3    H138006   0.065   4.483  17.161  0.4120 -1.1221 -0.3818
 5505TIP3    H238007   0.165   4.566  17.085  0.5508 -0.8590  0.0854
 5506TIP3   OH238008   6.610   1.369  12.507 -0.1566  0.1970 -0.5277
 5506TIP3    H138009   6.648   1.328  12.584 -2.2655  0.7076  0.8773
 5506TIP3    H238010   6.590   1.296  12.448 -0.7812 -0.4851  0.4953
 5507TIP3   OH238011   0.281   5.903  17.057 -0.0767 -0.2572 -0.1060
 5507TIP3    H138012   0.227   5.875  17.130 -0.8860  1.9479  0.2004
 5507TIP3    H238013   0.369   5.871  17.078 -0.5914 -0.9401  1.0637
 5508TIP3   OH238014   3.489   6.265   5.139 -0.0145  0.3429  0.3573
 5508TIP3    H138015   3.418   6.221   5.093  0.2843  0.6803 -0.4627
 5508TIP3    H238016   3.508   6.341   5.084 -0.2915  1.3051  1.5556
 5509TIP3   OH238017   6.147   1.336   4.768 -0.1605  0.8097 -0.1209
 5509TIP3    H138018   6.190   1.263   4.813 -0.0537  0.7430 -0.3298
 5509TIP3    H238019   6.200   1.412   4.791 -0.9552  1.0212  1.0642
 5510TIP3   OH238020   2.027   4.190  12.368  0.0447  0.0957  0.4450
 5510TIP3    H138021   1.949   4.180  12.422 -0.4095 -1.9846 -0.5045
 5510TIP3    H238022   1.998   4.244  12.294 -0.9798 -1.8999 -0.6826
 5511TIP3   OH238023   1.259   5.946  13.503 -0.8962  0.5046 -0.5063
 5511TIP3    H138024   1.230   5.979  13.588  0.7122 -0.4510  0.4766
 5511TIP3    H238025   1.182   5.953  13.446 -2.1127  0.8434  1.1211
 5512TIP3   OH238026   4.698   6.038   0.043 -0.3207  0.3495  0.1895
 5512TIP3    H138027   4.638   5.977   0.086 -2.5631  1.5605 -1.0341
 5512TIP3    H238028   4.740   6.084   0.116  2.9513 -3.7296  1.2723
 5513TIP3   OH238029   6.375   2.879  14.173  0.1983 -0.3996 -0.4932
 5513TIP3    H138030   6.331   2.956  14.209  0.1498 -0.6350 -0.0428
 5513TIP3    H238031   6.435   2.914  14.107  3.1342  0.4704  2.3598
 5514TIP3   OH238032   1.795   3.760   3.717 -0.5081  0.2640 -0.1992
 5514TIP3    H138033   1.716   3.755   3.770  0.1987 -3.0274  0.7794
 5514TIP3    H238034   1.771   3.721   3.633 -0.4337  1.2203 -0.6804
 5515TIP3   OH238035   0.319   1.812  14.562 -0.1588 -1.0099 -0.4045
 5515TIP3    H138036   0.264   1.857  14.498  0.0881 -0.6047 -0.3337
 5515TIP3    H238037   0.405   1.853  14.553  0.4351 -2.3792 -1.2867
 5516TIP3   OH238038   1.625   2.608   6.351  0.4594 -0.0006  0.0327
 5516TIP3    H138039   1.688   2.637   6.418 -0.1613  0.6402  0.3419
 5516TIP3    H238040   1.546   2.586   6.401  0.9446 -2.4410 -0.1541
 5517TIP3   OH238041   0.114   5.395   3.581  0.3552 -0.1002 -0.0374
 5517TIP3    H138042   0.122   5.426   3.491  0.7470  0.1364  0.0757
 5517TIP3    H238043   0.204   5.398   3.616  0.2340 -0.3450  0.3087
 5518TIP3   OH238044   5.785   1.538  11.259 -0.7104 -0.8935  0.0021
 5518TIP3    H138045   5.719   1.474  11.232  0.0060 -2.6046  2.0654
 5518TIP3    H238046   5.863   1.515  11.208 -0.3133 -2.0044  1.0912
 5519TIP3   OH238047   0.426   4.323  12.251  0.0318 -0.1491  0.0344
 5519TIP3    H138048   0.484   4.373  12.310 -0.9042  1.3766 -0.2823
 5519TIP3    H238049   0.459   4.342  12.163 -2.4094  2.9820 -0.4028
 5520TIP3   OH238050   4.846   4.163   4.493  0.6955  0.3681 -0.1165
 5520TIP3    H138051   4.932   4.157   4.535  0.5458  0.4803  0.2036
 5520TIP3    H238052   4.866   4.182   4.401  0.9933  1.2761  0.1270
 5521TIP3   OH238053   1.106   3.160   0.172  0.0519  0.1175  0.3211
 5521TIP3    H138054   1.120   3.109   0.251  0.3632  0.3853  0.4408
 5521TIP3    H238055   1.170   3.127   0.109  1.5677  1.6195  0.9997
 5522TIP3   OH238056   4.807   4.978   3.445 -0.4230 -0.5034 -0.0164
 5522TIP3    H138057   4.770   4.924   3.514  2.5165 -1.9850  0.5541
 5522TIP3    H238058   4.820   4.919   3.371 -2.7984  0.8844 -1.6908
 5523TIP3   OH238059   4.456   4.872  11.611  0.3647 -0.3991  0.0409
 5523TIP3    H138060   4.542   4.850  11.644 -0.3549 -0.4176  2.0296
 5523TIP3    H238061   4.447   4.966  11.629  0.3776 -0.1339 -1.2058
 5524TIP3   OH238062   4.957   0.286   1.996 -0.0342  0.2805  0.3801
 5524TIP3    H138063   4.948   0.381   1.982 -0.0356  0.5181  1.8485
 5524TIP3    H238064   4.939   0.248   1.910 -0.2014  1.5971 -0.2025
 5525TIP3   OH238065   0.174   1.858  12.231 -0.0157 -0.1456 -0.4477
 5525TIP3    H138066   0.250   1.916  12.225  0.0919 -0.1955  0.3567
 5525TIP3    H238067   0.133   1.865  12.145  3.0320 -3.0733 -2.4143
 5526TIP3   OH238068   4.554   4.176  16.451  0.3679 -0.4042 -0.1403
 5526TIP3    H138069   4.632   4.193  16.504 -0.4365 -0.5282  1.1168
 5526TIP3    H238070   4.486   4.154  16.514 -0.4103 -1.4228 -1.2780
 5527TIP3   OH238071   0.086   0.487  13.566 -0.3736  0.0159 -0.8690
 5527TIP3    H138072   0.052   0.459  13.651  1.3943 -2.0885 -0.7554
 5527TIP3    H238073   0.011   0.483  13.507 -1.3222  0.1560  0.2966
 5528TIP3   OH238074   4.552   5.856   0.189  0.1283  0.1304 -0.6445
 5528TIP3    H138075   4.461   5.875   0.211 -0.3530  0.4173 -2.7096
 5528TIP3    H238076   4.549   5.773   0.142  1.2409 -1.0011  1.1680
 5529TIP3   OH238077   1.612   3.487   2.956 -0.1444 -0.0064 -0.3388
 5529TIP3    H138078   1.679   3.419   2.951 -0.1885  0.0215 -1.9608
 5529TIP3    H238079   1.553   3.468   2.882 -1.5161  0.3942  0.6110
 5530TIP3   OH238080   4.845   4.732   3.245  0.1863  0.4109 -0.4606
 5530TIP3    H138081   4.815   4.675   3.316 -1.6534  0.9311 -0.7709
 5530TIP3    H238082   4.938   4.713   3.237 -0.0850 -1.5021  0.3857
 5531TIP3   OH238083   5.859   6.055   2.296 -0.4445  0.0867 -0.2728
 5531TIP3    H138084   5.855   6.122   2.364  0.7680 -0.3784  0.2938
 5531TIP3    H238085   5.791   5.992   2.319  0.6182 -0.6112  1.1421
 5532TIP3   OH238086   1.532   1.786   3.072 -0.1222 -0.4611 -0.6064
 5532TIP3    H138087   1.591   1.722   3.112 -0.1935 -0.8081 -1.0417
 5532TIP3    H238088   1.447   1.741   3.069 -0.5730  0.2574  0.5891
 5533TIP3   OH238089   3.260   0.716   5.607 -0.0365 -0.5025 -1.1345
 5533TIP3    H138090   3.286   0.808   5.613 -0.9519 -0.3081  0.9307
 5533TIP3    H238091   3.217   0.709   5.522 -0.9303  1.2883 -0.8922
 5534TIP3   OH238092   2.673   4.920   3.155  0.8770 -0.0148  0.6650
 5534TIP3    H138093   2.595   4.865   3.162 -0.3916  1.6154  0.1083
 5534TIP3    H238094   2.746   4.859   3.144 -0.5589 -1.5459 -0.8668
 5535TIP3   OH238095   2.263   6.469  16.853 -0.0758 -0.2524 -0.4401
 5535TIP3    H138096   2.290   6.387  16.895  0.5720  0.0618 -0.2253
 5535TIP3    H238097   2.274   6.536  16.922 -0.8979 -0.0292 -0.5151
 5536TIP3   OH238098   6.676   0.068   4.831 -0.6708 -0.3131  0.0303
 5536TIP3    H138099   6.591   0.072   4.875 -1.6458  1.8566 -1.8283
 5536TIP3    H238100   6.733   0.122   4.884 -0.1249 -2.4156  1.7320
 5537TIP3   OH238101   2.878   5.061  14.319 -0.3914  0.6743  0.1166
 5537TIP3    H138102   2.934   5.074  14.242 -0.1685 -1.6581 -0.1820
 5537TIP3    H238103   2.893   5.139  14.372  1.7314  0.9811 -0.8154
 5538TIP3   OH238104   4.534   0.214  15.005  0.1823  0.0015 -0.3786
 5538TIP3    H138105   4.451   0.215  14.957 -0.2895 -1.2557  0.3790
 5538TIP3    H238106   4.512   0.250  15.091  0.5811  0.2920 -0.3947
 5539TIP3   OH238107   3.081   1.735   5.765 -0.5077 -0.1026  0.5811
 5539TIP3    H138108   3.055   1.718   5.674 -0.4862  1.7219  0.1927
 5539TIP3    H238109   2.998   1.736   5.813 -0.4055 -2.7114  0.9407
 5540TIP3   OH238110   4.553   3.433  10.909 -0.0568 -0.1888  0.5718
 5540TIP3    H138111   4.509   3.387  10.837 -2.0070 -1.6045  2.5424
 5540TIP3    H238112   4.525   3.524  10.900  1.0392  0.0246 -1.3331
 5541TIP3   OH238113   1.656   4.367  12.357  0.2945  0.3474  0.1265
 5541TIP3    H138114   1.575   4.414  12.376  1.0149  1.8911 -0.4116
 5541TIP3    H238115   1.697   4.419  12.288  1.1924 -1.0566 -0.4276
 5542TIP3   OH238116   3.391   4.794   5.860 -0.4665 -0.6197  0.1044
 5542TIP3    H138117   3.326   4.781   5.928 -1.1956  2.2487  0.0811
 5542TIP3    H238118   3.343   4.835   5.788  1.2398  1.5971  0.0898
 5543TIP3   OH238119   3.943   4.785  12.857  0.2181  0.0635  0.1434
 5543TIP3    H138120   3.860   4.752  12.892 -0.8758  0.7348 -1.6278
 5543TIP3    H238121   4.002   4.788  12.932 -1.3598 -0.4473  1.4674
 5544TIP3   OH238122   5.361   6.413   4.433  0.3862 -0.1788 -0.2884
 5544TIP3    H138123   5.306   6.491   4.443 -0.2235 -0.6886  0.3777
 5544TIP3    H238124   5.398   6.421   4.345 -1.5525 -0.3243 -1.1573
 5545TIP3   OH238125   4.652   0.515   2.847  0.2609  0.2362 -0.4669
 5545TIP3    H138126   4.705   0.504   2.768 -0.5530  0.8179 -1.1107
 5545TIP3    H238127   4.694   0.587   2.895  0.9745 -0.3675 -0.1720
 5546TIP3   OH238128   1.961   1.985  11.426  0.0524  0.6993  0.5886
 5546TIP3    H138129   2.021   2.028  11.487  0.8648 -0.2274  0.4722
 5546TIP3    H238130   1.933   2.055  11.367  1.7107  0.9959  0.1112
 5547TIP3   OH238131   0.287   4.142   0.372 -0.3966 -1.4108 -0.4954
 5547TIP3    H138132   0.284   4.139   0.468 -0.4477 -0.6886 -0.4691
 5547TIP3    H238133   0.233   4.217   0.348 -0.4684 -1.6477 -1.0992
 5548TIP3   OH238134   5.381   1.858   1.486  0.0271 -0.7339 -0.2508
 5548TIP3    H138135   5.333   1.778   1.506 -0.4703  0.2134  3.0444
 5548TIP3    H238136   5.360   1.877   1.395 -0.9307 -3.5794 -0.7219
 5549TIP3   OH238137   4.786   2.650  14.628 -0.4320 -0.2102 -0.3768
 5549TIP3    H138138   4.830   2.582  14.577 -0.7253 -0.9189  0.2941
 5549TIP3    H238139   4.854   2.686  14.685 -0.5725 -0.8991  0.2425
 5550TIP3   OH238140   0.001   6.480  13.997  0.5509  0.1549  0.3346
 5550TIP3    H138141  -0.066   6.480  13.928 -1.1448 -1.9254  1.8362
 5550TIP3    H238142   0.004   6.571  14.026 -1.2334  0.4340 -0.1972
 5551TIP3   OH238143   6.231   1.383  15.618  0.1743 -0.8731 -0.0893
 5551TIP3    H138144   6.252   1.329  15.542  0.8707 -0.4672 -0.1966
 5551TIP3    H238145   6.257   1.329  15.694  0.0716 -1.0253 -0.1623
 5552TIP3   OH238146   1.528   6.694   0.583  0.5268  0.3706  0.1474
 5552TIP3    H138147   1.548   6.613   0.629 -1.2919 -0.4150 -0.3596
 5552TIP3    H238148   1.569   6.684   0.497  2.0058  0.8806  0.7619
 5553TIP3   OH238149   4.677   5.313  13.156 -0.2033 -0.2906  0.2920
 5553TIP3    H138150   4.677   5.378  13.226  0.5685 -0.2251  0.2435
 5553TIP3    H238151   4.681   5.228  13.201  2.2152 -0.2101  0.3460
 5554TIP3   OH238152   4.788   1.350   5.204 -0.3895 -0.3246  0.0603
 5554TIP3    H138153   4.839   1.299   5.266 -0.0647  0.5489  0.5264
 5554TIP3    H238154   4.720   1.290   5.174  0.9049 -1.5152 -0.5973
 5555TIP3   OH238155   0.906   5.646   4.937 -0.1658 -0.4557  0.6783
 5555TIP3    H138156   0.903   5.611   5.026 -1.5362  2.2957  1.8461
 5555TIP3    H238157   0.956   5.728   4.945 -0.7097  0.0860 -0.9868
 5556TIP3   OH238158   2.051   2.561  12.448  0.1512  0.8373  0.3867
 5556TIP3    H138159   1.993   2.578  12.374 -0.1225 -0.0897  0.3734
 5556TIP3    H238160   2.016   2.482  12.489  0.0819  1.5267  1.7309
 5557TIP3   OH238161   5.337   1.607   6.330 -0.4982 -0.3382 -0.0443
 5557TIP3    H138162   5.373   1.680   6.381 -0.4915  0.0979 -0.6632
 5557TIP3    H238163   5.412   1.571   6.283 -0.7044  0.0105 -0.6524
 5558TIP3   OH238164   4.666   3.357   4.528  0.6072  0.4179 -0.6978
 5558TIP3    H138165   4.751   3.378   4.567  1.3294 -0.1978 -1.9054
 5558TIP3    H238166   4.655   3.421   4.458  0.0360  0.5234 -0.5238
 5559TIP3   OH238167   1.541   3.043   2.565 -0.3798  0.1562  0.2803
 5559TIP3    H138168   1.489   3.053   2.485 -1.9288  0.6734  1.2962
 5559TIP3    H238169   1.595   2.966   2.549  1.2146  1.6234 -2.2096
 5560TIP3   OH238170   2.703   0.453  13.700 -0.3921  0.0738  0.3072
 5560TIP3    H138171   2.697   0.549  13.695 -0.5744 -0.0066 -2.9060
 5560TIP3    H238172   2.640   0.429  13.768 -2.0942  2.0989 -0.4546
 5561TIP3   OH238173   0.427   1.606   0.102  0.0629 -0.5238  0.3529
 5561TIP3    H138174   0.514   1.645   0.111  0.7685 -1.7816 -0.5908
 5561TIP3    H238175   0.368   1.681   0.094  1.2419  0.3662 -0.4259
 5562TIP3   OH238176   1.915   1.936  15.531 -0.2335 -0.3428  0.2811
 5562TIP3    H138177   1.978   1.914  15.463 -0.1090  1.0859 -0.0966
 5562TIP3    H238178   1.954   2.011  15.576 -0.5502 -0.9425  1.6251
 5563TIP3   OH238179   0.946   6.237   1.625 -0.1786  0.0251 -0.5993
 5563TIP3    H138180   1.023   6.184   1.646 -1.3586 -2.1463 -1.4603
 5563TIP3    H238181   0.930   6.220   1.532 -2.6442 -0.9118 -0.0773
 5564TIP3   OH238182   5.708   1.917   4.246  0.1438 -0.3515 -0.3643
 5564TIP3    H138183   5.659   1.975   4.305 -1.8706 -0.3541 -1.9042
 5564TIP3    H238184   5.701   1.830   4.287 -0.9815 -0.3043 -0.4187
 5565TIP3   OH238185   3.674   0.908  12.234 -0.0354  0.7781  0.3868
 5565TIP3    H138186   3.598   0.930  12.287  0.1071  0.1556  0.8559
 5565TIP3    H238187   3.699   0.820  12.262  0.7708  0.9156  0.1367
 5566TIP3   OH238188   0.739   0.833   3.800 -0.0403  0.6361  0.1255
 5566TIP3    H138189   0.817   0.801   3.755 -0.5697 -1.0455  0.3148
 5566TIP3    H238190   0.764   0.835   3.892 -0.3377 -0.3300  0.2353
 5567TIP3   OH238191   0.410   0.311   0.227  0.1986 -0.3498  0.1947
 5567TIP3    H138192   0.370   0.224   0.224  2.2489 -1.4060  1.5460
 5567TIP3    H238193   0.501   0.297   0.200  0.5165  1.4258  0.2293
 5568TIP3   OH238194   0.038   1.262   3.761 -0.2113  0.2528  0.0233
 5568TIP3    H138195   0.133   1.260   3.768 -0.2486 -2.2271  0.6809
 5568TIP3    H238196   0.021   1.311   3.681  1.5794  1.1605  0.1505
 5569TIP3   OH238197   3.530   3.147  13.968 -0.6289  0.3924 -0.0344
 5569TIP3    H138198   3.593   3.212  14.000 -0.2679 -1.0787  2.4654
 5569TIP3    H238199   3.579   3.064  13.968 -1.7707 -0.3132 -0.7902
 5570TIP3   OH238200   5.260   4.878   5.040  0.0757  0.0657  0.4801
 5570TIP3    H138201   5.331   4.815   5.053 -0.2796 -0.2701  0.8204
 5570TIP3    H238202   5.301   4.953   4.997  0.1223 -1.2536 -1.9373
 5571TIP3   OH238203   4.736   6.364   0.055  0.4563 -0.1357 -0.0506
 5571TIP3    H138204   4.678   6.339   0.128 -0.1626 -1.2100 -0.8784
 5571TIP3    H238205   4.681   6.419  -0.001  0.4683 -0.5012 -0.4306
 5572TIP3   OH238206   6.594   4.184   6.030  0.1200  0.1134 -0.2956
 5572TIP3    H138207   6.667   4.184   6.093 -0.3509 -0.1734  0.2592
 5572TIP3    H238208   6.569   4.092   6.023  0.6417  0.0414 -1.4762
 5573TIP3   OH238209   6.157   3.882   0.922  0.2204  0.0725 -0.3152
 5573TIP3    H138210   6.186   3.848   1.006 -2.3388  0.0710  0.6551
 5573TIP3    H238211   6.064   3.858   0.917  0.0102  1.0894 -2.6147
 5574TIP3   OH238212   4.161   6.257   0.255 -0.1282  0.0552 -0.2331
 5574TIP3    H138213   4.202   6.344   0.257 -0.4453  0.2016  1.2408
 5574TIP3    H238214   4.138   6.240   0.347 -0.8900 -1.1993 -0.6403
 5575TIP3   OH238215   0.909   2.428  12.391 -0.1968  0.1743 -0.4225
 5575TIP3    H138216   0.876   2.516  12.406 -2.2637 -0.5946 -0.0840
 5575TIP3    H238217   0.934   2.397  12.478 -0.6468  0.0200 -0.3411
 5576TIP3   OH238218   4.571   4.055  13.114  0.2785 -0.2704  0.7545
 5576TIP3    H138219   4.504   4.010  13.165 -1.3321  1.8325  0.6778
 5576TIP3    H238220   4.522   4.121  13.064  2.3361  0.9186  0.1737
 5577TIP3   OH238221   6.549   0.713  13.938  0.2987 -0.4641  0.3504
 5577TIP3    H138222   6.592   0.784  13.888 -0.8106  0.0057  0.0200
 5577TIP3    H238223   6.592   0.633  13.908  0.5624 -0.0588 -0.3802
 5578TIP3   OH238224   4.001   4.728   0.455  0.2485 -0.0950  0.1262
 5578TIP3    H138225   3.925   4.784   0.443 -0.8948 -1.9024 -1.9796
 5578TIP3    H238226   4.024   4.737   0.547 -1.7154  1.4767  0.5291
 5579TIP3   OH238227   2.947   5.734   1.058  0.0713 -0.0830 -0.1147
 5579TIP3    H138228   2.910   5.708   0.973 -1.7662  2.6425 -0.2676
 5579TIP3    H238229   3.038   5.706   1.053 -0.5588 -2.2093 -1.9653
 5580TIP3   OH238230   4.881   0.553   3.130 -0.4095  0.7358  0.9357
 5580TIP3    H138231   4.835   0.470   3.137 -0.3355  0.6815  0.7730
 5580TIP3    H238232   4.960   0.541   3.183  1.6921 -0.7270 -2.1987
 5581TIP3   OH238233   1.693   0.282  13.967 -0.3432 -0.2414 -0.6242
 5581TIP3    H138234   1.721   0.204  13.919 -0.0221 -0.5972  0.1248
 5581TIP3    H238235   1.607   0.258  14.002 -0.6962  0.1134 -1.2192
 5582TIP3   OH238236   4.284   0.352  10.344  0.3777  0.5076 -0.9887
 5582TIP3    H138237   4.241   0.438  10.340 -0.1931  0.2948  0.0895
 5582TIP3    H238238   4.361   0.367  10.399  0.3069  0.3525 -0.8451
 5583TIP3   OH238239   5.322   1.534   5.580  0.3897  0.5038  0.2262
 5583TIP3    H138240   5.332   1.521   5.674 -1.9765 -2.9840  0.1809
 5583TIP3    H238241   5.238   1.578   5.571  1.6236  2.9190 -0.2947
 5584TIP3   OH238242   3.803   4.329   4.340 -0.9403 -0.3305  0.6066
 5584TIP3    H138243   3.866   4.307   4.272 -0.5998  0.3811  0.6846
 5584TIP3    H238244   3.760   4.246   4.361  0.0773 -0.8565  0.6609
 5585TIP3   OH238245   6.160   2.866  16.921 -0.3951 -0.3278 -0.2729
 5585TIP3    H138246   6.179   2.897  16.832  2.1847  2.0059  0.9122
 5585TIP3    H238247   6.201   2.780  16.926  1.6380  0.5509 -0.7131
 5586TIP3   OH238248   1.061   5.600   4.696  0.0769  0.4712  0.1384
 5586TIP3    H138249   1.023   5.687   4.685  0.8014  0.8147  0.3222
 5586TIP3    H238250   1.034   5.573   4.784 -1.5361 -0.1985 -0.5189
 5587TIP3   OH238251   2.446   5.897   4.662  0.1434  0.3978 -0.2667
 5587TIP3    H138252   2.402   5.862   4.584 -0.5207 -0.1208  0.3354
 5587TIP3    H238253   2.536   5.913   4.632 -0.3434  1.1370 -1.4084
 5588TIP3   OH238254   1.989   6.133   4.919 -0.2326 -0.2144 -0.1806
 5588TIP3    H138255   1.925   6.136   4.991 -0.9829 -1.0742 -0.7846
 5588TIP3    H238256   1.937   6.150   4.841  0.4977  0.2449 -0.5781
 5589TIP3   OH238257   4.596   1.857   1.864  0.0121 -0.0901  0.0755
 5589TIP3    H138258   4.649   1.893   1.936  1.4663 -0.3839 -0.8021
 5589TIP3    H238259   4.610   1.918   1.792 -0.2668 -0.5744 -0.3918
 5590TIP3   OH238260   3.569   0.052   1.705  0.1759 -0.3671 -0.6372
 5590TIP3    H138261   3.556   0.099   1.787 -1.3810  0.0788 -1.1073
 5590TIP3    H238262   3.662   0.063   1.685 -0.0398  2.1909 -0.5294
 5591TIP3   OH238263   0.017   4.694   2.930  0.2830 -0.3114  0.8034
 5591TIP3    H138264   0.083   4.751   2.969  1.6842 -1.7206  0.6225
 5591TIP3    H238265  -0.012   4.639   3.002 -0.3659 -0.0093  0.7783
 5592TIP3   OH238266   3.375   1.095  10.940  0.3208  0.0644 -0.1677
 5592TIP3    H138267   3.313   1.088  10.868  0.3402  1.1130 -0.3018
 5592TIP3    H238268   3.320   1.098  11.018  0.2927 -0.8621 -0.1347
 5593TIP3   OH238269   5.795   2.388   0.465  0.4613 -0.1230  0.5299
 5593TIP3    H138270   5.850   2.316   0.433  1.0276 -0.3492  1.9465
 5593TIP3    H238271   5.795   2.378   0.560  0.1818  1.4941  0.7287
 5594TIP3   OH238272   0.523   0.582   4.974 -0.0556  0.1158  0.0468
 5594TIP3    H138273   0.515   0.556   5.066  2.2189  0.6748  0.4764
 5594TIP3    H238274   0.588   0.521   4.938  1.9101  2.1785 -0.1342
 5595TIP3   OH238275   6.286   2.488   5.341  0.2787  0.0760 -0.5466
 5595TIP3    H138276   6.379   2.467   5.346  0.0099 -1.4177 -1.0169
 5595TIP3    H238277   6.251   2.463   5.427  0.3823  1.0860 -0.2035
 5596TIP3   OH238278   5.082   3.677   1.409 -0.2077 -0.0039 -0.4439
 5596TIP3    H138279   5.089   3.603   1.469 -0.3433  0.6759  0.4274
 5596TIP3    H238280   4.990   3.677   1.382  0.0218 -0.7845 -1.2985
 5597TIP3   OH238281   3.368   0.199  11.818  0.2675  0.1158  0.2676
 5597TIP3    H138282   3.353   0.114  11.858 -0.4084 -0.3716 -0.9421
 5597TIP3    H238283   3.453   0.191  11.775  0.4422  0.2256  0.5953
 5598TIP3   OH238284   1.763   3.384  13.337  0.2018  0.5262  0.0617
 5598TIP3    H138285   1.814   3.355  13.412  2.9296  0.0584 -1.8355
 5598TIP3    H238286   1.724   3.303  13.302 -1.8440  0.8594  1.4022
 5599TIP3   OH238287   2.817   0.234   6.174 -0.5531 -0.6000 -0.3429
 5599TIP3    H138288   2.725   0.246   6.194 -0.3154  1.1381 -0.1046
 5599TIP3    H238289   2.819   0.216   6.080 -1.0386  1.6322 -0.8433
 5600TIP3   OH238290   6.721   3.582   2.000 -0.0127  0.4091  0.0140
 5600TIP3    H138291   6.639   3.585   2.049 -1.1212  1.5055 -1.7842
 5600TIP3    H238292   6.789   3.601   2.065 -1.1595 -0.3846  1.5186
 5601TIP3   OH238293   3.507   4.199   2.156 -0.1080 -0.1961 -0.8462
 5601TIP3    H138294   3.507   4.289   2.188  0.9769 -0.5021  0.0754
 5601TIP3    H238295   3.470   4.147   2.227 -1.3366 -0.4251 -1.6194
 5602TIP3   OH238296   6.760   4.286  13.987 -0.1006 -0.0243  0.4003
 5602TIP3    H138297   6.697   4.348  13.949 -1.3846 -1.4217  0.1789
 5602TIP3    H238298   6.728   4.200  13.962 -0.9704 -1.1005  4.4455
 5603TIP3   OH238299   3.546   2.194   0.534  0.0948 -0.1364  0.2372
 5603TIP3    H138300   3.563   2.275   0.487 -1.1016 -0.7913 -1.4254
 5603TIP3    H238301   3.499   2.221   0.612 -0.0929  0.7820 -0.1797
 5604TIP3   OH238302   3.108   6.539   2.553  0.1180  0.5174 -0.1591
 5604TIP3    H138303   3.158   6.555   2.633  1.0051 -0.2707 -0.5433
 5604TIP3    H238304   3.087   6.627   2.520 -0.6581  0.8490  1.1685
 5605TIP3   OH238305   5.313   0.256   0.573  0.3035  0.1284  0.0154
 5605TIP3    H138306   5.331   0.344   0.541  1.5710  0.7328  2.2017
 5605TIP3    H238307   5.389   0.233   0.626 -0.7052 -1.6509  0.7903
 5606TIP3   OH238308   2.239   4.311   3.120  0.0773 -0.1163 -0.0808
 5606TIP3    H138309   2.246   4.224   3.081 -1.6768 -0.0723 -0.5721
 5606TIP3    H238310   2.153   4.312   3.162  0.0764  1.3715 -0.0600
 5607TIP3   OH238311   0.982   5.554   3.953  0.3169  0.3442 -0.1434
 5607TIP3    H138312   0.892   5.562   3.921  0.0811 -1.0115  0.1186
 5607TIP3    H238313   1.008   5.465   3.931  2.5262  1.4285 -2.4636
 5608TIP3   OH238314   4.557   6.085   2.460 -0.6382  0.7185  0.4846
 5608TIP3    H138315   4.524   6.018   2.521  0.3840  0.7429  1.0992
 5608TIP3    H238316   4.586   6.035   2.384 -2.4837  0.7408 -0.2766
 5609TIP3   OH238317   0.060   0.795  13.387 -0.0193 -0.0039  0.1825
 5609TIP3    H138318   0.002   0.760  13.455 -0.3909  0.3329  0.0386
 5609TIP3    H238319   0.128   0.843  13.435 -1.1865  1.6344  0.2715
 5610TIP3   OH238320   3.751   2.678   0.292 -0.0080  0.4451  0.3643
 5610TIP3    H138321   3.723   2.591   0.319 -1.3025  0.4557 -0.8069
 5610TIP3    H238322   3.846   2.671   0.281  0.1217 -0.3654  1.7805
 5611TIP3   OH238323   3.500   3.725   0.886  0.2653 -0.2359  0.0472
 5611TIP3    H138324   3.494   3.640   0.928  0.0807 -1.0112 -1.4836
 5611TIP3    H238325   3.525   3.706   0.795  0.0576  1.3223 -0.3751
 5612TIP3   OH238326   0.169   5.268   3.208 -0.3056  0.3545  0.0278
 5612TIP3    H138327   0.125   5.347   3.238 -1.0780  0.1876 -0.6257
 5612TIP3    H238328   0.254   5.298   3.174  0.6576  0.5259  2.4184
 5613TIP3   OH238329   6.377   1.932   2.352  0.0471 -0.1694  0.4001
 5613TIP3    H138330   6.405   2.006   2.406  1.3228  1.5421 -2.3808
 5613TIP3    H238331   6.336   1.972   2.276 -0.8646 -2.4204 -0.3743
 5614TIP3   OH238332   0.896   3.501   3.481 -0.0063  0.5634  0.1917
 5614TIP3    H138333   0.906   3.572   3.544  1.2033  1.5864 -1.0896
 5614TIP3    H238334   0.850   3.432   3.529 -0.9158  2.0724  1.5728
 5615TIP3   OH238335   1.485   5.468   0.082  0.1670  0.6226 -0.0043
 5615TIP3    H138336   1.526   5.534   0.136 -0.1867 -0.5354  1.7821
 5615TIP3    H238337   1.482   5.390   0.137  0.0424 -0.7264 -1.8124
 5616TIP3   OH238338   0.506   5.958   2.516 -0.8134 -0.2985 -0.3694
 5616TIP3    H138339   0.521   5.864   2.528 -0.3400 -0.1931 -0.0875
 5616TIP3    H238340   0.414   5.970   2.540 -0.0427 -0.1615  3.1718
 5617TIP3   OH238341   3.105   6.845  14.017  0.0030  0.4390  0.4505
 5617TIP3    H138342   3.101   6.904  13.941 -1.2632  0.5664  0.5966
 5617TIP3    H238343   3.026   6.865  14.067 -1.7523 -2.9590 -0.6717
 5618TIP3   OH238344   5.250   1.466  12.561  0.2075 -0.2922  0.5137
 5618TIP3    H138345   5.291   1.380  12.555 -0.2444 -0.5581  1.0942
 5618TIP3    H238346   5.169   1.450  12.610 -0.8367  0.1333 -0.9949
 5619TIP3   OH238347   3.757   1.083  15.034 -0.1720  0.2237  0.2720
 5619TIP3    H138348   3.824   1.086  15.103  3.0285  2.4431 -2.5547
 5619TIP3    H238349   3.719   1.170  15.034 -1.3169 -0.2663  0.2591
 5620TIP3   OH238350   3.931   2.338   2.694  0.4641 -0.9794  0.2634
 5620TIP3    H138351   3.997   2.312   2.630 -2.0798 -2.0992 -2.1079
 5620TIP3    H238352   3.883   2.410   2.652  0.1784 -0.1372  1.9327
 5621TIP3   OH238353   4.746   6.347  16.831 -0.0570  0.3375 -0.1833
 5621TIP3    H138354   4.720   6.302  16.751 -2.2619 -0.6442  0.9925
 5621TIP3    H238355   4.829   6.305  16.855 -0.5084 -0.9587 -0.7664
 5622TIP3   OH238356   2.036   3.489  11.925  0.2820 -0.4387  0.2315
 5622TIP3    H138357   1.963   3.438  11.889  1.3286 -1.1616 -0.9336
 5622TIP3    H238358   2.076   3.530  11.849  1.3048 -0.3431  0.8107
 5623TIP3   OH238359   6.052   6.417  16.164  0.0384  0.6924  0.1778
 5623TIP3    H138360   6.143   6.427  16.136  0.4225  0.9951  1.4604
 5623TIP3    H238361   6.031   6.502  16.203 -0.5891  0.4103  0.4540
 5624TIP3   OH238362   0.703   2.587   2.603 -0.4797  0.4783  0.0291
 5624TIP3    H138363   0.759   2.524   2.648  1.3540 -0.3463 -3.0922
 5624TIP3    H238364   0.646   2.533   2.548 -3.1708  1.4065  1.7055
 5625TIP3   OH238365   1.213   0.109   3.965 -0.0506 -0.5214  0.6680
 5625TIP3    H138366   1.181   0.019   3.956 -1.8585  0.1023  0.4368
 5625TIP3    H238367   1.255   0.128   3.881 -1.8494 -0.3604 -0.2351
 5626TIP3   OH238368   2.179   3.246  13.899 -0.4083  0.7074 -0.7191
 5626TIP3    H138369   2.211   3.336  13.912 -2.2564  1.4838 -1.1555
 5626TIP3    H238370   2.241   3.207  13.839  0.2378  1.8219 -0.8128
 5627TIP3   OH238371   6.833   6.287   5.866  0.0077  0.3062  0.1161
 5627TIP3    H138372   6.855   6.273   5.774  1.0194  1.0410  0.2294
 5627TIP3    H238373   6.811   6.380   5.872 -0.8514  0.0898  0.4728
 5628TIP3   OH238374   3.859   4.463   0.260  0.4921 -0.2451 -0.1156
 5628TIP3    H138375   3.940   4.500   0.295  0.1115  0.4058  0.0893
 5628TIP3    H238376   3.815   4.537   0.219 -1.4023  0.1305  2.3590
 5629TIP3   OH238377   2.707   3.735   0.530 -0.0889  0.0327  0.0758
 5629TIP3    H138378   2.621   3.761   0.563  0.0758  0.1683  0.4062
 5629TIP3    H238379   2.769   3.786   0.583  0.1960 -0.1236 -0.1051
 5630TIP3   OH238380   0.472   1.496  11.120 -0.0651  0.1986  0.5610
 5630TIP3    H138381   0.408   1.496  11.049  1.6647  0.7265 -1.0990
 5630TIP3    H238382   0.432   1.443  11.189 -1.9778 -0.0257 -0.6564
 5631TIP3   OH238383   0.193   0.874  11.446 -0.3785  0.3761 -0.8864
 5631TIP3    H138384   0.275   0.915  11.473 -0.8749 -0.6463  2.6882
 5631TIP3    H238385   0.213   0.837  11.360  3.1510 -0.3269  0.0425
 5632TIP3   OH238386   6.095   2.015  12.441 -0.1263  0.7367  0.4409
 5632TIP3    H138387   6.153   2.082  12.405 -0.4163  0.3113 -0.8726
 5632TIP3    H238388   6.155   1.949  12.476  0.1846  0.6992 -0.1461
 5633TIP3   OH238389   5.282   1.148   4.917 -0.3135  0.4669 -0.0575
 5633TIP3    H138390   5.192   1.117   4.912  0.2845 -1.3864 -0.2304
 5633TIP3    H238391   5.315   1.144   4.828  0.0831  0.6616  0.0757
 5634TIP3   OH238392   3.423   1.422  12.912 -0.1041 -0.4439  0.0442
 5634TIP3    H138393   3.481   1.467  12.851 -1.5786  1.1779 -0.2134
 5634TIP3    H238394   3.452   1.330  12.908  3.0523  0.3901  0.6592
 5635TIP3   OH238395   0.212   2.581  11.035  0.9652  0.4218 -0.4267
 5635TIP3    H138396   0.188   2.655  11.090  0.8707 -0.0524  0.1803
 5635TIP3    H238397   0.304   2.563  11.057  0.9075  0.1894 -0.3694
 5636TIP3   OH238398   1.553   2.742  16.084 -0.5794  0.2835 -0.2110
 5636TIP3    H138399   1.577   2.823  16.128 -0.6523 -1.0543  2.4374
 5636TIP3    H238400   1.539   2.678  16.154 -3.0009 -1.4067 -2.0451
 5637TIP3   OH238401   4.651   1.214   1.565  0.1419  0.0274 -0.7138
 5637TIP3    H138402   4.706   1.177   1.635 -0.0980  0.5645 -0.2331
 5637TIP3    H238403   4.585   1.266   1.612 -0.4026 -0.1092 -1.3128
 5638TIP3   OH238404   6.409   3.385  11.929 -0.4147 -0.7908  0.3970
 5638TIP3    H138405   6.422   3.331  12.006  1.1561  0.1218  0.8208
 5638TIP3    H238406   6.385   3.324  11.859 -0.1299 -1.8403  1.2039
 5639TIP3   OH238407   0.131   4.291  15.719 -0.5502  0.3942 -0.0260
 5639TIP3    H138408   0.113   4.318  15.630  0.5481  0.5458 -0.2146
 5639TIP3    H238409   0.052   4.314  15.768 -1.0861  0.4759 -0.9116
 5640TIP3   OH238410   3.105   4.620   1.078 -0.5116 -0.3626 -0.6557
 5640TIP3    H138411   3.122   4.704   1.120 -0.4339  0.1224 -1.6325
 5640TIP3    H238412   3.025   4.588   1.120 -1.0197  0.5981 -0.8659
 5641TIP3   OH238413   2.860   3.348  15.902 -0.1648 -0.2652 -0.5612
 5641TIP3    H138414   2.883   3.260  15.933  0.3820 -0.4295 -1.3918
 5641TIP3    H238415   2.896   3.352  15.813 -0.5042  0.6720 -0.6661
 5642TIP3   OH238416   1.627   6.533   0.848  0.2679  0.1020 -0.0324
 5642TIP3    H138417   1.563   6.484   0.796 -0.1722  0.5118  0.1259
 5642TIP3    H238418   1.590   6.536   0.936  1.4104 -1.3383  0.5478
 5643TIP3   OH238419   0.435   5.416   3.326  0.1821  0.0836 -0.4420
 5643TIP3    H138420   0.469   5.331   3.299 -0.5170  0.0433 -1.2129
 5643TIP3    H238421   0.491   5.479   3.281  0.0077  0.0258 -0.7404
 5644TIP3   OH238422   4.928   6.772   5.450  0.4264  0.1169  0.1419
 5644TIP3    H138423   5.012   6.740   5.480  0.4969  0.1944  0.0267
 5644TIP3    H238424   4.893   6.702   5.395  0.7766  0.4200 -0.4665
 5645TIP3   OH238425   0.130   1.920   0.904 -0.1637 -0.1243 -0.0798
 5645TIP3    H138426   0.193   1.855   0.871  0.6741  0.3598  0.5243
 5645TIP3    H238427   0.179   2.002   0.907 -0.4869  0.0401  1.4312
 5646TIP3   OH238428   3.115   3.270   3.864 -0.1673  0.1341  0.3656
 5646TIP3    H138429   3.167   3.213   3.920 -0.1481  0.1909  0.4052
 5646TIP3    H238430   3.053   3.211   3.820 -1.0359  0.2523  1.3885
 5647TIP3   OH238431   2.231   3.596   5.408 -0.3179  0.4624 -0.0483
 5647TIP3    H138432   2.279   3.638   5.479  0.2262  1.4348 -0.9548
 5647TIP3    H238433   2.231   3.661   5.338 -1.2342 -0.3001 -0.7765
 5648TIP3   OH238434   0.954   3.395  10.935  0.2213 -0.6750 -0.2546
 5648TIP3    H138435   0.892   3.420  11.005 -0.6321 -1.0911 -0.8403
 5648TIP3    H238436   1.001   3.319  10.971 -0.5094 -1.1500 -0.2777
 5649TIP3   OH238437   6.038   4.470  10.400 -0.7214  0.7442  0.6822
 5649TIP3    H138438   5.946   4.458  10.424 -0.4004  0.6422  1.9386
 5649TIP3    H238439   6.060   4.390  10.352 -1.2902  0.7753  0.3581
 5650TIP3   OH238440   1.329   1.819  15.842 -0.2884 -0.0879 -0.0481
 5650TIP3    H138441   1.353   1.834  15.750  2.5919 -0.7507  0.4931
 5650TIP3    H238442   1.367   1.893  15.889 -0.7315 -0.3460  0.7301
 5651TIP3   OH238443   0.191   2.103  15.085  0.5659  0.5144  0.6598
 5651TIP3    H138444   0.200   2.066  15.172  0.5423  2.0437  1.3505
 5651TIP3    H238445   0.103   2.140  15.084 -0.6805 -2.2396 -1.1655
 5652TIP3   OH238446   4.925   3.057  15.093  0.6080  0.1703 -0.4324
 5652TIP3    H138447   4.920   3.141  15.140  1.8263  1.6827 -2.8108
 5652TIP3    H238448   4.833   3.034  15.075  0.1865  0.2328  1.3994
 5653TIP3   OH238449   5.310   2.763  15.746 -0.4230  0.5868  0.2639
 5653TIP3    H138450   5.253   2.707  15.799  2.2188 -0.0073  2.7152
 5653TIP3    H238451   5.252   2.800  15.680 -3.2382 -1.3750  1.4397
 5654TIP3   OH238452   3.856   5.862  14.194 -0.3728 -0.5081  0.1196
 5654TIP3    H138453   3.867   5.879  14.287  0.1749  0.7617 -0.1546
 5654TIP3    H238454   3.764   5.885  14.177  0.0541  1.2771 -0.0179
 5655TIP3   OH238455   0.893   3.640   1.664 -0.1532 -0.1662  0.4656
 5655TIP3    H138456   0.930   3.564   1.709  0.3556  0.1084  0.5178
 5655TIP3    H238457   0.954   3.711   1.684 -1.5632  0.6880  1.9066
 5656TIP3   OH238458   2.273   0.081  16.943 -0.2108  0.2519 -0.7895
 5656TIP3    H138459   2.244   0.160  16.897 -0.4951  0.2897 -0.5438
 5656TIP3    H238460   2.344   0.111  17.000  1.3540 -0.0940 -2.4694
 5657TIP3   OH238461   2.350   2.130  15.872  0.4163 -0.1398 -0.1925
 5657TIP3    H138462   2.438   2.158  15.899 -0.9552  1.8130  2.8930
 5657TIP3    H238463   2.302   2.212  15.862 -1.0620 -1.1737 -1.9328
 5658TIP3   OH238464   1.856   6.376  13.852 -0.1963 -0.6367 -0.4705
 5658TIP3    H138465   1.939   6.374  13.804  0.0217  0.2064 -0.1615
 5658TIP3    H238466   1.820   6.463  13.834  0.7614  0.4322  2.2509
 5659TIP3   OH238467   6.796   3.501  15.013 -0.3195  0.6819  0.5727
 5659TIP3    H138468   6.747   3.526  15.091  0.6122  1.5613  0.9075
 5659TIP3    H238469   6.742   3.530  14.940  0.3726  3.1510  0.9388
 5660TIP3   OH238470   4.480   5.077  16.185  0.3727 -0.8059 -0.2155
 5660TIP3    H138471   4.392   5.049  16.211  1.5672 -4.0137  0.8881
 5660TIP3    H238472   4.538   5.013  16.226  3.3328  1.6941 -0.1730
 5661TIP3   OH238473   0.962   0.183   5.183  0.3078 -0.2496 -0.1888
 5661TIP3    H138474   0.885   0.224   5.144  0.6263 -0.1673 -0.7372
 5661TIP3    H238475   0.953   0.199   5.277  0.5514  1.2779 -0.4069
 5662TIP3   OH238476   1.687   6.211   5.628 -0.6869  0.0229 -0.5791
 5662TIP3    H138477   1.651   6.132   5.668  0.5293  0.7755  2.2138
 5662TIP3    H238478   1.631   6.282   5.660  0.1965  0.6314 -0.3348
 5663TIP3   OH238479   6.352   0.159  17.063  0.4799 -0.1533  0.1338
 5663TIP3    H138480   6.388   0.197  16.983  0.8754 -0.2419  0.2682
 5663TIP3    H238481   6.403   0.196  17.134  0.5251 -0.5319  0.3036
 5664TIP3   OH238482   1.067   1.876   4.536 -0.6777  0.4838  0.7955
 5664TIP3    H138483   1.025   1.827   4.464 -1.8894  3.4678 -0.6812
 5664TIP3    H238484   1.002   1.940   4.563  1.3309  2.3105  1.5790
 5665TIP3   OH238485   6.515   5.523  16.297  0.2334 -0.2106 -0.0482
 5665TIP3    H138486   6.490   5.554  16.384 -0.1172  0.6336 -0.4431
 5665TIP3    H238487   6.550   5.600  16.253  4.2741 -1.3701  0.6658
 5666TIP3   OH238488   5.746   2.259  12.689  0.1441 -0.1224 -0.4424
 5666TIP3    H138489   5.651   2.258  12.703 -0.0221  1.9031 -1.1802
 5666TIP3    H238490   5.763   2.181  12.635 -1.0304 -0.7159  0.0148
 5667TIP3   OH238491   6.091   4.232  11.777  0.1120  0.3093 -0.4898
 5667TIP3    H138492   6.000   4.227  11.749  0.4558  2.4890 -2.2986
 5667TIP3    H238493   6.113   4.143  11.804 -1.7387 -0.9397 -2.7204
 5668TIP3   OH238494   4.988   1.608  15.455  0.4417  0.6412 -0.2188
 5668TIP3    H138495   5.078   1.607  15.487  0.6293  2.6772 -0.5789
 5668TIP3    H238496   4.964   1.515  15.449  2.9581 -0.0203 -1.3606
 5669TIP3   OH238497   2.774   6.535  14.581  0.1644  0.1662 -0.1450
 5669TIP3    H138498   2.813   6.518  14.667  0.8416 -0.2752 -0.5237
 5669TIP3    H238499   2.703   6.596  14.598  1.2466  1.2745  0.5285
 5670TIP3   OH238500   6.395   6.269   0.847 -0.0368 -0.2166 -0.2558
 5670TIP3    H138501   6.457   6.252   0.776 -0.6977 -1.1217 -0.6334
 5670TIP3    H238502   6.309   6.263   0.805 -0.4381 -0.9006  0.6497
 5671TIP3   OH238503   4.572   1.616   4.605  0.3109  0.3327  0.4876
 5671TIP3    H138504   4.528   1.539   4.571 -0.4300  1.2018 -0.6039
 5671TIP3    H238505   4.663   1.589   4.617  0.2575 -0.4447 -0.7445
 5672TIP3   OH238506   0.409   1.358  15.693 -0.5401  0.0896 -0.1470
 5672TIP3    H138507   0.440   1.329  15.779  1.2034  3.3326  0.4511
 5672TIP3    H238508   0.485   1.350  15.636  0.4229  4.1479  0.3150
 5673TIP3   OH238509   0.466   4.627  13.588 -0.0417  0.2625 -0.0555
 5673TIP3    H138510   0.378   4.597  13.608 -0.5729  2.2939  0.8644
 5673TIP3    H238511   0.507   4.642  13.673  0.9905 -0.0670 -0.4717
 5674TIP3   OH238512   0.802   1.200  16.208  0.2175 -0.7157 -0.7231
 5674TIP3    H138513   0.828   1.183  16.299 -0.1900  1.2668 -0.1738
 5674TIP3    H238514   0.708   1.181  16.207 -0.0334  0.4054 -0.3714
 5675TIP3   OH238515   1.007   5.209   2.213 -0.0733  0.1051 -0.2709
 5675TIP3    H138516   1.047   5.136   2.165 -1.0074 -0.5462 -0.0940
 5675TIP3    H238517   0.914   5.187   2.215 -0.2760  1.0033  0.3293
 5676TIP3   OH238518   5.472   4.210  12.983 -0.7763  0.2180 -0.7789
 5676TIP3    H138519   5.488   4.285  13.041 -0.0646 -1.9887  2.1337
 5676TIP3    H238520   5.377   4.198  12.987 -0.7156 -0.0247  0.1140
 5677TIP3   OH238521   2.293   4.557  16.350  0.3451 -0.2020  0.1624
 5677TIP3    H138522   2.315   4.571  16.443  1.8008  1.8332 -0.4150
 5677TIP3    H238523   2.247   4.636  16.324 -0.4711 -0.9654 -0.7511
 5678TIP3   OH238524   3.326   0.942   2.644 -0.2144 -0.1822  0.1440
 5678TIP3    H138525   3.295   0.931   2.554  0.0189  0.7867 -0.0701
 5678TIP3    H238526   3.253   0.984   2.689  0.2274  0.7775 -0.0008
 5679TIP3   OH238527   3.095   4.767  14.746 -0.5640  0.2348  0.8698
 5679TIP3    H138528   3.021   4.780  14.806 -1.8098 -2.2107  0.0033
 5679TIP3    H238529   3.155   4.712  14.796 -0.5322  0.0971  0.6772
 5680TIP3   OH238530   2.196   1.902  13.419 -0.7375 -0.1148 -0.1982
 5680TIP3    H138531   2.156   1.990  13.419  0.4546  0.4765  1.0680
 5680TIP3    H238532   2.154   1.856  13.347 -1.5218  1.4477 -0.7838
 5681TIP3   OH238533   2.401   1.272   3.777 -0.0743 -0.3062  0.3716
 5681TIP3    H138534   2.398   1.246   3.869 -0.7193 -1.6371  0.0090
 5681TIP3    H238535   2.414   1.189   3.730  1.4954  0.4987 -0.6772
 5682TIP3   OH238536   5.018   0.120  14.686 -0.7061  0.1279 -0.3621
 5682TIP3    H138537   5.061   0.082  14.609  1.0372  0.0404  0.6074
 5682TIP3    H238538   4.981   0.202  14.655 -1.0540 -0.4473 -1.5518
 5683TIP3   OH238539   5.270   0.203  11.330 -0.5930  0.1920 -0.4304
 5683TIP3    H138540   5.211   0.259  11.278  0.8725  0.5716 -1.7774
 5683TIP3    H238541   5.273   0.121  11.281 -1.7430 -0.6617  0.8677
 5684TIP3   OH238542   6.829   5.060   3.986  0.2072  0.3729  0.3901
 5684TIP3    H138543   6.866   5.040   3.901  0.4014  4.1286 -0.5893
 5684TIP3    H238544   6.902   5.096   4.037 -0.2387 -0.3574  1.5930
 5685TIP3   OH238545   5.274   5.563   6.482  0.0545 -0.5063 -0.5395
 5685TIP3    H138546   5.286   5.541   6.390  0.1295 -1.1510 -0.3824
 5685TIP3    H238547   5.363   5.567   6.518  0.0906  0.8188 -0.7228
 5686TIP3   OH238548   5.942   1.144   3.752  0.6775 -0.0985  0.0375
 5686TIP3    H138549   5.859   1.187   3.735  0.4426 -0.8903 -0.8875
 5686TIP3    H238550   5.966   1.173   3.840  0.3815  1.6547 -0.4117
 5687TIP3   OH238551   1.142   6.115  14.465 -0.1853 -0.8943 -0.4224
 5687TIP3    H138552   1.226   6.094  14.424  0.7676  2.6894 -0.6725
 5687TIP3    H238553   1.162   6.127  14.557 -0.8795 -2.0130 -0.1111
 5688TIP3   OH238554   2.509   4.597  12.868  0.5161 -0.3067 -0.3084
 5688TIP3    H138555   2.522   4.670  12.928  0.2224  0.8618 -1.6177
 5688TIP3    H238556   2.582   4.538  12.886  0.1632 -0.2431  1.5169
 5689TIP3   OH238557   0.843   5.842   4.283  0.1782 -0.6812  0.0990
 5689TIP3    H138558   0.899   5.892   4.223 -1.0164 -0.0245 -0.5149
 5689TIP3    H238559   0.848   5.752   4.251  1.5520 -0.7946  0.5893
 5690TIP3   OH238560   3.667   1.131  16.720 -0.3251 -0.2338 -0.1479
 5690TIP3    H138561   3.714   1.198  16.770 -1.3586  1.2775 -1.1091
 5690TIP3    H238562   3.728   1.104  16.652  0.5134 -1.1514  0.9267
 5691TIP3   OH238563   4.547   3.599  11.665  0.0070  0.7321  0.0506
 5691TIP3    H138564   4.462   3.639  11.648 -0.7444 -1.1136 -0.8631
 5691TIP3    H238565   4.590   3.597  11.580  1.1015  1.8796  0.5536
 5692TIP3   OH238566   5.361   3.338  16.310 -0.4516  0.4116 -0.0693
 5692TIP3    H138567   5.324   3.388  16.383 -0.5086 -1.6142  1.3573
 5692TIP3    H238568   5.453   3.364  16.308 -0.5992  0.9827  0.2758
 5693TIP3   OH238569   3.854   1.516   1.909  0.2422  0.0321 -0.1110
 5693TIP3    H138570   3.881   1.591   1.962  0.9120  0.1120 -0.5584
 5693TIP3    H238571   3.759   1.515   1.916  0.1855  1.2447 -0.5265
 5694TIP3   OH238572   3.242   4.922  11.938  0.1485 -0.5018  0.3815
 5694TIP3    H138573   3.208   4.996  11.887  0.3780  0.1462  1.1444
 5694TIP3    H238574   3.197   4.846  11.903 -0.5533  0.0792 -0.0091
 5695TIP3   OH238575   5.453   4.804   4.132  0.1188 -0.2042 -1.2166
 5695TIP3    H138576   5.429   4.755   4.053 -0.5597 -1.5433 -0.2156
 5695TIP3    H238577   5.470   4.737   4.198  1.2012  0.8851 -0.3503
 5696TIP3   OH238578   4.882   6.847  15.467 -0.6268  0.1664 -0.0125
 5696TIP3    H138579   4.800   6.810  15.435 -1.0911  1.2239 -0.0999
 5696TIP3    H238580   4.908   6.790  15.539 -2.4264  0.8572  1.2511
 5697TIP3   OH238581   2.677   4.935   2.191 -0.3554 -0.2182 -0.2203
 5697TIP3    H138582   2.729   5.011   2.218  1.1820 -0.5525 -2.0216
 5697TIP3    H238583   2.690   4.871   2.261 -0.1026  0.4918  0.3945
 5698TIP3   OH238584   5.061   0.124   1.699  0.0053 -0.0192 -0.5250
 5698TIP3    H138585   5.146   0.082   1.687 -0.5476 -1.8168  1.2744
 5698TIP3    H238586   5.006   0.056   1.738 -2.4595  0.8994 -2.1301
 5699TIP3   OH238587   2.085   5.724   2.837 -0.0313  0.2573 -0.6319
 5699TIP3    H138588   2.093   5.629   2.840 -2.7889 -0.0438  0.7895
 5699TIP3    H238589   2.099   5.753   2.927  0.9258  1.2274 -1.0726
 5700TIP3   OH238590   6.078   6.627  11.938 -0.1798 -0.0656 -0.2242
 5700TIP3    H138591   6.157   6.624  11.884 -0.5012 -1.0802 -0.6579
 5700TIP3    H238592   6.089   6.705  11.992  0.4870  0.5727 -1.2387
 5701TIP3   OH238593   2.690   0.085  13.011  0.0343 -0.0861 -0.0926
 5701TIP3    H138594   2.685   0.107  13.104 -1.8198 -0.0713 -0.1560
 5701TIP3    H238595   2.651   0.160  12.966  0.8747 -0.1064 -0.8928
 5702TIP3   OH238596   2.954   4.241  12.344 -0.3436 -0.1262 -0.0625
 5702TIP3    H138597   3.025   4.226  12.281 -1.4468 -0.0148 -1.3853
 5702TIP3    H238598   2.908   4.318  12.311 -1.4315 -0.5378  0.4191
 5703TIP3   OH238599   4.223   4.070   3.856  0.3500  0.1203  0.6487
 5703TIP3    H138600   4.213   4.001   3.791 -1.5777 -0.4177  1.4505
 5703TIP3    H238601   4.317   4.088   3.856  0.5718 -0.7267 -1.3575
 5704TIP3   OH238602   4.353   1.253   2.202 -0.0123  0.0663  0.1424
 5704TIP3    H138603   4.318   1.273   2.115 -1.1148  0.1108  0.5740
 5704TIP3    H238604   4.396   1.168   2.191 -0.8614 -0.3281 -0.2821
 5705TIP3   OH238605   3.806   1.794  14.593 -0.9749  0.4611 -0.1942
 5705TIP3    H138606   3.831   1.828  14.507 -0.6362 -0.2260 -0.3762
 5705TIP3    H238607   3.716   1.823  14.605 -0.3428  2.4337  0.1843
 5706TIP3   OH238608   4.088   5.678  15.676  0.2320 -0.2288 -0.7435
 5706TIP3    H138609   4.171   5.718  15.701  0.8224 -1.6728 -0.2975
 5706TIP3    H238610   4.082   5.599  15.729 -3.3361  1.7059  2.2440
 5707TIP3   OH238611   2.206   0.725   5.554 -0.0813  0.0160  0.4701
 5707TIP3    H138612   2.110   0.729   5.554 -0.0885  0.4428  1.5881
 5707TIP3    H238613   2.232   0.768   5.473 -0.8643 -1.9878 -0.9194
 5708TIP3   OH238614   4.718   3.718   5.181 -0.0477 -0.7141 -0.4207
 5708TIP3    H138615   4.761   3.688   5.261  1.4933  0.3052 -0.8089
 5708TIP3    H238616   4.658   3.787   5.210  1.3036  0.4261 -0.1988
 5709TIP3   OH238617   4.398   4.698  12.501  0.1175 -0.1607 -0.3867
 5709TIP3    H138618   4.477   4.644  12.500 -0.4499 -1.0868  1.2454
 5709TIP3    H238619   4.423   4.776  12.551  0.0918 -0.2901 -0.1731
 5710TIP3   OH238620   1.844   2.184   5.118  0.0938 -0.3981 -0.5138
 5710TIP3    H138621   1.763   2.169   5.167  0.7900 -0.3468  0.7076
 5710TIP3    H238622   1.862   2.277   5.131  0.1609 -0.3322 -1.0798
 5711TIP3   OH238623   3.389   2.437  13.397 -0.3271 -0.1425  0.5480
 5711TIP3    H138624   3.325   2.408  13.332 -1.7735  0.2611  1.7528
 5711TIP3    H238625   3.385   2.532  13.395  2.6447  0.0866 -1.6443
 5712TIP3   OH238626   3.136   0.016  12.041  0.2300  0.2143  0.0327
 5712TIP3    H138627   3.126  -0.078  12.026 -1.5064  0.5381 -1.1549
 5712TIP3    H238628   3.229   0.033  12.026  0.6605 -1.3602  0.6993
 5713TIP3   OH238629   2.843   6.348   5.479  0.7513 -0.3869  0.3508
 5713TIP3    H138630   2.829   6.330   5.572  1.0292 -0.7281  0.3298
 5713TIP3    H238631   2.855   6.442   5.474  1.5267 -0.4559  0.7655
 5714TIP3   OH238632   6.592   5.104  12.319 -0.0749  0.1157  0.2767
 5714TIP3    H138633   6.567   5.023  12.275  0.1695 -1.5405  2.9479
 5714TIP3    H238634   6.660   5.141  12.263 -0.5010 -1.2630 -1.2521
 5715TIP3   OH238635   5.733   4.310  12.727  0.1014 -0.3775 -0.6347
 5715TIP3    H138636   5.643   4.292  12.699 -0.3157 -1.8185  1.3788
 5715TIP3    H238637   5.779   4.227  12.714  0.9841  0.1821 -1.0994
 5716TIP3   OH238638   6.242   4.001  11.915 -0.3926 -0.1270 -0.2286
 5716TIP3    H138639   6.159   3.953  11.905  0.0032 -1.1818  1.1225
 5716TIP3    H238640   6.247   4.020  12.008  0.4972  0.6780 -0.4282
 5717TIP3   OH238641   3.989   1.912   2.287 -0.0177  0.5099 -0.7089
 5717TIP3    H138642   4.021   1.827   2.317 -1.3325  0.1764 -0.1926
 5717TIP3    H238643   4.034   1.975   2.343  0.9717  0.1659 -1.0988
 5718TIP3   OH238644   0.682   0.849   5.457 -0.4600  0.1415 -0.2880
 5718TIP3    H138645   0.750   0.792   5.494 -0.2190  0.2632 -0.5421
 5718TIP3    H238646   0.691   0.839   5.362 -0.0005  1.0849 -0.3488
 5719TIP3   OH238647   3.606   4.582   5.625  0.3918 -0.2009 -0.4479
 5719TIP3    H138648   3.523   4.536   5.633  0.9247 -1.0927  0.0943
 5719TIP3    H238649   3.672   4.512   5.621  1.3477  0.5022  1.7119
 5720TIP3   OH238650   2.720   4.168   0.893 -0.1492  0.2409 -0.2190
 5720TIP3    H138651   2.667   4.228   0.945 -2.1947 -0.1110 -1.7628
 5720TIP3    H238652   2.662   4.094   0.876  0.5737  0.1381 -2.5727
 5721TIP3   OH238653   5.746   5.198   0.171  0.0575  0.1370 -0.1156
 5721TIP3    H138654   5.743   5.141   0.094 -1.3462 -1.3918  1.0006
 5721TIP3    H238655   5.656   5.197   0.205  0.6295  0.8012  1.5154
 5722TIP3   OH238656   1.824   0.810   0.042 -0.1145 -0.5873 -0.9933
 5722TIP3    H138657   1.920   0.804   0.034 -0.0209  0.4636 -0.6928
 5722TIP3    H238658   1.792   0.777  -0.042  0.5146 -0.8064 -1.1553
 5723TIP3   OH238659   6.352   4.400   0.999  0.1795 -0.5722  0.0560
 5723TIP3    H138660   6.297   4.421   1.074  0.9419 -1.7370  0.9797
 5723TIP3    H238661   6.300   4.338   0.948 -0.8048  1.0753 -1.0305
 5724TIP3   OH238662   0.082   6.533  11.385 -0.3451 -0.1195 -0.3721
 5724TIP3    H138663   0.165   6.545  11.340  0.3107 -2.2168  0.1796
 5724TIP3    H238664   0.017   6.532  11.314  0.1915  0.4674 -0.8938
 5725TIP3   OH238665   1.331   3.673  16.204 -0.1053  0.1339 -0.3577
 5725TIP3    H138666   1.248   3.634  16.176 -1.2961  2.1894  0.0733
 5725TIP3    H238667   1.382   3.682  16.123  0.2562 -2.2575 -0.4525
 5726TIP3   OH238668   5.381   1.560  13.360  0.1335  0.2545 -0.0504
 5726TIP3    H138669   5.287   1.572  13.343  0.0235 -0.2126  0.1877
 5726TIP3    H238670   5.408   1.640  13.403 -0.1958  0.3294  0.0226
 5727TIP3   OH238671   3.546   1.030  16.945  0.1125 -0.2693  0.1714
 5727TIP3    H138672   3.604   1.106  16.937  0.2689 -0.4334 -0.2657
 5727TIP3    H238673   3.467   1.054  16.897 -0.7918  0.5271  1.9673
 5728TIP3   OH238674   4.566   4.602  13.284  0.3260 -0.0714  0.6686
 5728TIP3    H138675   4.529   4.603  13.371  0.3356 -2.6082  0.7763
 5728TIP3    H238676   4.656   4.634  13.296  0.8249 -1.7837  1.9049
 5729TIP3   OH238677   3.058   5.425   2.854 -0.1427 -0.0846  0.1879
 5729TIP3    H138678   2.967   5.441   2.877 -0.1655  0.7625 -0.4239
 5729TIP3    H238679   3.108   5.468   2.923 -0.2102  2.4756 -1.2481
 5730TIP3   OH238680   3.881   3.521  16.169 -0.2613  0.4574  0.6846
 5730TIP3    H138681   3.829   3.503  16.247 -1.0331 -1.3356 -0.1870
 5730TIP3    H238682   3.821   3.566  16.109  0.0756  1.0314  0.7636
 5731TIP3   OH238683   0.947   6.172  16.941  0.3959  0.3580  0.2644
 5731TIP3    H138684   0.955   6.124  17.024 -0.0836 -1.8550 -0.9171
 5731TIP3    H238685   0.951   6.105  16.873 -4.9740  1.2426 -1.3961
 5732TIP3   OH238686   2.925   6.843  15.683 -0.3516  0.3966 -0.3437
 5732TIP3    H138687   2.934   6.772  15.620 -0.9884  0.2928 -0.3160
 5732TIP3    H238688   2.993   6.824  15.749  0.9367  1.0050 -1.4382
 5733TIP3   OH238689   3.633   0.542   2.869  0.5064  0.0811  0.1847
 5733TIP3    H138690   3.585   0.552   2.788  0.1982  1.6108  0.5289
 5733TIP3    H238691   3.589   0.601   2.931  1.3428 -0.2985  1.1707
 5734TIP3   OH238692   6.482   6.380   1.206  0.2398 -0.2532 -0.5787
 5734TIP3    H138693   6.444   6.292   1.211  1.0261 -0.7248 -2.1600
 5734TIP3    H238694   6.411   6.438   1.234  0.0218 -1.4154  1.5016
 5735TIP3   OH238695   5.757   1.360  13.958  0.5884  0.0025  0.3745
 5735TIP3    H138696   5.798   1.309  14.028  0.2882 -2.4088 -1.0846
 5735TIP3    H238697   5.671   1.319  13.946  1.0091 -0.3385 -2.0050
 5736TIP3   OH238698   2.243   0.317   4.108  0.3222  0.5502 -0.0337
 5736TIP3    H138699   2.312   0.254   4.127  2.1531  1.4252 -3.0227
 5736TIP3    H238700   2.241   0.375   4.184  1.0929 -0.9850  1.2057
 5737TIP3   OH238701   5.903   4.514  12.633 -0.5822 -0.2436  0.0966
 5737TIP3    H138702   5.849   4.436  12.642  0.3002 -0.7113  1.6321
 5737TIP3    H238703   5.986   4.492  12.675  0.9919  0.3414 -2.4756
 5738TIP3   OH238704   4.266   3.928  11.539 -0.5071  0.5510  0.4928
 5738TIP3    H138705   4.205   3.988  11.582 -1.5122  0.0911 -0.2812
 5738TIP3    H238706   4.267   3.851  11.595  0.3081  1.0107  1.1490
 5739TIP3   OH238707   4.730   0.086   0.404  0.6205  0.2539 -0.3201
 5739TIP3    H138708   4.792   0.019   0.434 -0.6049  0.0235  1.9300
 5739TIP3    H238709   4.645   0.056   0.437 -0.0288  2.6750  0.4267
 5740TIP3   OH238710   6.265   5.559  15.025  0.5116  0.5812 -0.1503
 5740TIP3    H138711   6.265   5.578  14.931  1.4151 -2.0448 -0.7664
 5740TIP3    H238712   6.176   5.577  15.054  0.1126  1.0544 -1.6056
 5741TIP3   OH238713   0.712   1.367  11.381  0.5601 -0.2408  0.2238
 5741TIP3    H138714   0.630   1.327  11.354  0.2658  1.6471 -1.9733
 5741TIP3    H238715   0.777   1.297  11.375 -0.4438 -1.1312 -0.5324
 5742TIP3   OH238716   5.682   4.103   4.397  0.7209 -0.1306  0.7237
 5742TIP3    H138717   5.675   4.165   4.324  0.6098 -0.8686  0.0799
 5742TIP3    H238718   5.606   4.121   4.452 -0.4946 -1.0471 -0.5695
 5743TIP3   OH238719   2.518   2.775  17.050  0.0042 -0.4044  0.6331
 5743TIP3    H138720   2.502   2.791  16.957  1.8117 -0.8456  0.1997
 5743TIP3    H238721   2.466   2.841  17.095  0.5597  1.0811 -0.7910
 5744TIP3   OH238722   0.962   2.713   1.697  0.2059  0.2907 -0.3353
 5744TIP3    H138723   0.976   2.804   1.670 -1.4587  0.6208 -0.1930
 5744TIP3    H238724   0.946   2.666   1.615  1.9319 -0.0762 -0.4934
 5745TIP3   OH238725   2.755   3.844   3.318 -0.0098  0.6795  0.2334
 5745TIP3    H138726   2.798   3.797   3.389 -0.6643  2.5935  1.9963
 5745TIP3    H238727   2.745   3.779   3.249 -2.7788 -2.5257  3.2232
 5746TIP3   OH238728   1.954   2.342  16.482 -0.2400 -0.2515  0.2192
 5746TIP3    H138729   1.945   2.297  16.566 -0.1844 -1.3194 -0.3404
 5746TIP3    H238730   1.868   2.383  16.468 -0.5072 -0.7344  0.4170
 5747TIP3   OH238731   4.973   4.977   5.024  0.3309  0.1286  0.1208
 5747TIP3    H138732   4.971   5.058   4.973  0.7065  0.2609  0.3102
 5747TIP3    H238733   5.063   4.946   5.016  0.9438  1.2086  2.3414
 5748TIP3   OH238734   1.666   0.083  10.511  0.4218 -0.4409 -0.1274
 5748TIP3    H138735   1.619   0.115  10.433  0.8245  1.6739  0.4182
 5748TIP3    H238736   1.609   0.015  10.547 -1.2527  0.6076 -0.6376
 5749TIP3   OH238737   5.852   3.386   4.756  0.7927  0.2342  0.5620
 5749TIP3    H138738   5.840   3.480   4.739  1.6958  0.5177  1.4181
 5749TIP3    H238739   5.922   3.360   4.697 -0.1046 -0.1468 -0.3766
 5750TIP3   OH238740   2.530   1.703   5.663 -0.5184  0.7398 -0.0173
 5750TIP3    H138741   2.559   1.612   5.659  0.6149  1.0870  0.0960
 5750TIP3    H238742   2.450   1.700   5.717 -0.5571 -0.1929 -0.1097
 5751TIP3   OH238743   6.534   0.186  14.322  0.0312  0.3244  0.2667
 5751TIP3    H138744   6.624   0.204  14.350 -0.0464  0.1237  0.6450
 5751TIP3    H238745   6.530   0.091  14.311 -0.7224  0.0531  2.3634
 5752TIP3   OH238746   1.203   5.429  11.316  0.0623  0.0076 -0.5670
 5752TIP3    H138747   1.188   5.337  11.340 -0.6980 -0.2975 -2.1058
 5752TIP3    H238748   1.250   5.425  11.232  0.8907  1.0365 -0.1811
 5753TIP3   OH238749   2.711   0.597   1.756  0.0610 -0.0957 -0.0909
 5753TIP3    H138750   2.684   0.566   1.669 -1.2356 -0.0878  0.2873
 5753TIP3    H238751   2.750   0.682   1.740 -0.4099  0.0265 -0.6484
 5754TIP3   OH238752   6.648   1.787  11.857  0.8920  0.4868  0.6385
 5754TIP3    H138753   6.631   1.767  11.765  0.5692  1.6659  0.4284
 5754TIP3    H238754   6.562   1.788  11.898  0.8668  1.6726  0.5843
 5755TIP3   OH238755   5.354   6.089  16.551  0.1650  0.0708  0.3042
 5755TIP3    H138756   5.329   6.042  16.630 -0.7354 -1.2089 -0.7066
 5755TIP3    H238757   5.378   6.021  16.488  0.6846  1.0453 -0.5861
 5756TIP3   OH238758   5.858   3.747  12.910  0.3247  0.4725  0.8202
 5756TIP3    H138759   5.785   3.688  12.930 -0.0675  1.2187  1.6488
 5756TIP3    H238760   5.841   3.775  12.820 -0.4820  0.7178  1.0399
 5757TIP3   OH238761   6.389   0.147   4.954  1.0356 -0.6517  0.0289
 5757TIP3    H138762   6.374   0.081   4.886 -1.0819 -0.3145  0.1001
 5757TIP3    H238763   6.407   0.096   5.033  0.1674 -1.1383 -0.0791
 5758TIP3   OH238764   5.281   1.539  14.567 -0.1186  0.6460  0.2829
 5758TIP3    H138765   5.247   1.458  14.607  2.1287  0.0136  1.0435
 5758TIP3    H238766   5.351   1.567  14.626 -0.7932  3.1609 -0.0012
 5759TIP3   OH238767   0.834   0.351  16.401  0.3105  0.3780 -0.0900
 5759TIP3    H138768   0.910   0.352  16.343 -1.1146 -1.0704 -2.1131
 5759TIP3    H238769   0.809   0.259  16.406 -1.3758  0.8395  0.4472
 5760TIP3   OH238770   5.121   0.364  11.155 -0.0367  0.1652  0.7969
 5760TIP3    H138771   5.079   0.450  11.151  0.9531  0.6254 -1.2360
 5760TIP3    H238772   5.118   0.332  11.065 -0.0710 -1.7978  1.4518
 5761TIP3   OH238773   3.107   0.939  13.582 -0.2734 -0.6233 -0.5878
 5761TIP3    H138774   3.042   0.887  13.629 -0.2486 -1.7254 -1.7246
 5761TIP3    H238775   3.168   0.968  13.650 -1.7346  0.1418  0.4429
 5762TIP3   OH238776   5.571   6.610   5.610 -0.5625 -0.2293  0.1050
 5762TIP3    H138777   5.533   6.524   5.627  2.0499 -1.2040  1.4619
 5762TIP3    H238778   5.665   6.594   5.603 -0.1043  2.3778 -0.7425
 5763TIP3   OH238779   4.036   0.743  12.848  0.0262 -0.0569 -0.1717
 5763TIP3    H138780   4.056   0.695  12.929 -1.5381 -1.1184 -0.3565
 5763TIP3    H238781   3.954   0.704  12.818 -2.1020  3.6172  0.3309
 5764TIP3   OH238782   1.596   3.838   0.807  0.5355 -0.1433 -0.1506
 5764TIP3    H138783   1.512   3.792   0.798 -0.4181  1.8052 -2.0490
 5764TIP3    H238784   1.576   3.928   0.782  3.3495  0.2278 -1.3651
 5765TIP3   OH238785   0.232   3.025   4.392 -0.3424 -0.2089 -0.3309
 5765TIP3    H138786   0.271   2.945   4.427  0.8459  0.1006 -0.9035
 5765TIP3    H238787   0.246   3.019   4.298  3.3977  2.4139 -0.1622
 5766TIP3   OH238788   0.690   3.741  11.271  0.8466 -0.0640  0.2242
 5766TIP3    H138789   0.610   3.688  11.259  1.9431 -1.4100 -1.7641
 5766TIP3    H238790   0.760   3.676  11.279  1.9855  1.1090 -0.0146
 5767TIP3   OH238791   1.189   5.894   2.765  0.4470 -0.6585 -0.0204
 5767TIP3    H138792   1.268   5.928   2.724  0.9303 -1.3380  0.3351
 5767TIP3    H238793   1.174   5.953   2.839 -0.1190  0.2400 -0.8288
 5768TIP3   OH238794   0.583   5.451  16.223 -0.1119  0.4281  0.7621
 5768TIP3    H138795   0.572   5.385  16.292 -0.4309 -0.5276 -0.1779
 5768TIP3    H238796   0.498   5.496  16.219 -0.2552  0.1456  0.6454
 5769TIP3   OH238797   4.478   1.813  15.889  0.0838  0.1332 -0.7135
 5769TIP3    H138798   4.434   1.890  15.853  1.8117  1.9028  0.7262
 5769TIP3    H238799   4.523   1.846  15.967  2.1446 -2.0201 -0.9044
 5770TIP3   OH238800   5.557   1.510  12.803 -0.3094  0.3175 -0.1374
 5770TIP3    H138801   5.502   1.495  12.879 -1.1357 -0.7052 -0.9130
 5770TIP3    H238802   5.500   1.494  12.728  1.3089 -2.1069 -0.9806
 5771TIP3   OH238803   4.015   2.572  14.490 -0.3588  0.2759 -0.4214
 5771TIP3    H138804   3.987   2.543  14.403  1.5295 -0.3464 -0.8765
 5771TIP3    H238805   4.111   2.568  14.486 -0.2394 -1.3261  2.1961
 5772TIP3   OH238806   3.368   0.604   1.053  0.1327  0.7692 -0.0880
 5772TIP3    H138807   3.451   0.571   1.018  0.4287  1.0200  0.3690
 5772TIP3    H238808   3.334   0.661   0.984 -0.7143 -0.9490 -1.1794
 5773TIP3   OH238809   1.884   1.089  16.924 -0.8468 -0.0377  0.3111
 5773TIP3    H138810   1.923   1.151  16.863 -1.9286  0.4097  0.0591
 5773TIP3    H238811   1.856   1.142  16.999 -1.5777 -0.2462  0.1915
 5774TIP3   OH238812   6.428   0.403   4.118  0.2969 -0.1368 -0.3115
 5774TIP3    H138813   6.389   0.335   4.064  1.7157 -2.0639  0.9699
 5774TIP3    H238814   6.415   0.374   4.208  1.0998  1.1886  0.2719
 5775TIP3   OH238815   0.655   1.450  14.447  0.4843  0.3228 -0.1114
 5775TIP3    H138816   0.680   1.361  14.469  0.6177  0.7355  1.5267
 5775TIP3    H238817   0.559   1.450  14.450  0.2425 -0.5388 -3.4992
 5776TIP3   OH238818   1.595   4.438  16.193  0.8691  0.0242  0.0561
 5776TIP3    H138819   1.671   4.471  16.144  0.5828  1.7555  0.7302
 5776TIP3    H238820   1.526   4.431  16.126  1.2637 -0.3420 -0.3208
 5777TIP3   OH238821   1.413   5.504   5.499 -0.0018 -0.0433  0.4353
 5777TIP3    H138822   1.398   5.478   5.408 -0.0839 -0.7411  0.6409
 5777TIP3    H238823   1.480   5.572   5.493  0.1904 -0.2686 -0.1328
 5778TIP3   OH238824   2.176   6.152  13.358 -0.1540  0.5106  0.0936
 5778TIP3    H138825   2.180   6.121  13.449  0.6005 -1.5205 -0.5954
 5778TIP3    H238826   2.177   6.248  13.366 -0.0730  0.3823  2.2151
 5779TIP3   OH238827   2.417   6.786   6.033  0.0349 -0.3992  0.0501
 5779TIP3    H138828   2.499   6.799   5.986 -0.8012  1.1352 -1.0400
 5779TIP3    H238829   2.427   6.838   6.113  1.7542 -3.5893  2.1374
 5780TIP3   OH238830   1.960   1.776  14.674  0.1724 -0.2551  0.7380
 5780TIP3    H138831   1.893   1.718  14.711 -0.2380 -0.1710  0.1413
 5780TIP3    H238832   1.949   1.768  14.580  0.0783  0.8326  0.6415
 5781TIP3   OH238833   6.541   0.768   4.125  0.0043  0.3578  0.2810
 5781TIP3    H138834   6.456   0.807   4.147  0.1557  0.2757  1.0440
 5781TIP3    H238835   6.601   0.843   4.122  0.1784  0.2643  1.1591
 5782TIP3   OH238836   5.461   4.682   5.167 -0.2603  0.4869  0.2750
 5782TIP3    H138837   5.550   4.648   5.170 -0.3980  0.0301 -0.6010
 5782TIP3    H238838   5.418   4.644   5.244 -0.2052 -0.7461 -0.2788
 5783TIP3   OH238839   3.948   3.972   2.366  0.2277 -0.3755 -0.3652
 5783TIP3    H138840   3.999   4.004   2.292  1.3595 -0.4720  0.3423
 5783TIP3    H238841   3.975   4.027   2.439 -0.4953 -0.6138  0.0927
 5784TIP3   OH238842   3.810   6.268   5.978 -0.3254  0.4394  0.5205
 5784TIP3    H138843   3.764   6.190   5.945 -0.8638 -0.1038  2.4411
 5784TIP3    H238844   3.892   6.270   5.928  0.9999 -2.9736  2.2304
 5785TIP3   OH238845   6.131   5.805   5.024 -0.1447  0.2065  0.0086
 5785TIP3    H138846   6.224   5.786   5.035  0.0888  0.6131 -1.1029
 5785TIP3    H238847   6.093   5.792   5.111  0.9016 -0.2145  0.4162
 5786TIP3   OH238848   5.553   0.245  14.235  0.1646  0.4822  0.0469
 5786TIP3    H138849   5.549   0.290  14.151  0.4453  0.4207  0.0004
 5786TIP3    H238850   5.475   0.190  14.237 -0.0886  0.8343  0.0277
 5787TIP3   OH238851   5.677   6.803   1.875 -0.1464  0.2509 -0.1021
 5787TIP3    H138852   5.677   6.730   1.938  1.6147  1.6243  1.5980
 5787TIP3    H238853   5.619   6.868   1.915  1.7978  1.5603  0.7202
 5788TIP3   OH238854   6.023   3.660  13.632 -0.1958  0.2322 -0.0190
 5788TIP3    H138855   6.097   3.713  13.664  0.5956  0.4325 -2.0334
 5788TIP3    H238856   5.950   3.722  13.626 -0.9053 -0.1618  2.8951
 5789TIP3   OH238857   0.145   3.496  15.240 -0.1402 -0.2191  0.3078
 5789TIP3    H138858   0.058   3.468  15.211  1.6230 -2.4833 -3.6030
 5789TIP3    H238859   0.198   3.416  15.238  2.6587  1.4987 -0.1806
 5790TIP3   OH238860   5.377   5.319   4.132 -0.0323 -0.2415 -0.5918
 5790TIP3    H138861   5.408   5.230   4.143  0.8972  0.2128  0.6730
 5790TIP3    H238862   5.292   5.310   4.089 -0.5731 -1.8038  0.7030
 5791TIP3   OH238863   2.112   6.798  13.934 -0.0543 -0.0092 -0.5012
 5791TIP3    H138864   2.159   6.727  13.977 -0.4495 -0.0555 -0.1428
 5791TIP3    H238865   2.110   6.868  13.999  1.7766  0.9783 -1.3996
 5792TIP3   OH238866   4.771   2.811   5.758  0.1560 -0.0152 -0.4617
 5792TIP3    H138867   4.691   2.761   5.739  0.8393 -1.0397 -0.7229
 5792TIP3    H238868   4.739   2.900   5.778 -1.0381 -0.3861 -0.6047
 5793TIP3   OH238869   6.248   6.668   3.981  0.1422  0.1736  0.0639
 5793TIP3    H138870   6.303   6.591   3.990 -2.1044 -2.1047 -3.2582
 5793TIP3    H238871   6.191   6.665   4.058  0.3991 -1.2796  0.2320
 5794TIP3   OH238872   3.335   5.148   0.462 -0.2045 -0.2548  0.1429
 5794TIP3    H138873   3.298   5.062   0.440 -2.0087  0.9933 -2.2410
 5794TIP3    H238874   3.259   5.201   0.484  0.6379  1.2197 -0.3885
 5795TIP3   OH238875   5.958   2.444  10.989  0.0381  0.7168 -0.0318
 5795TIP3    H138876   6.052   2.448  10.975  0.1728  0.8884  0.8685
 5795TIP3    H238877   5.922   2.515  10.936  0.5055  1.2148  0.3100
 5796TIP3   OH238878   4.888   0.907   5.487 -0.3535  0.3759  0.1861
 5796TIP3    H138879   4.818   0.842   5.484  0.6962 -0.8397  0.8318
 5796TIP3    H238880   4.926   0.898   5.574  1.4909 -0.0350 -0.5886
 5797TIP3   OH238881   5.674   4.447   3.308  0.1596  0.2060 -0.3725
 5797TIP3    H138882   5.685   4.541   3.300  0.7716  0.1855  0.0951
 5797TIP3    H238883   5.580   4.433   3.313  0.0915  0.8971  0.6112
 5798TIP3   OH238884   4.230   0.870  12.658  0.3206  0.0787  0.0582
 5798TIP3    H138885   4.287   0.932  12.703  1.8543 -2.6386  2.1027
 5798TIP3    H238886   4.150   0.868  12.711  1.0550 -1.0954  1.1636
 5799TIP3   OH238887   1.637   0.686  14.212 -0.4040  0.4423 -0.4425
 5799TIP3    H138888   1.580   0.700  14.287  2.0960 -0.3425  1.7599
 5799TIP3    H238889   1.647   0.591  14.207  1.5176  0.5837 -0.0430
 5800TIP3   OH238890   5.859   1.054   4.007  0.1665 -0.0468  0.4606
 5800TIP3    H138891   5.763   1.049   4.014  0.2143 -0.7148  0.7216
 5800TIP3    H238892   5.891   0.996   4.076  0.7091 -2.0235 -1.3467
 5801TIP3   OH238893   5.953   2.637   3.922  0.2817  0.4619  0.4424
 5801TIP3    H138894   5.880   2.577   3.911  0.5228  0.3925 -0.9128
 5801TIP3    H238895   5.958   2.685   3.839  1.7972  0.4283  0.4879
 5802TIP3   OH238896   4.865   3.030   4.498  0.3811  0.1059 -0.1485
 5802TIP3    H138897   4.788   2.998   4.451 -0.8706 -0.0399  1.8991
 5802TIP3    H238898   4.900   2.953   4.543  1.1764  0.3584 -0.3186
 5803TIP3   OH238899   0.733   3.215  12.353  0.2108  0.1292 -0.0116
 5803TIP3    H138900   0.804   3.273  12.378 -0.1798  0.4164  0.4439
 5803TIP3    H238901   0.670   3.222  12.425 -0.4036  0.0942 -0.5438
 5804TIP3   OH238902   0.571   3.713  13.102  0.1353 -0.3485 -0.2033
 5804TIP3    H138903   0.527   3.784  13.056 -2.5143 -1.0827  0.9792
 5804TIP3    H238904   0.654   3.703  13.057  0.0714  2.6307 -1.1932
 5805TIP3   OH238905   0.737   1.425   5.398 -0.0611 -0.0843 -0.2700
 5805TIP3    H138906   0.673   1.364   5.361  1.1226 -1.5271 -0.0161
 5805TIP3    H238907   0.778   1.377   5.470  0.0774  1.4476  0.7312
 5806TIP3   OH238908   4.761   0.891   1.965 -0.0364 -0.1967 -0.4674
 5806TIP3    H138909   4.725   0.962   2.018  1.3271 -0.4729  0.9115
 5806TIP3    H238910   4.766   0.928   1.876 -1.8485  0.4692 -0.3406
 5807TIP3   OH238911   2.900   0.852   5.277  0.1541 -0.0353  0.9885
 5807TIP3    H138912   2.822   0.808   5.243  1.3477  0.5979 -3.1369
 5807TIP3    H238913   2.960   0.781   5.299  0.4220 -0.5979 -1.3278
 5808TIP3   OH238914   1.337   3.845  15.526 -0.2331 -0.0444 -0.8686
 5808TIP3    H138915   1.287   3.922  15.497  0.2554  0.9171  0.6779
 5808TIP3    H238916   1.368   3.804  15.446  0.2918  1.9376 -1.7318
 5809TIP3   OH238917   0.778   4.866  14.372  0.2630 -0.0908  0.6747
 5809TIP3    H138918   0.739   4.790  14.329  0.0320  0.8725 -0.8938
 5809TIP3    H238919   0.706   4.903  14.424  0.7054 -1.6051  2.4754
 5810TIP3   OH238920   0.637   0.830   5.831  0.9355  0.1948 -0.4612
 5810TIP3    H138921   0.598   0.912   5.862  0.3922  0.1541 -1.0284
 5810TIP3    H238922   0.607   0.822   5.741  4.3072  1.5121 -1.8961
 5811TIP3   OH238923   4.261   3.360   3.735  0.1156  0.1394 -0.5355
 5811TIP3    H138924   4.170   3.356   3.765 -0.2297 -0.1679 -1.5759
 5811TIP3    H238925   4.289   3.450   3.752 -0.0165 -0.0509  0.7949
 5812TIP3   OH238926   1.201   4.888   5.044  0.6462  0.1459  0.0728
 5812TIP3    H138927   1.222   4.798   5.067  2.0651  0.5287  0.3767
 5812TIP3    H238928   1.116   4.905   5.084 -0.3680 -1.5150 -1.2553
 5813TIP3   OH238929   2.237   6.014  11.835 -0.0359  0.3465  0.1209
 5813TIP3    H138930   2.201   6.097  11.806 -0.2986  0.2995  0.3106
 5813TIP3    H238931   2.326   6.013  11.801 -0.0592  0.6700  0.0523
 5814TIP3   OH238932   4.868   0.404   3.692  0.2931 -0.2347  0.1125
 5814TIP3    H138933   4.779   0.382   3.668  0.1253 -0.5454  0.9742
 5814TIP3    H238934   4.866   0.414   3.787  1.4574 -1.5921  0.3136
 5815TIP3   OH238935   2.545   5.140  12.979 -0.2873  0.2416  0.0921
 5815TIP3    H138936   2.635   5.111  12.991 -0.8893 -1.1372  1.6665
 5815TIP3    H238937   2.536   5.214  13.040  0.6436  2.6327 -2.4317
 5816TIP3   OH238938   1.734   2.501   0.584  0.3636  0.5357 -0.2524
 5816TIP3    H138939   1.658   2.442   0.587  1.6602 -1.1884 -0.0251
 5816TIP3    H238940   1.698   2.587   0.606 -1.2440 -0.5299  1.6403
 5817TIP3   OH238941   4.233   3.227  15.806 -0.1766  0.2371 -0.2546
 5817TIP3    H138942   4.206   3.274  15.885  0.3623 -1.0714  0.7683
 5817TIP3    H238943   4.326   3.249  15.796 -0.2907  0.5465 -0.6342
 5818TIP3   OH238944   2.437   6.386   5.576 -0.2511  0.1490 -0.2427
 5818TIP3    H138945   2.420   6.296   5.603  0.6743  0.5748  2.0816
 5818TIP3    H238946   2.363   6.436   5.611  0.6824  0.6465  1.1140
 5819TIP3   OH238947   5.353   3.533   0.191 -0.0885 -0.8089 -0.3015
 5819TIP3    H138948   5.323   3.617   0.156  0.4792  0.1357  1.3430
 5819TIP3    H238949   5.403   3.494   0.120 -2.4331 -0.9586 -1.9824
 5820TIP3   OH238950   4.594   1.360   2.597 -0.3595  0.5345  0.1627
 5820TIP3    H138951   4.639   1.324   2.673  0.3182  2.7089  0.8637
 5820TIP3    H238952   4.664   1.391   2.539 -0.9010  1.3534 -0.0765
 5821TIP3   OH238953   5.413   0.713  10.495 -0.7040  0.0110 -0.0702
 5821TIP3    H138954   5.323   0.684  10.483 -0.6242  0.1323 -1.0726
 5821TIP3    H238955   5.466   0.638  10.469 -0.4886 -0.5690  1.8799
 5822TIP3   OH238956   0.165   4.326  13.377  0.2627  0.4067 -0.7747
 5822TIP3    H138957   0.087   4.379  13.386  0.2502  0.1699  0.6436
 5822TIP3    H238958   0.134   4.235  13.383  0.7499  0.3268  0.8948
 5823TIP3   OH238959   5.051   5.665  11.212 -0.3687  0.2764 -0.3696
 5823TIP3    H138960   5.036   5.600  11.280  0.0398  1.3895  0.8337
 5823TIP3    H238961   5.145   5.662  11.195 -0.2294  1.0232  0.2092
 5824TIP3   OH238962   1.605   1.101  12.554 -0.7350  0.3379 -0.6149
 5824TIP3    H138963   1.583   1.035  12.488  2.9044 -0.2576 -1.4444
 5824TIP3    H238964   1.665   1.161  12.510  0.9277  0.5909  1.7578
 5825TIP3   OH238965   1.638   0.389   2.154  0.1741  0.8844  0.0168
 5825TIP3    H138966   1.608   0.308   2.195  1.9711 -0.4203 -1.1205
 5825TIP3    H238967   1.618   0.379   2.061 -3.0826  3.4541  0.2289
 5826TIP3   OH238968   2.225   4.681  13.067 -0.0143 -0.6946  0.6424
 5826TIP3    H138969   2.205   4.762  13.114 -0.2375  0.4668 -1.3447
 5826TIP3    H238970   2.211   4.703  12.975 -0.9218 -3.2692  0.1101
 5827TIP3   OH238971   1.782   2.581   1.464 -0.7029 -0.0307 -0.0448
 5827TIP3    H138972   1.868   2.619   1.482 -1.7821  1.4088  2.7799
 5827TIP3    H238973   1.775   2.507   1.524 -1.5194  0.0749  0.0044
 5828TIP3   OH238974   0.854   0.161  12.840 -0.5316  0.0366  0.6303
 5828TIP3    H138975   0.933   0.196  12.800 -0.4490 -0.5394  0.2664
 5828TIP3    H238976   0.875   0.151  12.933  0.5111 -1.9235  0.2304
 5829TIP3   OH238977   1.117   6.437  14.516 -0.3472 -0.3570  0.3142
 5829TIP3    H138978   1.179   6.425  14.444  1.5562 -0.5992  1.9021
 5829TIP3    H238979   1.078   6.523  14.500 -1.0034 -0.9706 -1.7036
 5830TIP3   OH238980   5.644   1.100  14.852 -0.0269 -0.2511  0.2386
 5830TIP3    H138981   5.698   1.021  14.850  0.9862  0.4238 -1.1116
 5830TIP3    H238982   5.554   1.068  14.842  0.2955 -1.2737  0.5109
 5831TIP3   OH238983   5.164   2.004   4.124 -0.3484 -0.3874 -0.2277
 5831TIP3    H138984   5.192   2.093   4.147  0.9061 -0.5182 -1.1828
 5831TIP3    H238985   5.208   1.948   4.189  1.0515 -0.5243 -1.2584
 5832TIP3   OH238986   1.808   1.853   0.421 -0.6983  0.0148  0.1306
 5832TIP3    H138987   1.781   1.805   0.499  0.9836  2.0636  2.1239
 5832TIP3    H238988   1.800   1.790   0.350 -1.7041 -2.1520  2.0345
 5833TIP3   OH238989   0.406   1.936  16.429 -0.0543  0.0434  0.3539
 5833TIP3    H138990   0.381   2.014  16.380 -1.5993  0.2451  1.4028
 5833TIP3    H238991   0.354   1.940  16.509  1.6937 -0.7767  1.5922
 5834TIP3   OH238992   1.218   0.461   3.092 -0.1287 -0.1287  0.6656
 5834TIP3    H138993   1.136   0.421   3.122 -0.0720  0.4937  1.6920
 5834TIP3    H238994   1.190   0.539   3.044 -0.1947 -0.8161 -0.4416
 5835TIP3   OH238995   6.515   2.206   0.066  0.4488 -0.2526  0.6504
 5835TIP3    H138996   6.451   2.241   0.127 -0.4653 -0.2067 -0.2948
 5835TIP3    H238997   6.544   2.123   0.105 -0.4293 -0.4277  0.9369
 5836TIP3   OH238998   1.883   6.540  11.726 -0.2115 -0.6085 -0.0517
 5836TIP3    H138999   1.791   6.564  11.728 -0.6379 -1.7192 -2.7553
 5836TIP3    H239000   1.930   6.624  11.730 -1.3299  0.0004  0.7390
 5837TIP3   OH239001   3.008   0.128   4.174 -0.4063 -0.1181 -0.1170
 5837TIP3    H139002   3.001   0.200   4.112 -3.1861 -1.6698 -1.8357
 5837TIP3    H239003   2.960   0.158   4.251 -0.0046  0.4956 -0.0977
 5838TIP3   OH239004   1.557   5.342   2.296 -0.6093 -0.3518 -1.0897
 5838TIP3    H139005   1.558   5.252   2.328 -0.5455 -0.3470 -1.0779
 5838TIP3    H239006   1.465   5.366   2.295 -0.6723 -0.5966 -1.6007
 5839TIP3   OH239007   2.387   2.089   1.670  0.5894 -0.0610  0.1387
 5839TIP3    H139008   2.442   2.015   1.646 -0.5333 -0.2713 -1.9335
 5839TIP3    H239009   2.449   2.161   1.683  1.4708 -0.6284 -0.7909
 5840TIP3   OH239010   2.186   4.490   3.809 -0.1366 -0.1742 -0.2543
 5840TIP3    H139011   2.247   4.547   3.856  0.5778 -0.6983 -0.5214
 5840TIP3    H239012   2.239   4.414   3.785 -1.1414 -1.0738  0.3283
 5841TIP3   OH239013   2.534   5.811  14.769  0.4595 -0.3176  0.7523
 5841TIP3    H139014   2.617   5.853  14.790 -0.2696  2.1942 -0.9047
 5841TIP3    H239015   2.539   5.794  14.675 -1.8199  2.4962 -0.0310
 5842TIP3   OH239016   4.944   2.433  14.522  0.3181 -0.4263 -0.1265
 5842TIP3    H139017   4.993   2.406  14.600  0.1238 -0.1537  0.0923
 5842TIP3    H239018   5.011   2.455  14.457  0.5059  0.5868  0.3876
 5843TIP3   OH239019   1.367   5.609  16.686 -0.8998  0.2553 -0.0794
 5843TIP3    H139020   1.438   5.636  16.628 -0.4436 -0.5868  0.0732
 5843TIP3    H239021   1.372   5.670  16.760  0.5279 -0.6022  0.5719
 5844TIP3   OH239022   2.135   3.640   2.890 -0.6114 -0.7518 -0.8472
 5844TIP3    H139023   2.084   3.717   2.914 -0.5360  0.4926 -4.2044
 5844TIP3    H239024   2.086   3.566   2.927 -0.8316  0.7644  2.2386
 5845TIP3   OH239025   6.809   2.298  11.009 -0.2405  0.2006 -0.5496
 5845TIP3    H139026   6.889   2.309  10.959  0.0630  1.0408  0.0867
 5845TIP3    H239027   6.760   2.231  10.962 -0.1882  1.2800 -2.2363
 5846TIP3   OH239028   1.307   0.822   4.418  0.1017  0.0493  0.2323
 5846TIP3    H139029   1.337   0.733   4.436 -0.8133  0.0411  1.8550
 5846TIP3    H239030   1.256   0.814   4.337  2.1210 -0.4018 -1.0635
 5847TIP3   OH239031   4.510   5.134   3.299  0.1383 -0.0437 -0.3043
 5847TIP3    H139032   4.564   5.212   3.306  0.1749  0.2064 -2.6162
 5847TIP3    H239033   4.570   5.065   3.271 -0.3295 -0.3320 -0.6135
 5848TIP3   OH239034   1.574   6.607  16.320 -0.2791 -0.0393  0.3235
 5848TIP3    H139035   1.502   6.593  16.382 -0.8181  0.6669 -0.1317
 5848TIP3    H239036   1.652   6.608  16.375 -0.7407  0.5216  0.9949
 5849TIP3   OH239037   5.892   4.772  11.862 -0.5054  0.2016 -0.0855
 5849TIP3    H139038   5.965   4.822  11.898 -0.7412  0.0473  0.6310
 5849TIP3    H239039   5.920   4.681  11.869 -1.5348 -0.0094  2.0668
 5850TIP3   OH239040   5.424   1.209  12.974 -0.1008 -0.4456 -0.3354
 5850TIP3    H139041   5.508   1.189  13.016  0.4289  0.0746 -1.1172
 5850TIP3    H239042   5.376   1.259  13.039  0.3179 -0.4871  0.0087
 5851TIP3   OH239043   1.302   3.083  17.131 -0.0316 -0.3215 -0.1439
 5851TIP3    H139044   1.386   3.122  17.107 -0.8237  0.4470 -1.8419
 5851TIP3    H239045   1.309   2.992  17.102  0.5008 -0.4791  0.4662
 5852TIP3   OH239046   0.533   0.892   1.614  0.5527  0.2681  0.6397
 5852TIP3    H139047   0.606   0.938   1.574  0.0237 -0.4546 -1.2784
 5852TIP3    H239048   0.563   0.801   1.621  0.7341  0.4195  2.2171
 5853TIP3   OH239049   4.499   4.186   4.886  0.1395  0.2161 -0.0398
 5853TIP3    H139050   4.474   4.136   4.809  1.0263  1.3993 -1.1532
 5853TIP3    H239051   4.579   4.144   4.917  1.0842  1.0875 -1.1832
 5854TIP3   OH239052   2.429   3.012  11.615 -0.0014  0.1719 -0.4399
 5854TIP3    H139053   2.517   2.975  11.617  0.0064  0.1992 -0.0665
 5854TIP3    H239054   2.394   2.987  11.530  0.3644  0.1546 -0.5874
 5855TIP3   OH239055   4.408   5.252  14.331 -0.3194  0.1133 -0.3367
 5855TIP3    H139056   4.467   5.327  14.320 -0.5866  0.6126  1.3217
 5855TIP3    H239057   4.459   5.177  14.302  0.2876  0.8115 -1.1376
 5856TIP3   OH239058   2.008   5.783  11.582  0.0291 -0.2784  0.2156
 5856TIP3    H139059   1.970   5.835  11.652 -2.2184 -0.7333 -0.5674
 5856TIP3    H239060   2.054   5.712  11.626 -0.8318 -0.2150  1.2406
 5857TIP3   OH239061   2.345   5.746  10.795  0.8012 -0.5897  0.1383
 5857TIP3    H139062   2.353   5.841  10.802  1.1266 -0.6319  0.3758
 5857TIP3    H239063   2.262   5.725  10.837  0.8402 -0.4346  0.2920
 5858TIP3   OH239064   3.430   3.740   5.218  0.6087  0.4187 -0.9593
 5858TIP3    H139065   3.501   3.677   5.226  1.0358  1.0849  4.1863
 5858TIP3    H239066   3.472   3.825   5.228 -0.6534  0.9015  0.7342
 5859TIP3   OH239067   3.402   6.432   6.392  0.6380  0.1173 -0.6066
 5859TIP3    H139068   3.325   6.486   6.376 -0.0835 -1.3667 -2.5758
 5859TIP3    H239069   3.369   6.360   6.447  1.0196  0.3611 -0.0511
 5860TIP3   OH239070   1.758   5.221  15.448 -0.7563  0.4406  0.0460
 5860TIP3    H139071   1.838   5.171  15.436  1.4025  3.4635  0.6293
 5860TIP3    H239072   1.709   5.172  15.514  1.5187 -0.5592  1.1056
 5861TIP3   OH239073   0.656   4.925   2.425 -0.2522  0.6556  0.1939
 5861TIP3    H139074   0.734   4.969   2.392  0.3424  0.3513  1.1508
 5861TIP3    H239075   0.686   4.836   2.444 -0.9727  0.3783  0.0442
 5862TIP3   OH239076   5.550   2.978   6.056  0.3042  0.1762  0.1809
 5862TIP3    H139077   5.624   3.037   6.064  0.1709  0.4158 -0.3218
 5862TIP3    H239078   5.573   2.918   5.985  0.8604 -1.0176  1.3161
 5863TIP3   OH239079   0.352   0.175  13.256  0.9470 -0.1251  0.3155
 5863TIP3    H139080   0.287   0.197  13.323  0.4612 -1.6827  0.3902
 5863TIP3    H239081   0.424   0.235  13.272 -0.1629  1.1604  0.6856
 5864TIP3   OH239082   5.835   2.918  12.393 -0.2108 -0.0977 -0.3075
 5864TIP3    H139083   5.792   2.864  12.458 -1.3582 -1.4082 -2.0699
 5864TIP3    H239084   5.914   2.870  12.369 -0.4980 -0.3056 -0.8542
 5865TIP3   OH239085   0.741   2.971  13.398 -0.0841 -0.0228  0.4718
 5865TIP3    H139086   0.670   2.979  13.463  0.2827 -3.1171  1.4376
 5865TIP3    H239087   0.810   3.028  13.431 -1.5587  2.0555  0.2063
 5866TIP3   OH239088   2.984   2.912  16.999  0.3302  0.9013 -0.1577
 5866TIP3    H139089   3.038   2.971  17.052 -0.5438  1.5162  0.0754
 5866TIP3    H239090   2.954   2.845  17.060 -1.2887  2.0218  0.3567
 5867TIP3   OH239091   3.220   6.716  12.377 -0.0875  0.1082  0.5664
 5867TIP3    H139092   3.313   6.692  12.385  0.2448  1.1269 -0.0814
 5867TIP3    H239093   3.219   6.785  12.311 -1.4055 -0.4110  0.0087
 5868TIP3   OH239094   2.999   0.743  11.540 -0.7095  1.1490 -0.1589
 5868TIP3    H139095   3.034   0.773  11.456 -0.1569  2.4038  0.4978
 5868TIP3    H239096   2.912   0.710  11.518 -0.4972  1.2745 -1.2602
 5869TIP3   OH239097   2.679   0.374  15.508  0.2710 -0.1080 -0.1253
 5869TIP3    H139098   2.588   0.373  15.538  0.6890  0.0369  1.2239
 5869TIP3    H239099   2.680   0.315  15.433 -1.4520  1.8090 -1.8287
 5870TIP3   OH239100   3.640   0.819  15.031 -0.5311  0.1974 -0.6079
 5870TIP3    H139101   3.652   0.914  15.030 -0.2624  0.1863  0.4749
 5870TIP3    H239102   3.715   0.784  14.983 -0.0352  0.4843 -0.0491
 5871TIP3   OH239103   3.600   3.595  13.079  0.4299  0.2452  0.2066
 5871TIP3    H139104   3.687   3.612  13.042  0.1842  1.3610  0.1099
 5871TIP3    H239105   3.576   3.677  13.123 -0.0950 -0.4299  1.2129
 5872TIP3   OH239106   5.042   3.570   6.263  0.0243 -0.2032  0.3882
 5872TIP3    H139107   5.133   3.594   6.245  0.8380 -1.5510  2.3597
 5872TIP3    H239108   5.032   3.485   6.218 -1.0941  1.0461 -1.8878
 5873TIP3   OH239109   1.968   5.306  14.954  0.2649 -0.6173 -0.0294
 5873TIP3    H139110   1.897   5.299  14.890  0.7941 -0.9336 -0.5960
 5873TIP3    H239111   2.035   5.359  14.910  0.3807 -0.3128  0.5015
 5874TIP3   OH239112   5.584   3.366  11.315  0.1728 -0.1079 -0.1586
 5874TIP3    H139113   5.509   3.425  11.312  0.5083  0.3548  0.3626
 5874TIP3    H239114   5.624   3.373  11.228  1.4830  2.1425  0.5593
 5875TIP3   OH239115   4.484   5.303  15.588 -0.7342 -0.4252 -0.1935
 5875TIP3    H139116   4.505   5.281  15.497 -1.8294 -1.2902 -0.2538
 5875TIP3    H239117   4.520   5.391  15.600 -0.6175 -0.2772 -1.4712
 5876TIP3   OH239118   6.177   0.269  14.418  0.2587  0.0153  0.1045
 5876TIP3    H139119   6.205   0.312  14.337 -0.8003 -1.9502 -1.4165
 5876TIP3    H239120   6.084   0.290  14.425  0.2018 -0.3355  0.4406
 5877TIP3   OH239121   4.541   1.138   4.859 -0.1402  0.0291  0.0056
 5877TIP3    H139122   4.452   1.143   4.826  0.0300 -0.4696 -0.5341
 5877TIP3    H239123   4.570   1.230   4.862 -0.5439  0.1648 -0.1500
 5878TIP3   OH239124   3.807   5.709   5.912  0.2473  0.4568 -0.3762
 5878TIP3    H139125   3.844   5.768   5.977  0.3905  0.1001 -0.1296
 5878TIP3    H239126   3.797   5.626   5.958 -0.5980  0.4683 -0.5271
 5879TIP3   OH239127   3.411   6.264   2.371  0.3256  0.3356 -0.1945
 5879TIP3    H139128   3.372   6.320   2.304 -2.9441 -2.0205 -0.5209
 5879TIP3    H239129   3.445   6.189   2.323  0.6393 -0.0241  0.5787
 5880TIP3   OH239130   4.686   3.658  16.527 -0.1080  0.7984  0.0743
 5880TIP3    H139131   4.778   3.651  16.500 -0.5930 -0.9493 -1.3204
 5880TIP3    H239132   4.637   3.650  16.445 -1.6081 -2.2587  1.1360
 5881TIP3   OH239133   1.022   4.025   6.086 -0.3988  0.2881 -0.2595
 5881TIP3    H139134   1.095   3.964   6.099  0.3692  0.9336 -1.3950
 5881TIP3    H239135   0.977   4.027   6.171  0.9705 -0.0493  0.5072
 5882TIP3   OH239136   5.538   2.529   1.910 -0.7674 -0.6484 -0.1313
 5882TIP3    H139137   5.574   2.509   1.823  0.0657  0.5426 -0.0899
 5882TIP3    H239138   5.605   2.582   1.952 -2.0215  0.5364  0.4572
 5883TIP3   OH239139   2.304   3.710   2.691  0.1482 -0.0336 -0.5594
 5883TIP3    H139140   2.243   3.686   2.760  0.4185  0.8428 -0.0098
 5883TIP3    H239141   2.248   3.742   2.620 -0.1011 -0.4602 -0.5564
 5884TIP3   OH239142   5.496   4.028   1.243 -0.4375 -0.7728  0.2276
 5884TIP3    H139143   5.439   4.087   1.194  0.2395  0.4149  0.8064
 5884TIP3    H239144   5.527   4.081   1.317  0.9488 -1.5499  0.2430
 5885TIP3   OH239145   5.376   1.261   0.744 -0.0155 -0.2954  0.1004
 5885TIP3    H139146   5.307   1.316   0.707  0.8298  0.2438 -0.7294
 5885TIP3    H239147   5.457   1.293   0.703  0.4623 -2.4918 -0.8621
 5886TIP3   OH239148   0.619   0.789  14.492  0.2665 -0.5013 -0.0479
 5886TIP3    H139149   0.575   0.860  14.445  0.8820 -0.6331 -0.8518
 5886TIP3    H239150   0.621   0.818  14.583  2.0326  1.3383 -0.5973
 5887TIP3   OH239151   4.207   4.809  15.458 -0.0220 -0.1160  0.2412
 5887TIP3    H139152   4.268   4.778  15.524  1.0436  0.9225 -0.2147
 5887TIP3    H239153   4.179   4.730  15.412  0.5917 -0.6623  0.7897
 5888TIP3   OH239154   6.232   6.676   5.392  0.1489  0.6541  0.0077
 5888TIP3    H139155   6.212   6.654   5.301 -0.1660  0.5051  0.1102
 5888TIP3    H239156   6.163   6.737   5.418 -0.6089 -0.4181  0.5851
 5889TIP3   OH239157   1.919   4.583   0.951 -0.0185 -0.2603 -0.2368
 5889TIP3    H139158   1.841   4.632   0.928 -0.0143 -0.0093  0.2693
 5889TIP3    H239159   1.990   4.647   0.945 -0.2112  0.2579  1.9756
 5890TIP3   OH239160   1.231   4.526  13.122  0.0055  0.2488 -0.4068
 5890TIP3    H139161   1.162   4.467  13.150 -0.5918  0.3808 -1.5486
 5890TIP3    H239162   1.256   4.494  13.035  2.0859 -0.4101  0.3641
 5891TIP3   OH239163   6.254   2.702   4.257  0.1740 -0.1552 -0.1703
 5891TIP3    H139164   6.163   2.695   4.228 -0.2665  0.1402  1.0406
 5891TIP3    H239165   6.287   2.612   4.256 -0.7186 -0.5323  1.0614
 5892TIP3   OH239166   6.470   6.162   4.824 -0.4683 -0.4034 -0.3303
 5892TIP3    H139167   6.383   6.122   4.831 -0.3673 -0.5478  0.1619
 5892TIP3    H239168   6.531   6.088   4.820 -0.3116 -0.3031  0.1501
 5893TIP3   OH239169   1.737   6.672   5.730 -0.0984 -0.1238 -0.0616
 5893TIP3    H139170   1.737   6.627   5.645 -0.6488 -0.7821  0.2790
 5893TIP3    H239171   1.722   6.602   5.794 -0.3497  0.4625  0.5267
 5894TIP3   OH239172   0.820   3.841   1.383 -0.1420  0.5349 -0.0165
 5894TIP3    H139173   0.813   3.788   1.462  2.3516  0.3363  0.1287
 5894TIP3    H239174   0.823   3.931   1.416  0.6126  0.4672  0.1255
 5895TIP3   OH239175   4.737   4.736  17.097  0.2864 -1.0310  0.0503
 5895TIP3    H139176   4.661   4.742  17.040 -1.2975 -0.4313  2.1062
 5895TIP3    H239177   4.724   4.655  17.146  1.4527 -1.3738 -0.1735
 5896TIP3   OH239178   5.521   4.100   1.633  0.3503  0.5335 -0.0624
 5896TIP3    H139179   5.488   4.108   1.723 -0.8301  0.9317 -0.5163
 5896TIP3    H239180   5.541   4.007   1.623 -1.5799  0.0891 -0.0796
 5897TIP3   OH239181   3.837   3.714  12.478  0.4289 -0.2299 -0.5583
 5897TIP3    H139182   3.844   3.643  12.415  1.4471 -1.0680  0.4591
 5897TIP3    H239183   3.870   3.677  12.560  2.6450  1.8691 -0.3678
 5898TIP3   OH239184   1.572   2.943  11.650 -0.2184 -0.0944 -0.1980
 5898TIP3    H139185   1.571   3.006  11.722  1.2142  1.5051 -1.4910
 5898TIP3    H239186   1.622   2.986  11.581  0.2193 -2.3992 -1.4195
 5899TIP3   OH239187   0.274   5.435   1.101  0.3499  0.3804  0.0280
 5899TIP3    H139188   0.367   5.412   1.108 -0.0134 -1.5976 -0.7347
 5899TIP3    H239189   0.244   5.443   1.191  0.8299 -1.0672  0.3414
 5900TIP3   OH239190   5.034   4.152   5.202  0.4488  0.6769  0.7514
 5900TIP3    H139191   5.072   4.203   5.274  1.9099 -0.0687  0.5594
 5900TIP3    H239192   5.090   4.172   5.127 -1.0404  1.4218 -0.2117
 5901TIP3   OH239193   4.637   6.478  13.170 -0.2190 -0.3366 -0.3324
 5901TIP3    H139194   4.591   6.550  13.128 -2.0364 -0.6497  0.9964
 5901TIP3    H239195   4.621   6.403  13.113 -1.2325 -0.3999  0.0182
 5902TIP3   OH239196   1.937   5.450  15.428  0.0763  0.1443  0.9908
 5902TIP3    H139197   1.878   5.376  15.418  0.9982 -0.6827  1.4377
 5902TIP3    H239198   1.909   5.513  15.362 -0.1033 -1.0146 -0.0611
 5903TIP3   OH239199   2.718   1.355  11.310  0.7476  0.4407 -0.1236
 5903TIP3    H139200   2.715   1.260  11.297  0.8508  0.2036  1.4341
 5903TIP3    H239201   2.786   1.385  11.250 -0.2894 -0.2653 -1.6987
 5904TIP3   OH239202   4.538   3.634   5.556 -0.1912  0.3059  0.4586
 5904TIP3    H139203   4.532   3.689   5.634 -1.4878  0.0256  0.5732
 5904TIP3    H239204   4.492   3.684   5.488  0.4618  0.3017  0.0061
 5905TIP3   OH239205   4.436   1.172   3.374 -0.0358 -0.3102  0.4091
 5905TIP3    H139206   4.466   1.262   3.386  0.1254 -0.4226  0.8440
 5905TIP3    H239207   4.428   1.137   3.462  0.2265 -0.8296  0.2316
 5906TIP3   OH239208   5.868   4.804   0.334  0.0291  0.0425 -0.3212
 5906TIP3    H139209   5.942   4.856   0.365  0.3030 -0.3320 -0.3415
 5906TIP3    H239210   5.898   4.767   0.251 -0.7041  1.0650 -1.0687
 5907TIP3   OH239211   3.858   4.916   3.646  0.0810 -0.5074  0.3231
 5907TIP3    H139212   3.913   4.951   3.716  1.0280 -1.7802  0.2705
 5907TIP3    H239213   3.889   4.826   3.635 -0.5109 -0.5426 -1.2756
 5908TIP3   OH239214   0.305   2.628  15.912 -0.4969  0.0315  0.8355
 5908TIP3    H139215   0.269   2.679  15.985  2.5769  1.3690  1.6185
 5908TIP3    H239216   0.277   2.675  15.833 -0.7331  0.8005  1.3694
 5909TIP3   OH239217   1.887   4.150   4.503  0.5462 -0.3607  0.6236
 5909TIP3    H139218   1.861   4.234   4.465  2.9129  0.2010  0.0804
 5909TIP3    H239219   1.935   4.106   4.432  0.9863 -1.3374  1.5021
 5910TIP3   OH239220   0.393   2.224  11.659 -0.0823  0.0581  0.2334
 5910TIP3    H139221   0.478   2.228  11.703  0.1133 -1.6630  0.0877
 5910TIP3    H239222   0.398   2.145  11.604 -1.4218  0.4636 -0.5225
 5911TIP3   OH239223   1.850   6.807  14.623 -0.8287 -0.5725  0.2821
 5911TIP3    H139224   1.773   6.816  14.567 -0.1369 -0.7213 -0.7257
 5911TIP3    H239225   1.820   6.755  14.698 -1.4663 -1.4560 -0.5675
 5912TIP3   OH239226   3.584   5.433  17.139 -0.0567 -0.0063  0.3224
 5912TIP3    H139227   3.584   5.418  17.234  0.0277 -0.0511  0.3165
 5912TIP3    H239228   3.655   5.497  17.126 -1.4308  1.6383  0.5460
 5913TIP3   OH239229   4.025   6.067   3.872 -0.1256  0.3544 -0.5523
 5913TIP3    H139230   3.993   6.074   3.782  1.1493  0.1007 -1.0463
 5913TIP3    H239231   4.045   6.157   3.897  1.0194  0.2698 -1.1106
 5914TIP3   OH239232   6.107   6.737  16.870 -0.2927  0.4515  0.1898
 5914TIP3    H139233   6.029   6.732  16.925 -0.1586  0.2259  0.3626
 5914TIP3    H239234   6.111   6.828  16.842 -2.3173 -0.1135 -2.3228
 5915TIP3   OH239235   6.021   1.305   3.004 -0.3355  0.5810 -0.1029
 5915TIP3    H139236   5.985   1.236   3.059  0.2003  1.6491  1.6821
 5915TIP3    H239237   6.104   1.270   2.973  0.2827  0.6379  1.3817
 5916TIP3   OH239238   1.080   6.835  13.541  0.0755 -0.1359 -0.4673
 5916TIP3    H139239   1.086   6.826  13.446 -0.5548 -0.3548 -0.4875
 5916TIP3    H239240   1.158   6.885  13.565 -0.2716  0.8000 -1.2144
 5917TIP3   OH239241   2.673   1.305   3.842  0.6082  0.3415  0.1876
 5917TIP3    H139242   2.608   1.360   3.798  1.5735  1.0416 -0.4199
 5917TIP3    H239243   2.666   1.329   3.934  0.0530  0.4590  0.1218
 5918TIP3   OH239244   0.579   1.718   3.394 -0.6199  0.1093  0.1010
 5918TIP3    H139245   0.596   1.810   3.413 -2.7087  0.5166  0.1284
 5918TIP3    H239246   0.491   1.701   3.427 -0.9243 -1.4817 -1.3620
 5919TIP3   OH239247   5.898   5.618   2.636 -0.1169  0.1185 -0.6664
 5919TIP3    H139248   5.955   5.630   2.712 -0.3736 -0.2164 -0.4227
 5919TIP3    H239249   5.868   5.528   2.642 -0.9523  0.3970 -0.6047
 5920TIP3   OH239250   2.249   4.977  11.485  0.2392 -0.0284 -0.3460
 5920TIP3    H139251   2.195   4.951  11.410  1.1880 -0.9123 -0.7448
 5920TIP3    H239252   2.263   5.071  11.472  0.2786 -0.1451 -1.1987
 5921TIP3   OH239253   2.717   1.762  14.215 -0.6091 -0.4138  0.5104
 5921TIP3    H139254   2.702   1.720  14.131 -0.9072 -0.1885  0.4517
 5921TIP3    H239255   2.812   1.753  14.229 -0.3231  0.7914 -0.5153
 5922TIP3   OH239256   1.885   3.344   0.020  0.2024  0.1962  0.4945
 5922TIP3    H139257   1.793   3.343  -0.009  0.2483  0.9728  0.2966
 5922TIP3    H239258   1.935   3.336  -0.061  0.3150 -0.7274  0.6455
 5923TIP3   OH239259   0.195   1.891  13.647  0.3522  1.1687  0.3380
 5923TIP3    H139260   0.192   1.957  13.717 -3.2354  1.5295  0.0045
 5923TIP3    H239261   0.125   1.916  13.587  2.4285  0.1044 -2.7839
 5924TIP3   OH239262   0.854   3.894  14.339 -0.0764 -0.3648 -0.0168
 5924TIP3    H139263   0.791   3.860  14.275  0.0465 -2.5438  0.9222
 5924TIP3    H239264   0.876   3.981  14.307 -1.6336 -0.5452 -1.7557
 5925TIP3   OH239265   3.519   6.756   2.202 -0.4781 -0.9518 -0.2223
 5925TIP3    H139266   3.600   6.713   2.229 -0.0743 -0.4904 -0.6664
 5925TIP3    H239267   3.547   6.843   2.172 -1.1783 -0.6649 -0.0706
 5926TIP3   OH239268   0.658   0.677   2.926 -0.0733 -0.3506 -0.1040
 5926TIP3    H139269   0.721   0.617   2.964 -2.1409 -0.4924  3.5925
 5926TIP3    H239270   0.668   0.758   2.976  0.7308  1.5552 -3.0850
 5927TIP3   OH239271   3.395   2.036   2.434  0.1804 -0.2250  0.1557
 5927TIP3    H139272   3.338   2.004   2.364 -0.2213  1.2447 -0.2086
 5927TIP3    H239273   3.354   2.116   2.465  0.5535 -0.6503  1.8475
 5928TIP3   OH239274   5.173   5.832  14.768 -0.0772 -0.4084  0.3092
 5928TIP3    H139275   5.263   5.818  14.738 -0.0335 -0.8644  0.6340
 5928TIP3    H239276   5.174   5.919  14.807  1.1247 -1.6325  3.4025
 5929TIP3   OH239277   2.081   6.200   0.901 -0.0247  0.2076  0.3723
 5929TIP3    H139278   2.142   6.221   0.831  0.0000 -0.5835  0.1471
 5929TIP3    H239279   2.101   6.263   0.970  0.3198  0.6383 -0.1209
 5930TIP3   OH239280   2.273   4.309   2.602 -0.2229 -0.1783  0.1729
 5930TIP3    H139281   2.211   4.379   2.619  0.3367  0.4234 -0.2380
 5930TIP3    H239282   2.358   4.352   2.596  0.2876 -1.0218  1.0104
 5931TIP3   OH239283   4.449   4.317   2.145  0.3724  0.5713  0.3321
 5931TIP3    H139284   4.501   4.353   2.217  1.3209 -0.5328  0.2227
 5931TIP3    H239285   4.358   4.327   2.174  0.7107  0.8720  1.3309
 5932TIP3   OH239286   2.739   0.229  17.064 -0.0704  0.6592  0.2546
 5932TIP3    H139287   2.686   0.199  16.990  0.2144 -1.7012  0.9375
 5932TIP3    H239288   2.827   0.198  17.044  0.1485  0.6135  1.2391
 5933TIP3   OH239289   4.656   3.898  15.740  0.5580  0.1350  0.3636
 5933TIP3    H139290   4.688   3.987  15.725  0.8682  0.1996  1.3198
 5933TIP3    H239291   4.569   3.910  15.778 -0.5675 -0.0366 -1.9510
 5934TIP3   OH239292   2.846   1.647   5.896 -0.3656  0.0528  0.4754
 5934TIP3    H139293   2.822   1.702   5.971  0.3504  0.5964  0.3240
 5934TIP3    H239294   2.836   1.557   5.927  0.1195  0.2734  1.2918
 5935TIP3   OH239295   6.274   4.546   4.516 -0.1479 -0.2488  0.2940
 5935TIP3    H139296   6.360   4.574   4.486 -0.4413 -1.4218 -1.8503
 5935TIP3    H239297   6.213   4.576   4.448 -1.4723  0.5310  1.7486
 5936TIP3   OH239298   3.318   1.902   5.873 -0.1987  0.1424  0.0903
 5936TIP3    H139299   3.409   1.873   5.876  0.0633  0.6154 -1.8755
 5936TIP3    H239300   3.271   1.828   5.834 -0.9406 -0.6085  2.2445
 5937TIP3   OH239301   3.982   6.154   3.608  0.3408  0.4077  0.4415
 5937TIP3    H139302   3.901   6.199   3.632 -0.1392 -0.7931  1.2291
 5937TIP3    H239303   4.051   6.216   3.629 -0.2021  0.2869  2.8878
 5938TIP3   OH239304   4.735   2.230  10.119 -0.8620 -0.4371  0.3252
 5938TIP3    H139305   4.800   2.173  10.161 -0.0494  0.0940 -0.1810
 5938TIP3    H239306   4.756   2.318  10.152 -1.2114 -0.2361  0.0205
 5939TIP3   OH239307   2.216   3.653   3.265 -0.6631 -0.5842 -0.7351
 5939TIP3    H139308   2.182   3.681   3.349 -0.0470  2.1604 -1.2981
 5939TIP3    H239309   2.309   3.639   3.280 -1.1102 -3.5490 -0.2404
 5940TIP3   OH239310   6.230   0.420  12.773  0.0281 -0.1141 -0.5065
 5940TIP3    H139311   6.192   0.340  12.735 -0.4681 -0.0695 -0.1073
 5940TIP3    H239312   6.166   0.449  12.838 -0.4257  1.3479 -1.5653
 5941TIP3   OH239313   0.261   2.687   2.728  0.3924  0.1314  0.3598
 5941TIP3    H139314   0.168   2.675   2.712  0.6045  0.4768 -1.3628
 5941TIP3    H239315   0.286   2.759   2.671  1.7917 -0.2175  0.4931
 5942TIP3   OH239316   4.590   0.362  12.753  0.2273  0.1046 -0.3375
 5942TIP3    H139317   4.644   0.410  12.816  0.2201 -0.0901 -0.1832
 5942TIP3    H239318   4.600   0.271  12.778  0.1389  0.0363 -0.5548
 5943TIP3   OH239319   1.764   0.904  12.684 -0.0103  0.6699 -0.5108
 5943TIP3    H139320   1.707   0.963  12.636 -2.1835 -1.5922 -0.8962
 5943TIP3    H239321   1.787   0.836  12.621  0.6463 -0.0594  0.4737
 5944TIP3   OH239322   4.515   6.692   4.374  0.5271  0.0276 -0.1752
 5944TIP3    H139323   4.504   6.599   4.395  1.2374 -0.1635 -0.6260
 5944TIP3    H239324   4.566   6.727   4.446  2.4972 -0.5115 -1.2504
 5945TIP3   OH239325   2.892   3.274   2.442  0.0451  0.1971  0.2775
 5945TIP3    H139326   2.899   3.367   2.419  0.6971 -0.0724 -0.6927
 5945TIP3    H239327   2.936   3.267   2.527  1.9777  0.4291 -0.6553
 5946TIP3   OH239328   6.658   3.719   5.385  0.6581 -0.3555 -0.2342
 5946TIP3    H139329   6.679   3.701   5.294 -1.0484 -1.3363 -0.4802
 5946TIP3    H239330   6.634   3.811   5.387  1.2759 -0.1847 -0.6608
 5947TIP3   OH239331   2.408   5.381  16.595  0.2365  0.5720  0.2186
 5947TIP3    H139332   2.409   5.437  16.517 -0.1664 -0.0558 -0.2415
 5947TIP3    H239333   2.498   5.349  16.603  0.0453 -0.2036 -0.6111
 5948TIP3   OH239334   2.119   2.499   2.355  0.4559  0.0939  0.8762
 5948TIP3    H139335   2.125   2.414   2.312 -1.7137  0.7668 -0.9475
 5948TIP3    H239336   2.036   2.497   2.403 -0.5011  1.6849 -0.5762
 5949TIP3   OH239337   5.402   1.051   4.662  0.0867 -0.4693 -0.1363
 5949TIP3    H139338   5.323   1.065   4.609 -1.4104 -2.7992  1.3037
 5949TIP3    H239339   5.420   0.958   4.653  2.1049 -0.1811  0.4352
 5950TIP3   OH239340   5.894   0.521   6.182 -0.6068  0.2341  0.0225
 5950TIP3    H139341   5.888   0.596   6.124 -0.7129  0.3577  0.1922
 5950TIP3    H239342   5.965   0.468   6.146 -0.0621  0.7664  0.3096
 5951TIP3   OH239343   2.917   5.488   5.704 -0.1136 -0.6388  0.1000
 5951TIP3    H139344   2.980   5.524   5.641 -0.1722  0.2341  0.5247
 5951TIP3    H239345   2.863   5.429   5.652  1.3835 -1.8391 -0.1635
 5952TIP3   OH239346   4.551   1.501   0.377  0.0564  0.0930  0.0614
 5952TIP3    H139347   4.627   1.443   0.378  0.0639  0.0606  2.1345
 5952TIP3    H239348   4.549   1.539   0.465 -2.8347 -0.5552  0.3689
 5953TIP3   OH239349   4.676   4.687   2.845 -0.7611 -0.4770  0.2883
 5953TIP3    H139350   4.723   4.626   2.903 -0.2021 -1.1345 -0.8171
 5953TIP3    H239351   4.632   4.631   2.782 -1.4017  0.2267  0.0980
 5954TIP3   OH239352   4.010   0.005   4.345  0.1420  0.4376  0.0910
 5954TIP3    H139353   3.994  -0.036   4.260 -1.6778  2.5193 -0.6683
 5954TIP3    H239354   3.950  -0.040   4.405 -0.8014  0.9965 -0.4172
 5955TIP3   OH239355   0.625   5.137  10.916  0.2306 -0.3652  0.4686
 5955TIP3    H139356   0.659   5.053  10.885  1.8019 -0.1654  1.5164
 5955TIP3    H239357   0.702   5.182  10.950 -0.5725  1.5255 -0.1040
 5956TIP3   OH239358   6.751   1.052  16.004  0.3344 -0.5414 -0.2926
 5956TIP3    H139359   6.778   1.107  16.078 -0.4354  0.0865 -0.4655
 5956TIP3    H239360   6.742   0.964  16.040  1.2048 -0.4861  0.0740
 5957TIP3   OH239361   3.480   0.605   6.128  0.3319  0.0169  0.1949
 5957TIP3    H139362   3.522   0.690   6.113 -1.2953  0.8567  0.1287
 5957TIP3    H239363   3.533   0.564   6.196  1.9797  0.4491 -0.7649
 5958TIP3   OH239364   3.745   3.970  13.558  0.2815 -0.6435 -0.1201
 5958TIP3    H139365   3.784   4.007  13.479 -0.3512 -1.6953 -0.9628
 5958TIP3    H239366   3.803   3.998  13.629  0.8013  0.4221 -0.9329
 5959TIP3   OH239367   4.574   1.396   2.091 -0.0055 -0.5319  0.4385
 5959TIP3    H139368   4.595   1.459   2.022 -0.8073 -0.2495  0.4415
 5959TIP3    H239369   4.482   1.414   2.112  0.1399 -0.8392  1.3500
 5960TIP3   OH239370   0.419   4.395   0.701 -0.4236 -0.5696 -0.2333
 5960TIP3    H139371   0.477   4.371   0.773  2.3349  1.9067 -1.4049
 5960TIP3    H239372   0.344   4.436   0.744 -0.0967 -1.5053  1.2914
 5961TIP3   OH239373   3.330   0.446   0.818 -0.6414  0.4438  0.4047
 5961TIP3    H139374   3.299   0.536   0.811 -1.4022  0.2526  1.1499
 5961TIP3    H239375   3.260   0.400   0.864 -0.4578 -0.6332 -0.3529
 5962TIP3   OH239376   5.479   2.242  14.912 -0.5709 -0.6343  0.2844
 5962TIP3    H139377   5.509   2.309  14.974 -1.3312  0.7933 -0.8470
 5962TIP3    H239378   5.384   2.241  14.922 -0.7572  0.0415 -1.2661
 5963TIP3   OH239379   2.467   6.176   1.888  0.4223 -0.2393 -0.3696
 5963TIP3    H139380   2.484   6.134   1.804  1.5609  0.8238 -0.7045
 5963TIP3    H239381   2.457   6.269   1.867  2.0885  0.2535  0.7953
 5964TIP3   OH239382   5.297   5.776  15.081  0.1469 -0.0846  0.0952
 5964TIP3    H139383   5.205   5.751  15.096  0.2678 -0.2916  0.4870
 5964TIP3    H239384   5.302   5.867  15.109  0.2647 -0.3337  0.9084
 5965TIP3   OH239385   2.242   5.837   3.792  0.2632  0.1636  0.8099
 5965TIP3    H139386   2.206   5.921   3.821 -0.7882  0.0640 -0.1308
 5965TIP3    H239387   2.200   5.773   3.849  2.8786  0.3838  3.1801
 5966TIP3   OH239388   1.672   1.046  10.693  0.2663  0.0948  0.2903
 5966TIP3    H139389   1.705   1.111  10.631  1.1512 -0.1384  0.4971
 5966TIP3    H239390   1.592   1.013  10.653  0.2649  0.7000 -0.2194
 5967TIP3   OH239391   1.096   2.512  13.491 -0.0880  0.4751 -0.2168
 5967TIP3    H139392   1.046   2.452  13.547  0.6474  0.9518  0.9956
 5967TIP3    H239393   1.167   2.459  13.456  0.4417  0.5664  0.6894
 5968TIP3   OH239394   4.665   6.432  11.512 -0.7507  0.6465 -0.5067
 5968TIP3    H139395   4.603   6.504  11.525 -2.4379 -0.2635 -2.8026
 5968TIP3    H239396   4.627   6.380  11.441  1.7122 -1.0814 -0.6931
 5969TIP3   OH239397   5.322   2.816  15.332  0.0651 -0.1815 -0.0112
 5969TIP3    H139398   5.231   2.809  15.302 -0.5378  1.0291  1.4386
 5969TIP3    H239399   5.358   2.728  15.318 -1.2115 -0.6040 -0.9016
 5970TIP3   OH239400   5.832   3.210  12.553  0.1826 -0.3189 -0.0360
 5970TIP3    H139401   5.811   3.153  12.479 -0.4525 -2.6181  1.7580
 5970TIP3    H239402   5.898   3.161  12.602  1.5450  1.7271  0.2712
 5971TIP3   OH239403   4.261   2.471   4.472  0.5699  0.0405 -0.1123
 5971TIP3    H139404   4.283   2.537   4.538  0.0612 -0.8832  1.0151
 5971TIP3    H239405   4.179   2.432   4.503 -0.1730  0.1921 -1.7719
 5972TIP3   OH239406   2.145   2.694  16.239 -0.5226 -0.1799 -0.7733
 5972TIP3    H139407   2.112   2.606  16.257 -1.7562  0.0298 -1.8783
 5972TIP3    H239408   2.240   2.684  16.238 -0.6160 -1.2924  0.1056
 5973TIP3   OH239409   1.577   6.203   0.053 -0.2324 -0.1909 -0.3824
 5973TIP3    H139410   1.487   6.235   0.061 -0.4999 -0.5348 -1.7682
 5973TIP3    H239411   1.630   6.268   0.101 -1.3038 -0.6336  1.5175
 5974TIP3   OH239412   2.075   6.460  11.950  0.0560 -0.1308  0.3970
 5974TIP3    H139413   2.045   6.518  12.020  0.7037  0.7512 -0.0333
 5974TIP3    H239414   2.026   6.490  11.873 -0.5088 -0.9695  0.4202
 5975TIP3   OH239415   0.633   2.096  14.089 -0.3688 -0.2091  0.1992
 5975TIP3    H139416   0.711   2.071  14.139 -0.7147  1.2693  1.5551
 5975TIP3    H239417   0.650   2.063  14.001  1.5488 -0.4058  0.5916
 5976TIP3   OH239418   3.534   0.944   3.230  0.3161  0.4088  0.2478
 5976TIP3    H139419   3.574   0.901   3.305  1.6178  0.7867 -0.1906
 5976TIP3    H239420   3.560   1.036   3.239 -3.2346  1.4240  1.7192
 5977TIP3   OH239421   5.169   6.136  11.888  0.0742 -0.1005 -0.1803
 5977TIP3    H139422   5.109   6.069  11.919  1.3655 -0.9978  0.4516
 5977TIP3    H239423   5.239   6.139  11.954  1.7349 -0.4777 -1.8320
 5978TIP3   OH239424   1.310   4.904   6.427 -0.4807 -0.3818 -0.1135
 5978TIP3    H139425   1.258   4.894   6.507 -0.0345 -1.4663  0.0535
 5978TIP3    H239426   1.400   4.888   6.455 -0.0761  1.0322 -0.4905
 5979TIP3   OH239427   5.717   2.604   4.486 -0.0282 -0.0316 -0.3718
 5979TIP3    H139428   5.729   2.561   4.401  2.2925 -0.8492  0.2981
 5979TIP3    H239429   5.713   2.532   4.549  1.0647  0.6253  0.4837
 5980TIP3   OH239430   3.066   1.526   0.436 -0.6072 -0.2001 -0.1676
 5980TIP3    H139431   3.041   1.560   0.522 -3.0643  0.3578 -1.0228
 5980TIP3    H239432   2.983   1.495   0.398 -0.2231  2.4311 -3.5803
 5981TIP3   OH239433   1.576   1.854  10.740 -0.3886 -0.3949 -0.5313
 5981TIP3    H139434   1.615   1.916  10.678 -2.1385  0.3844 -0.9153
 5981TIP3    H239435   1.530   1.791  10.685  0.0348 -1.1281 -0.0755
 5982TIP3   OH239436   0.024   6.334   4.727 -0.2753  0.4359  0.2044
 5982TIP3    H139437   0.015   6.420   4.687 -0.4453  1.0964  1.6056
 5982TIP3    H239438  -0.025   6.275   4.670 -3.1176  1.8492  0.9857
 5983TIP3   OH239439   2.039   2.186   4.178 -0.1887  0.0879  0.2321
 5983TIP3    H139440   2.024   2.122   4.109  1.6880 -0.5125  0.3076
 5983TIP3    H239441   2.069   2.133   4.252  0.8761  0.9901  0.4622
 5984TIP3   OH239442   1.778   3.207  12.339 -0.2094  0.1354 -0.2922
 5984TIP3    H139443   1.807   3.287  12.382  2.0603 -0.5654 -0.3612
 5984TIP3    H239444   1.818   3.210  12.252  2.0210 -2.1051  0.5306
 5985TIP3   OH239445   4.705   4.589  15.258  0.1540  0.1219 -0.1266
 5985TIP3    H139446   4.762   4.517  15.231  2.8539  2.5965 -1.5631
 5985TIP3    H239447   4.640   4.596  15.188 -0.0270 -0.7831 -0.0599
 5986TIP3   OH239448   4.642   0.196   4.474  0.3375 -0.1576  0.7326
 5986TIP3    H139449   4.727   0.178   4.434  0.1941  1.6268 -0.4649
 5986TIP3    H239450   4.592   0.242   4.407 -1.3996 -0.6555  1.6068
 5987TIP3   OH239451   2.247   1.768   0.662  0.2580 -0.1067  0.3942
 5987TIP3    H139452   2.288   1.852   0.680 -1.6040  0.4669  2.2504
 5987TIP3    H239453   2.313   1.720   0.610  1.5447  2.2539 -0.2755
 5988TIP3   OH239454   6.391   1.953   5.594  0.1190 -0.7172  0.0710
 5988TIP3    H139455   6.487   1.958   5.595  0.0965  0.7406  2.3953
 5988TIP3    H239456   6.365   2.010   5.522  0.9621 -1.8220 -1.1693
 5989TIP3   OH239457   5.529   1.279   4.705  0.0174  0.2696 -0.0633
 5989TIP3    H139458   5.528   1.264   4.800 -0.4783  1.0491  0.0728
 5989TIP3    H239459   5.490   1.200   4.668  1.5944 -0.6915  0.2580
 5990TIP3   OH239460   5.208   3.891  13.222 -0.0433  0.1398  0.0832
 5990TIP3    H139461   5.155   3.948  13.279  1.7337  2.8807 -0.8007
 5990TIP3    H239462   5.176   3.907  13.134 -0.3878 -1.3256 -0.0880
 5991TIP3   OH239463   6.437   1.490  11.128 -0.2735 -0.1347 -0.3663
 5991TIP3    H139464   6.452   1.530  11.214  0.9271 -0.9177 -0.1879
 5991TIP3    H239465   6.394   1.406  11.148  0.3218 -0.4734 -0.5011
 5992TIP3   OH239466   1.825   4.349   5.321 -0.3224 -0.2507 -0.5410
 5992TIP3    H139467   1.827   4.337   5.416  2.2951  0.2336 -0.4651
 5992TIP3    H239468   1.768   4.424   5.307 -1.7623 -1.1046  0.5151
 5993TIP3   OH239469   6.718   1.610   4.801  0.1754 -0.1162  0.3130
 5993TIP3    H139470   6.778   1.680   4.829 -1.7918  1.9373 -0.3163
 5993TIP3    H239471   6.683   1.575   4.883 -0.5527  1.3023  0.6540
 5994TIP3   OH239472   1.995   4.574   1.567 -0.1325  0.2535  0.4790
 5994TIP3    H139473   2.063   4.506   1.563  0.5361  0.8792  0.8848
 5994TIP3    H239474   1.973   4.580   1.660 -0.2815  0.5034  0.4288
 5995TIP3   OH239475   3.262   6.264  15.716 -0.1561 -0.5504  0.0199
 5995TIP3    H139476   3.178   6.309  15.715 -0.0294 -0.2564  1.1295
 5995TIP3    H239477   3.323   6.325  15.677 -0.5606 -1.0190 -1.4032
 5996TIP3   OH239478   5.245   5.127   1.200 -0.5723 -0.1593  0.6335
 5996TIP3    H139479   5.163   5.098   1.241 -1.5648 -0.2172 -1.2961
 5996TIP3    H239480   5.240   5.223   1.203 -2.0571 -0.0806 -1.8574
 5997TIP3   OH239481   0.393   0.083  17.021 -0.8120 -0.5684  0.3300
 5997TIP3    H139482   0.416   0.115  16.934 -4.4562 -1.8448 -1.2741
 5997TIP3    H239483   0.392   0.162  17.075  0.5842  0.3919 -0.9386
 5998TIP3   OH239484   3.194   6.698   4.899  0.1094 -0.4341 -0.7773
 5998TIP3    H139485   3.245   6.777   4.881 -1.3541  0.7563  0.0498
 5998TIP3    H239486   3.214   6.640   4.825  2.6632 -0.0836 -0.4631
 5999TIP3   OH239487   0.431   5.728   5.415  0.0894  0.5782 -0.3761
 5999TIP3    H139488   0.352   5.673   5.415  0.2672  0.3210 -0.2803
 5999TIP3    H239489   0.437   5.760   5.325  1.4364 -1.6771 -1.1654
 6000TIP3   OH239490   2.109   5.887   2.347 -0.3671  0.0705  0.0501
 6000TIP3    H139491   2.086   5.807   2.395 -2.1914 -0.0271 -0.8996
 6000TIP3    H239492   2.027   5.935   2.340  0.0237  0.4998 -2.2049
 6001TIP3   OH239493   1.882   3.453   5.309  0.2274 -0.6036  0.4256
 6001TIP3    H139494   1.903   3.505   5.231 -2.2378 -0.0384  0.0486
 6001TIP3    H239495   1.912   3.508   5.382  0.6816 -0.1936 -0.0513
 6002TIP3   OH239496   4.610   1.272  15.806 -0.2845 -0.0986  0.1714
 6002TIP3    H139497   4.525   1.252  15.769 -1.1504  0.5543  1.7207
 6002TIP3    H239498   4.609   1.232  15.893 -0.2619  2.4494  1.4672
 6003TIP3   OH239499   6.624   1.628  16.972 -0.5929 -1.0397  0.1187
 6003TIP3    H139500   6.535   1.649  16.943  0.4049 -1.5670 -3.8753
 6003TIP3    H239501   6.661   1.713  16.998 -0.7431  0.1488 -3.1251
 6004TIP3   OH239502   2.488   2.938   0.984 -0.1931 -0.9244  0.2832
 6004TIP3    H139503   2.484   2.850   0.946 -1.5556 -0.2802 -1.1089
 6004TIP3    H239504   2.432   2.933   1.061 -1.2508 -0.9648 -0.4752
 6005TIP3   OH239505   4.646   6.309   5.508 -0.4316 -0.4223  0.3857
 6005TIP3    H139506   4.558   6.300   5.472 -0.3234  0.2457 -0.0395
 6005TIP3    H239507   4.634   6.297   5.602 -0.9941 -0.2331  0.3419
 6006TIP3   OH239508   2.419   1.733  12.247  0.2628  0.1478  0.1708
 6006TIP3    H139509   2.449   1.665  12.187 -0.0803 -0.2731  0.4617
 6006TIP3    H239510   2.484   1.803  12.240  1.3647 -0.7674  0.8469
 6007TIP3   OH239511   1.150   4.509   1.868  0.1540  0.4860  0.3707
 6007TIP3    H139512   1.057   4.518   1.891 -0.0521 -1.0336  0.2818
 6007TIP3    H239513   1.196   4.560   1.933 -0.7331  1.1062  0.5382
 6008TIP3   OH239514   3.559   4.153   1.648  0.1474 -0.4670  0.5764
 6008TIP3    H139515   3.533   4.079   1.702 -1.6507  0.4474  1.0495
 6008TIP3    H239516   3.477   4.189   1.614  1.0793  0.3174 -0.9975
 6009TIP3   OH239517   6.844   3.450  11.366 -0.1812 -0.1965  0.0827
 6009TIP3    H139518   6.850   3.540  11.335 -0.1089 -0.4227 -0.5902
 6009TIP3    H239519   6.903   3.401  11.308  1.9963 -0.2514  2.1776
 6010TIP3   OH239520   1.770   3.765  11.446  0.2791 -0.0566  0.1210
 6010TIP3    H139521   1.676   3.755  11.429 -0.2137  3.1123  0.3874
 6010TIP3    H239522   1.783   3.723  11.532 -0.1770 -3.1533 -1.1885
 6011TIP3   OH239523   3.555   1.373   3.224  0.0246  0.8272  0.2661
 6011TIP3    H139524   3.473   1.338   3.259 -1.5601  2.8441 -1.2082
 6011TIP3    H239525   3.533   1.461   3.194  2.7014  1.3592 -0.4031
 6012TIP3   OH239526   4.026   1.866  16.071 -0.2797  0.2612  0.5632
 6012TIP3    H139527   4.039   1.796  16.135 -1.2982  0.6617  1.2331
 6012TIP3    H239528   3.989   1.821  15.995 -3.0474  0.2982  1.7730
 6013TIP3   OH239529   1.492   4.333  15.565  0.3364  0.3155  0.3711
 6013TIP3    H139530   1.505   4.246  15.602  0.8764  0.0381 -0.4570
 6013TIP3    H239531   1.408   4.328  15.520  0.3830  0.2179  0.2964
 6014TIP3   OH239532   1.001   2.410  13.179  0.0247 -0.2285  0.0501
 6014TIP3    H139533   0.941   2.348  13.219  0.2340 -0.3487  0.1761
 6014TIP3    H239534   0.950   2.451  13.109  0.0068 -0.8237 -0.2879
 6015TIP3   OH239535   1.103   4.728   4.740 -0.0071 -0.1347 -0.3289
 6015TIP3    H139536   1.016   4.696   4.763  0.2952 -0.3125  0.6284
 6015TIP3    H239537   1.163   4.666   4.782  0.5762  0.2988 -0.5101
 6016TIP3   OH239538   1.400   3.358   2.743 -0.4059  0.2532 -0.3226
 6016TIP3    H139539   1.411   3.445   2.704  0.0170  0.1122 -0.5302
 6016TIP3    H239540   1.485   3.316   2.730 -0.3238  0.1249  0.5619
 6017TIP3   OH239541   5.409   3.675  12.325 -0.1128  0.1840  1.1724
 6017TIP3    H139542   5.419   3.586  12.293 -0.2759  0.2124  1.0372
 6017TIP3    H239543   5.498   3.707  12.337 -0.0578 -0.1147  1.5516
 6018TIP3   OH239544   2.135   3.550  15.258 -0.6474  0.3275  0.0818
 6018TIP3    H139545   2.109   3.492  15.187 -0.3862 -0.8912  0.9336
 6018TIP3    H239546   2.218   3.588  15.229  0.0619 -1.0539  0.1575
 6019TIP3   OH239547   6.466   3.505   4.296  0.5386 -0.1564  0.2878
 6019TIP3    H139548   6.435   3.479   4.209  0.2680 -1.5738  0.7872
 6019TIP3    H239549   6.512   3.428   4.330  1.5518  0.7273  1.0001
 6020TIP3   OH239550   0.381   2.961  16.301 -0.8952 -0.2258  0.3275
 6020TIP3    H139551   0.380   2.919  16.215  0.1888 -1.6097  0.9477
 6020TIP3    H239552   0.298   3.008  16.306 -1.0518 -0.2411 -1.4007
 6021TIP3   OH239553   4.290   4.956   2.728  0.4833 -0.4791 -0.4354
 6021TIP3    H139554   4.329   5.007   2.658 -0.6618 -0.6128 -1.1992
 6021TIP3    H239555   4.300   4.865   2.701  0.6510 -0.5674 -0.0886
 6022TIP3   OH239556   5.952   0.390   5.221 -0.2312 -0.2854  0.0031
 6022TIP3    H139557   5.984   0.475   5.191  1.5105 -1.1641 -0.7490
 6022TIP3    H239558   5.995   0.326   5.164 -0.8100 -1.7368  1.1129
 6023TIP3   OH239559   1.348   3.603   5.733  0.6776 -0.3337  0.2936
 6023TIP3    H139560   1.315   3.668   5.795 -2.0720 -1.5443  0.2368
 6023TIP3    H239561   1.383   3.533   5.788 -2.2789 -1.6715  0.6583
 6024TIP3   OH239562   3.739   1.309  15.197 -0.1733  0.1139  0.0673
 6024TIP3    H139563   3.688   1.285  15.274 -0.6797  0.4526 -0.1594
 6024TIP3    H239564   3.829   1.312  15.229 -0.3796  0.2746  0.6580
 6025TIP3   OH239565   1.105   6.717  11.778  0.5605 -0.0175 -0.3957
 6025TIP3    H139566   1.168   6.750  11.714  0.2473 -0.4265 -0.9300
 6025TIP3    H239567   1.022   6.759  11.753  0.2759 -0.7716 -0.7465
 6026TIP3   OH239568   3.930   4.526  12.675  0.3248 -0.5410  0.1475
 6026TIP3    H139569   4.000   4.521  12.610 -1.1802 -2.1874 -1.4480
 6026TIP3    H239570   3.930   4.617  12.703  1.4240  0.0827 -1.7143
 6027TIP3   OH239571   4.891   2.296  12.472 -0.0392  0.0136 -0.1967
 6027TIP3    H139572   4.806   2.290  12.516  0.2449  0.5291  0.4278
 6027TIP3    H239573   4.878   2.251  12.389 -0.4418 -1.4078  0.6118
 6028TIP3   OH239574   6.302   1.374   2.729 -0.8042 -0.1037  0.0969
 6028TIP3    H139575   6.329   1.325   2.652  0.3650 -0.1420  0.5212
 6028TIP3    H239576   6.279   1.307   2.794 -1.7744 -0.0717 -0.1929
 6029TIP3   OH239577   4.519   4.419  13.029 -0.1903 -0.6939 -0.5089
 6029TIP3    H139578   4.452   4.350  13.018  0.2484 -1.2072 -0.0220
 6029TIP3    H239579   4.506   4.451  13.118 -1.5390  1.1087 -1.2909
 6030TIP3   OH239580   1.730   1.920   1.585  0.6404 -0.5678 -0.3222
 6030TIP3    H139581   1.664   1.850   1.581  0.3065 -0.3292  0.7076
 6030TIP3    H239582   1.704   1.981   1.516 -0.6513 -0.1228  0.5292
 6031TIP3   OH239583   0.248   6.142   5.741 -0.0598  0.1591  0.6845
 6031TIP3    H139584   0.309   6.069   5.732  0.5070  0.4728  1.8293
 6031TIP3    H239585   0.303   6.219   5.752 -0.6451  0.8598 -0.9711
 6032TIP3   OH239586   3.098   6.351  14.082  0.1470  0.2158 -0.0743
 6032TIP3    H139587   3.005   6.335  14.099 -0.0466  2.1978  1.0449
 6032TIP3    H239588   3.140   6.268  14.103 -1.3202 -0.6297 -0.2934
 6033TIP3   OH239589   3.929   5.773  15.474  0.3996 -0.2896 -0.2422
 6033TIP3    H139590   3.840   5.798  15.498 -0.4914  0.4502 -3.7528
 6033TIP3    H239591   3.966   5.735  15.553 -2.4270  0.9652  1.8304
 6034TIP3   OH239592   2.804   2.073   3.530  0.0506 -0.0243  0.3298
 6034TIP3    H139593   2.711   2.079   3.505  0.2333  0.2706 -0.3072
 6034TIP3    H239594   2.825   2.160   3.563  0.2761  0.1066 -0.1576
 6035TIP3   OH239595   2.484   1.596   0.252 -0.2968 -0.3457 -0.1533
 6035TIP3    H139596   2.400   1.633   0.277  0.9256  1.7478  1.1477
 6035TIP3    H239597   2.499   1.628   0.163 -0.9382 -0.8721 -0.4557
 6036TIP3   OH239598   5.404   6.227  13.494 -0.1346 -0.0962 -0.6351
 6036TIP3    H139599   5.365   6.191  13.574 -1.6825  2.6901 -0.0058
 6036TIP3    H239600   5.498   6.222  13.508 -0.3429  1.8423  2.2193
 6037TIP3   OH239601   3.153   0.327  14.203 -0.2087  0.0302  0.1396
 6037TIP3    H139602   3.113   0.387  14.266 -1.5364 -0.6371 -0.0276
 6037TIP3    H239603   3.218   0.279  14.255  0.0781  0.8314  0.5335
 6038TIP3   OH239604   4.069   2.809  13.394  0.8127  0.1796  0.1620
 6038TIP3    H139605   4.120   2.826  13.315  1.7073  2.7815  1.1649
 6038TIP3    H239606   3.996   2.755  13.365  2.4502 -1.0841 -1.9198
 6039TIP3   OH239607   1.987   2.341  14.557 -0.1253 -0.0746 -0.0527
 6039TIP3    H139608   2.072   2.355  14.515 -0.6603  0.1312 -1.0894
 6039TIP3    H239609   2.005   2.277  14.626  0.5439 -1.3478 -1.3715
 6040TIP3   OH239610   3.992   5.004  13.362 -0.3207  0.0207 -0.2248
 6040TIP3    H139611   4.031   4.994  13.449  0.0256 -1.1800 -0.4926
 6040TIP3    H239612   3.908   4.957  13.368 -0.0706 -0.5004 -0.6631
 6041TIP3   OH239613   5.231   3.713  12.113 -0.8977 -0.6703  0.4720
 6041TIP3    H139614   5.306   3.723  12.171 -0.3879  0.7926 -0.3715
 6041TIP3    H239615   5.215   3.619  12.109  1.2192 -1.0484  0.2411
 6042TIP3   OH239616   3.822   4.339  12.242 -0.6149 -0.4054  0.1372
 6042TIP3    H139617   3.828   4.427  12.278 -0.0141  0.0542 -1.0201
 6042TIP3    H239618   3.842   4.281  12.315 -0.6296  0.4288  0.8170
 6043TIP3   OH239619   2.682   6.519   1.092 -0.0881  0.2587  0.2251
 6043TIP3    H139620   2.693   6.492   1.001  0.7475 -0.0603  0.4101
 6043TIP3    H239621   2.689   6.437   1.142 -0.4930  0.4368  0.5781
 6044TIP3   OH239622   1.845   4.901  15.620 -0.2747  0.0318 -0.9225
 6044TIP3    H139623   1.915   4.955  15.582  1.9807 -0.6072  1.9842
 6044TIP3    H239624   1.848   4.820  15.569  0.5402  0.3266 -1.3763
 6045TIP3   OH239625   6.581   5.132   1.319 -0.0387 -0.3003  0.2745
 6045TIP3    H139626   6.517   5.161   1.253 -2.1049 -2.0589  1.3752
 6045TIP3    H239627   6.661   5.180   1.297 -1.4814  1.4268 -1.6704
 6046TIP3   OH239628   1.447   4.960   0.089 -0.3229  0.0853 -0.5407
 6046TIP3    H139629   1.468   4.889   0.028  1.6985 -0.7299  0.9938
 6046TIP3    H239630   1.526   5.015   0.089 -0.5884  0.4879  0.7328
 6047TIP3   OH239631   0.311   0.749   2.300 -0.6674  0.2587  0.4035
 6047TIP3    H139632   0.371   0.802   2.247 -0.3013 -0.1324  0.4192
 6047TIP3    H239633   0.333   0.658   2.277 -1.2287  0.1090  0.4408
 6048TIP3   OH239634   1.973   5.728   6.785  0.1131 -0.4181 -0.1306
 6048TIP3    H139635   2.032   5.733   6.861  1.5073 -4.8192 -0.6632
 6048TIP3    H239636   2.018   5.777   6.717  0.6147  0.5461  0.8500
 6049TIP3   OH239637   4.691   2.814  16.622  0.7164  0.1398  0.1326
 6049TIP3    H139638   4.643   2.763  16.688 -1.4730 -0.4819 -1.8101
 6049TIP3    H239639   4.679   2.765  16.541  0.4516  2.5688 -1.3837
 6050TIP3   OH239640   1.015   0.624   0.973 -0.3286  0.2620  0.1025
 6050TIP3    H139641   1.073   0.656   0.905  0.5080  0.6360  0.9618
 6050TIP3    H239642   0.980   0.704   1.015 -0.2668  0.0463  0.5737
 6051TIP3   OH239643   2.224   5.931   4.436 -0.4082  0.0366 -0.1836
 6051TIP3    H139644   2.144   5.964   4.396 -0.1587  0.4969 -0.3182
 6051TIP3    H239645   2.196   5.862   4.495 -1.0416  1.1664  0.8577
 6052TIP3   OH239646   1.640   2.877  14.177  0.3499  0.1265  0.3969
 6052TIP3    H139647   1.688   2.862  14.258  0.9314 -2.8627 -0.3749
 6052TIP3    H239648   1.708   2.885  14.109 -0.1618 -1.2171 -0.3010
 6053TIP3   OH239649   5.515   4.691  14.129  0.0735  0.1999  0.0426
 6053TIP3    H139650   5.479   4.702  14.217  0.7379 -2.3875  0.7189
 6053TIP3    H239651   5.444   4.651  14.078  0.2510  0.0634 -0.0992
 6054TIP3   OH239652   3.761   4.815  11.819  0.1465 -0.0674 -0.3253
 6054TIP3    H139653   3.667   4.821  11.836  0.0092 -0.5076 -0.8968
 6054TIP3    H239654   3.796   4.898  11.850 -0.4002  0.0126  0.0999
 6055TIP3   OH239655   3.990   1.697  13.760 -0.1086 -0.0572 -0.2018
 6055TIP3    H139656   4.055   1.721  13.826  1.4651  0.7958 -1.9824
 6055TIP3    H239657   4.022   1.614  13.724  0.2806  0.5908 -1.3972
 6056TIP3   OH239658   5.061   0.020   3.394  0.1346  0.2974  0.4513
 6056TIP3    H139659   5.101  -0.002   3.478  1.7009 -2.0211 -0.7696
 6056TIP3    H239660   4.991  -0.044   3.383 -0.0702  0.5872  0.0009
 6057TIP3   OH239661   2.564   6.122  14.062 -0.0848  0.3242 -0.5393
 6057TIP3    H139662   2.593   6.063  14.132 -1.0173  0.2334 -0.2153
 6057TIP3    H239663   2.643   6.140  14.011  0.3676 -0.5530 -0.1571
 6058TIP3   OH239664   2.871   6.716   1.494  0.0088  0.0535 -0.0840
 6058TIP3    H139665   2.921   6.786   1.536 -0.6135  0.3928  0.1053
 6058TIP3    H239666   2.785   6.754   1.478 -0.9853 -1.2508  1.7662
 6059TIP3   OH239667   1.606   6.346   3.821 -0.2075 -0.1561  0.0716
 6059TIP3    H139668   1.653   6.267   3.847  0.6726 -0.1342 -1.3742
 6059TIP3    H239669   1.673   6.412   3.811 -0.8378  0.5340  0.3010
 6060TIP3   OH239670   3.616   5.983  13.939 -0.1250 -0.4273 -0.4152
 6060TIP3    H139671   3.564   6.062  13.924 -0.2093 -0.6261 -1.2105
 6060TIP3    H239672   3.580   5.945  14.019  0.4884  0.8009  0.4720
 6061TIP3   OH239673   6.504   5.551  14.008 -0.6300 -1.0412  0.5036
 6061TIP3    H139674   6.543   5.508  13.932 -0.5976  0.2003 -0.2058
 6061TIP3    H239675   6.469   5.479  14.060  0.2135 -1.9877 -0.1890
 6062TIP3   OH239676   0.016   6.577   4.535 -0.1766  0.0432 -0.2010
 6062TIP3    H139677   0.052   6.641   4.596 -2.3382 -0.1200  1.3927
 6062TIP3    H239678   0.088   6.555   4.477  2.1709 -0.0679  2.5364
 6063TIP3   OH239679   0.091   3.557  15.800 -0.4520 -0.2930  0.0496
 6063TIP3    H139680   0.031   3.618  15.842 -0.4901 -0.1770 -0.1689
 6063TIP3    H239681   0.037   3.511  15.735  0.2205  1.6962 -2.0676
 6064TIP3   OH239682   4.037   5.081  15.112 -1.0242  0.3531  0.3784
 6064TIP3    H139683   4.097   5.146  15.148 -0.4978  1.3654 -2.1166
 6064TIP3    H239684   4.085   4.999  15.117  0.6093  1.1200 -1.4327
 6065TIP3   OH239685   6.850   1.506  11.067  0.2040  0.5832 -0.1413
 6065TIP3    H139686   6.847   1.580  11.006  0.2811  0.5876 -0.1389
 6065TIP3    H239687   6.941   1.478  11.066  0.6190  1.7492  1.3784
 6066TIP3   OH239688   0.555   1.579  11.761 -0.1035  0.4364 -0.3552
 6066TIP3    H139689   0.486   1.573  11.695 -0.5893 -0.9121  0.2417
 6066TIP3    H239690   0.510   1.566  11.844  0.6742  0.9659  0.1630
 6067TIP3   OH239691   6.183   5.653  12.780  0.9777  0.0370 -0.0919
 6067TIP3    H139692   6.199   5.563  12.751  1.7129  0.2270 -0.2920
 6067TIP3    H239693   6.144   5.696  12.704 -1.1781 -0.5881  0.5864
 6068TIP3   OH239694   5.696   0.459  12.957 -0.3216 -0.4168 -0.1368
 6068TIP3    H139695   5.717   0.416  13.040  0.0690  2.9440  1.6773
 6068TIP3    H239696   5.605   0.434  12.940 -0.4421 -1.1356  1.3475
 6069TIP3   OH239697   1.813   6.251   4.215  0.5360  0.0829 -0.2300
 6069TIP3    H139698   1.823   6.311   4.141  0.0606 -0.0858 -0.4378
 6069TIP3    H239699   1.879   6.279   4.278  1.0644  0.1166 -0.7944
 6070TIP3   OH239700   3.796   0.150   3.280 -0.3411  0.5477  0.0514
 6070TIP3    H139701   3.782   0.062   3.316  1.0418  0.4733  0.4764
 6070TIP3    H239702   3.805   0.135   3.186  0.8593  0.0888  0.2247
 6071TIP3   OH239703   1.576   0.751   0.843 -0.1324 -0.0106  0.2459
 6071TIP3    H139704   1.671   0.756   0.828 -0.2088  0.0422 -0.2173
 6071TIP3    H239705   1.559   0.821   0.907  0.2626 -0.5527  0.9556
 6072TIP3   OH239706   2.330   3.135   1.560  0.1525 -0.4626  0.0182
 6072TIP3    H139707   2.334   3.137   1.465  1.1618 -1.0281  0.0317
 6072TIP3    H239708   2.384   3.060   1.585 -0.2991 -0.4751  1.0279
 6073TIP3   OH239709   3.381   3.759  10.942 -0.0883 -0.4603 -0.7403
 6073TIP3    H139710   3.412   3.827  10.882  1.9816 -0.2715  0.4442
 6073TIP3    H239711   3.461   3.721  10.979 -1.1121  1.1405  3.8070
 6074TIP3   OH239712   6.512   2.813  13.640  0.6612 -0.0257 -0.2716
 6074TIP3    H139713   6.573   2.754  13.683  0.7859 -0.4862 -1.0603
 6074TIP3    H239714   6.426   2.790  13.675  0.9425  0.8216  1.0671
 6075TIP3   OH239715   2.267   4.953  14.415 -0.2030 -0.2937  0.5760
 6075TIP3    H139716   2.325   4.993  14.350  0.2203  1.7097  2.0765
 6075TIP3    H239717   2.324   4.938  14.491 -1.1694 -0.3143  1.3193
 6076TIP3   OH239718   5.974   1.420  16.487  0.4049 -0.1305 -0.3631
 6076TIP3    H139719   6.022   1.391  16.565 -0.9790 -1.8489 -0.0799
 6076TIP3    H239720   5.971   1.343  16.430 -1.2253  0.1551 -0.7297
 6077TIP3   OH239721   6.491   1.704   5.993  0.1729  0.0916  0.1862
 6077TIP3    H139722   6.410   1.670   5.955  0.5274  0.2129 -0.7052
 6077TIP3    H239723   6.467   1.729   6.083 -0.1098 -2.4202  0.8728
 6078TIP3   OH239724   0.022   0.235  13.690  0.5814  0.1604 -0.0260
 6078TIP3    H139725  -0.001   0.311  13.743 -0.4119  1.0438 -1.6287
 6078TIP3    H239726  -0.059   0.214  13.643  1.6902  0.1660 -2.0496
 6079TIP3   OH239727   4.658   0.488   5.400  0.1833 -0.0293 -0.3041
 6079TIP3    H139728   4.717   0.489   5.475  0.6636 -1.3682 -0.6401
 6079TIP3    H239729   4.666   0.576   5.362  1.9433 -0.1651 -0.3231
 6080TIP3   OH239730   5.551   3.740  10.966 -0.2662  0.2411  0.0817
 6080TIP3    H139731   5.626   3.781  10.923 -1.2714  1.9683 -0.0955
 6080TIP3    H239732   5.509   3.690  10.897  0.5294 -0.4954  0.1103
 6081TIP3   OH239733   2.081   1.570  13.203  0.2961  0.2882 -0.2987
 6081TIP3    H139734   1.996   1.561  13.246 -0.3615 -0.4461 -1.6703
 6081TIP3    H239735   2.079   1.658  13.165  0.7248  0.7922  0.8190
 6082TIP3   OH239736   3.428   2.528   0.026 -0.3541 -0.0659 -0.0729
 6082TIP3    H139737   3.489   2.574  -0.031 -1.5769 -1.0856 -2.3534
 6082TIP3    H239738   3.429   2.578   0.108  0.4970  2.2602 -1.4049
 6083TIP3   OH239739   3.977   2.778  13.705  0.6273  0.0049 -0.0199
 6083TIP3    H139740   4.003   2.870  13.700  0.4144  0.1060  0.6255
 6083TIP3    H239741   3.904   2.770  13.643  0.7306  0.2373 -0.1739
 6084TIP3   OH239742   1.435   2.024   0.528  0.1585  0.1275  0.1572
 6084TIP3    H139743   1.529   2.036   0.536  0.3472  1.4721 -2.7511
 6084TIP3    H239744   1.423   1.977   0.446 -1.7344  0.8536 -0.0521
 6085TIP3   OH239745   0.386   2.609   5.690  0.3650 -0.1265  0.0642
 6085TIP3    H139746   0.429   2.544   5.635 -3.2362 -1.0807 -1.9637
 6085TIP3    H239747   0.408   2.693   5.650  0.3618 -0.5722 -0.9028
 6086TIP3   OH239748   5.155   0.194  10.937 -0.0225  0.5870  0.0978
 6086TIP3    H139749   5.249   0.213  10.944  0.2702 -1.0927  1.4466
 6086TIP3    H239750   5.145   0.155  10.850  1.0541 -1.6374  0.9076
 6087TIP3   OH239751   1.236   2.791   5.168 -0.7124  0.3682  0.0874
 6087TIP3    H139752   1.295   2.735   5.118 -2.2241 -0.3892 -0.9420
 6087TIP3    H239753   1.258   2.774   5.260  1.8800  1.5046 -0.2282
 6088TIP3   OH239754   1.299   6.505  10.774 -0.1262 -0.0491  0.2284
 6088TIP3    H139755   1.263   6.416  10.778  0.9107 -0.4462  1.8615
 6088TIP3    H239756   1.358   6.504  10.699 -1.9830  0.0557 -1.3161
 6089TIP3   OH239757   4.966   6.262   1.166 -0.5943 -0.2081 -0.4784
 6089TIP3    H139758   5.024   6.234   1.238 -0.9154 -0.2186 -0.2228
 6089TIP3    H239759   4.897   6.312   1.209 -1.1575 -0.7838 -0.7076
 6090TIP3   OH239760   4.211   5.455   5.717  0.0886  0.4132 -0.3029
 6090TIP3    H139761   4.282   5.519   5.707  0.2133  0.2205 -0.6227
 6090TIP3    H239762   4.236   5.381   5.662  0.2833 -0.2138  0.6056
 6091TIP3   OH239763   6.001   3.141   4.628  0.2908 -0.3495 -0.2276
 6091TIP3    H139764   6.071   3.167   4.688  1.3825 -0.1626 -1.5399
 6091TIP3    H239765   5.983   3.050   4.651  1.5480 -0.6574 -0.3861
 6092TIP3   OH239766   2.080   2.847   2.042 -0.0293  0.2619  0.0040
 6092TIP3    H139767   2.062   2.833   1.949  1.0238  2.6431 -0.6384
 6092TIP3    H239768   2.009   2.903   2.072 -0.6438 -0.8977  0.8213
 6093TIP3   OH239769   0.964   3.056   3.190  0.5016 -0.3366  0.2170
 6093TIP3    H139770   1.046   3.092   3.155  0.6023 -0.4605  0.3233
 6093TIP3    H239771   0.913   3.133   3.215 -1.3871  0.0859 -4.0411
 6094TIP3   OH239772   0.947   2.459  17.088 -0.1670  0.0274 -0.2806
 6094TIP3    H139773   1.012   2.443  17.020 -0.9464  1.3702 -1.3836
 6094TIP3    H239774   0.991   2.432  17.169  1.2756 -0.3398 -1.1384
 6095TIP3   OH239775   0.590   0.614   3.392 -0.0051 -0.2035 -0.1306
 6095TIP3    H139776   0.512   0.651   3.350  0.0017 -1.3310 -1.2044
 6095TIP3    H239777   0.611   0.675   3.462 -3.6225 -1.3611  2.2320
 6096TIP3   OH239778   0.499   3.833  13.381  0.6407  0.5867 -0.6056
 6096TIP3    H139779   0.527   3.745  13.354  2.3726  0.9222 -0.0420
 6096TIP3    H239780   0.524   3.839  13.473  1.4421  1.9780 -0.8704
 6097TIP3   OH239781   1.409   3.718   5.480  0.4327 -0.4372  0.0738
 6097TIP3    H139782   1.491   3.683   5.446  1.3112  2.2032 -0.7756
 6097TIP3    H239783   1.403   3.683   5.569  2.1343 -1.2325 -0.0883
 6098TIP3   OH239784   4.058   2.453  12.117  0.2354 -0.2890 -0.0212
 6098TIP3    H139785   4.031   2.423  12.204  0.6950  2.2097  1.0642
 6098TIP3    H239786   4.145   2.415  12.105 -0.6059 -2.2699 -0.3149
 6099TIP3   OH239787   2.272   1.508  15.923  0.6437  0.3863  0.4582
 6099TIP3    H139788   2.323   1.552  15.856  1.0855 -1.2224 -0.3044
 6099TIP3    H239789   2.192   1.480  15.878  0.5992 -0.0428  0.7963
 6100TIP3   OH239790   3.090   5.961   4.005  0.1271  0.5397  0.2423
 6100TIP3    H139791   3.183   5.942   3.988 -0.0290  1.1016 -1.3934
 6100TIP3    H239792   3.043   5.897   3.953 -0.4107  0.7821  0.4275
 6101TIP3   OH239793   2.946   6.695  12.923 -0.4265  0.6128 -0.0761
 6101TIP3    H139794   2.999   6.633  12.872  0.4700  0.0471  1.4785
 6101TIP3    H239795   2.976   6.781  12.895 -0.5459  0.3455 -1.0918
 6102TIP3   OH239796   3.606   6.366  15.954  0.2340  0.2856 -0.7457
 6102TIP3    H139797   3.676   6.372  15.889 -0.2832  2.4012 -1.2048
 6102TIP3    H239798   3.579   6.274  15.953  1.3437 -0.0586 -2.3311
 6103TIP3   OH239799   1.084   2.820  12.315 -0.1601 -0.0773 -0.1066
 6103TIP3    H139800   1.018   2.768  12.361 -0.2659 -0.5932 -0.8118
 6103TIP3    H239801   1.066   2.910  12.341 -1.3575 -0.1732 -0.5241
 6104TIP3   OH239802   2.170   1.681  11.476 -0.1633  0.4714  0.0335
 6104TIP3    H139803   2.264   1.699  11.471  0.0022 -0.1871  0.5762
 6104TIP3    H239804   2.164   1.590  11.506 -0.9773  0.1964 -0.9023
 6105TIP3   OH239805   1.563   1.703  10.484 -0.1234 -0.0060 -0.4490
 6105TIP3    H139806   1.520   1.626  10.448 -2.4240 -0.2760  2.5046
 6105TIP3    H239807   1.635   1.668  10.536  0.1836  0.0363 -0.8373
 6106TIP3   OH239808   4.070   1.385   1.132  0.1823  0.1605  0.1466
 6106TIP3    H139809   3.978   1.407   1.122 -0.0259 -0.8458 -0.4128
 6106TIP3    H239810   4.069   1.294   1.163  0.9691 -0.2235 -0.8840
 6107TIP3   OH239811   2.478   1.394   5.034  0.1314 -0.4906 -0.1954
 6107TIP3    H139812   2.406   1.423   4.978 -1.1131 -1.8653  0.6136
 6107TIP3    H239813   2.505   1.310   4.995  0.9179 -0.2543 -0.1615
 6108TIP3   OH239814   2.966   4.485  11.723 -0.1986 -0.0876 -0.2889
 6108TIP3    H139815   2.872   4.479  11.739 -0.0715 -0.6094  0.3646
 6108TIP3    H239816   2.978   4.563  11.669 -0.8612  0.8331  0.8556
 6109TIP3   OH239817   4.748   6.130  12.292  0.3731  0.3183 -0.6893
 6109TIP3    H139818   4.726   6.039  12.272 -0.5280  0.3008  0.2396
 6109TIP3    H239819   4.757   6.172  12.207 -0.8422 -0.2790 -1.1407
 6110TIP3   OH239820   0.297   2.195  16.430 -0.1493  0.6525  0.3934
 6110TIP3    H139821   0.219   2.213  16.377 -0.0543 -0.2290 -0.0665
 6110TIP3    H239822   0.286   2.250  16.507 -1.8980 -0.4159  0.9755
 6111TIP3   OH239823   4.915   0.315  16.692  0.4135  0.1554 -0.5550
 6111TIP3    H139824   4.953   0.241  16.644  0.5465  0.2749 -0.6343
 6111TIP3    H239825   4.824   0.318  16.663  0.4881  0.2161 -0.7891
 6112TIP3   OH239826   2.825   5.104  12.856 -0.2683 -0.2096 -0.7693
 6112TIP3    H139827   2.894   5.162  12.887 -0.9926 -0.1054  0.7306
 6112TIP3    H239828   2.850   5.018  12.890 -0.4139 -0.3410 -0.9952
 6113TIP3   OH239829   1.613   0.813  11.088  0.0919  0.6697 -0.0697
 6113TIP3    H139830   1.606   0.779  11.000  2.8696 -0.0691 -0.0799
 6113TIP3    H239831   1.524   0.808  11.123 -0.9063  0.2150 -2.5002
 6114TIP3   OH239832   6.698   1.132   4.330  0.1834 -0.1275  0.4327
 6114TIP3    H139833   6.609   1.117   4.299  0.5874  1.9505 -2.0045
 6114TIP3    H239834   6.748   1.059   4.293 -0.2325 -0.4949  0.5787
 6115TIP3   OH239835   0.902   0.870   1.459  0.5260 -0.1173  0.1282
 6115TIP3    H139836   0.884   0.868   1.553  0.2234 -1.2939  0.0538
 6115TIP3    H239837   0.846   0.942   1.426 -0.5050 -0.6645  0.6283
 6116TIP3   OH239838   3.086   4.949  13.142 -0.5824 -0.4884  0.0317
 6116TIP3    H139839   3.159   4.893  13.168  0.8759  0.5748 -1.5568
 6116TIP3    H239840   3.098   5.029  13.192 -1.5466 -0.8575  0.8720
 6117TIP3   OH239841   5.517   5.289   6.581  0.9372  0.3730 -0.0075
 6117TIP3    H139842   5.577   5.249   6.518  0.3934  0.1017 -0.3623
 6117TIP3    H239843   5.551   5.378   6.592  1.1872  0.3454 -0.4971
 6118TIP3   OH239844   4.604   0.490   6.215  0.3051 -0.0845 -0.3810
 6118TIP3    H139845   4.541   0.561   6.208  0.9644  0.5589  0.0064
 6118TIP3    H239846   4.561   0.414   6.176  0.0509  0.8169 -1.8908
 6119TIP3   OH239847   2.434   5.069  13.644  0.7482  0.1769 -0.3484
 6119TIP3    H139848   2.421   5.097  13.735  0.4053 -0.8529 -0.0688
 6119TIP3    H239849   2.354   5.095  13.599  1.8058  2.7371 -0.9122
 6120TIP3   OH239850   6.273   0.084  12.842  0.2755 -0.1359 -0.4265
 6120TIP3    H139851   6.321   0.087  12.759 -0.2316  0.2440 -0.7142
 6120TIP3    H239852   6.340   0.094  12.910  0.8059 -1.3772 -0.7537
 6121TIP3   OH239853   1.389   2.720   2.469  0.0329  0.2012 -0.3473
 6121TIP3    H139854   1.479   2.752   2.478 -0.0974  0.4423  0.1542
 6121TIP3    H239855   1.363   2.745   2.381  0.6604 -0.3896 -0.7072
 6122TIP3   OH239856   2.320   2.592   3.816 -0.1823  0.7468  0.5332
 6122TIP3    H139857   2.242   2.636   3.850  0.0905  1.9000 -0.2721
 6122TIP3    H239858   2.287   2.534   3.748 -0.4080  0.7026  0.6783
 6123TIP3   OH239859   6.027   1.689   5.267 -0.1867 -0.0982  0.1471
 6123TIP3    H139860   6.093   1.709   5.201 -1.5675 -1.1828 -1.6704
 6123TIP3    H239861   5.948   1.734   5.236 -0.9791 -0.9954  0.8053
 6124TIP3   OH239862   3.867   3.631  11.064  0.4677  0.3539  0.3962
 6124TIP3    H139863   3.862   3.632  10.969  1.6320 -2.5081  0.2175
 6124TIP3    H239864   3.945   3.683  11.084  0.3506  0.7715 -0.2182
 6125TIP3   OH239865   0.185   4.640   4.035 -0.2721 -0.3811 -0.3338
 6125TIP3    H139866   0.143   4.564   3.995 -0.4758  0.1658 -1.1747
 6125TIP3    H239867   0.269   4.607   4.066  0.1107 -0.7040 -1.6608
 6126TIP3   OH239868   2.326   6.387  14.011  0.1127  0.0002 -0.0353
 6126TIP3    H139869   2.356   6.454  13.951 -2.5715  0.9672 -0.4311
 6126TIP3    H239870   2.293   6.317  13.955  1.2964 -0.9341  0.3793
 6127TIP3   OH239871   5.113   4.412   2.971 -0.2622 -0.0483 -0.3182
 6127TIP3    H139872   5.082   4.502   2.966  2.1009  0.8517  0.0284
 6127TIP3    H239873   5.208   4.418   2.963  0.2248 -2.2462  2.2111
 6128TIP3   OH239874   4.596   3.605  14.964 -0.3751  0.4085  0.5183
 6128TIP3    H139875   4.526   3.549  14.997 -0.1571 -0.4116 -0.3635
 6128TIP3    H239876   4.676   3.557  14.986 -0.1403  0.8624  0.6479
 6129TIP3   OH239877   3.421   4.646   0.357 -0.5091  0.2864 -0.2462
 6129TIP3    H139878   3.448   4.608   0.441  1.3019  0.9999 -0.4629
 6129TIP3    H239879   3.463   4.590   0.291 -1.7878 -0.1730 -0.6924
 6130TIP3   OH239880   5.124   0.301  14.313  0.2023  0.2599  0.1465
 6130TIP3    H139881   5.165   0.268  14.394 -1.1949 -0.8970  0.4188
 6130TIP3    H239882   5.177   0.262  14.243  0.0429 -0.6359  0.5015
 6131TIP3   OH239883   3.702   2.858  15.238  0.3317 -0.0470  0.3857
 6131TIP3    H139884   3.624   2.817  15.275  0.0380 -0.6129 -0.8213
 6131TIP3    H239885   3.774   2.801  15.263  0.4858  0.8032  2.0404
 6132TIP3   OH239886   5.429   5.964  10.303  0.3504 -0.3665  0.3850
 6132TIP3    H139887   5.430   6.053  10.267  1.9219 -0.9082 -1.0467
 6132TIP3    H239888   5.337   5.946  10.319 -0.0591  1.2840  0.0800
 6133TIP3   OH239889   3.797   1.556  13.535  0.4115 -0.2647 -0.4207
 6133TIP3    H139890   3.872   1.513  13.577 -0.1741 -0.9922 -0.0771
 6133TIP3    H239891   3.730   1.559  13.604 -0.6807 -1.7514 -1.3489
 6134TIP3   OH239892   6.603   1.110  10.820  0.1082 -0.1691 -1.0071
 6134TIP3    H139893   6.584   1.020  10.794  2.6843 -1.1429  0.1147
 6134TIP3    H239894   6.636   1.152  10.740  0.3078 -0.6695 -1.1909
 6135TIP3   OH239895   6.228   2.474  12.394 -0.3522  0.3524 -0.0197
 6135TIP3    H139896   6.178   2.539  12.444 -1.1922 -2.0485  2.4649
 6135TIP3    H239897   6.295   2.444  12.454  2.0782  1.0543 -2.1923
 6136TIP3   OH239898   4.788   0.166   1.306 -0.0814  0.4147 -0.9140
 6136TIP3    H139899   4.813   0.250   1.268  0.9860  0.2159 -0.6716
 6136TIP3    H239900   4.869   0.130   1.343 -0.7428 -0.2033 -0.0013
 6137TIP3   OH239901   3.679   6.013   5.965  0.1329  0.6153 -0.7514
 6137TIP3    H139902   3.719   5.942   5.914  0.6690  1.0542 -0.9440
 6137TIP3    H239903   3.704   5.994   6.055  2.5456  1.9705 -1.0409
 6138TIP3   OH239904   0.925   5.160   3.049 -0.2517  0.2578 -0.2940
 6138TIP3    H139905   0.926   5.222   3.123 -2.1459  1.5132 -1.2299
 6138TIP3    H239906   0.883   5.082   3.084  1.1120 -0.1049  0.5955
 6139TIP3   OH239907   6.610   6.544   4.145 -0.1464  0.2234 -0.5427
 6139TIP3    H139908   6.685   6.511   4.097 -0.4054 -0.8716 -0.2099
 6139TIP3    H239909   6.642   6.623   4.190  0.8375 -0.3209 -0.2816
 6140TIP3   OH239910   6.209   0.993  13.310  0.3972  0.1076 -0.5501
 6140TIP3    H139911   6.155   1.021  13.236  0.4683 -0.4488 -0.8252
 6140TIP3    H239912   6.297   0.988  13.274  0.5474  0.5207 -0.2368
 6141TIP3   OH239913   0.690   0.928   0.606 -0.3018 -0.0166  0.0077
 6141TIP3    H139914   0.704   0.976   0.687  0.1852  0.5200 -0.3914
 6141TIP3    H239915   0.640   0.988   0.550 -0.2219 -0.2008 -0.2658
 6142TIP3   OH239916   0.812   5.389  15.234  0.2638  0.4692 -0.0687
 6142TIP3    H139917   0.745   5.330  15.268  0.2676  0.8063  0.5435
 6142TIP3    H239918   0.787   5.475  15.267  1.0396  0.5886  0.2386
 6143TIP3   OH239919   5.073   3.020  14.655 -0.0976  0.0748 -0.6637
 6143TIP3    H139920   4.978   3.020  14.648 -0.3569 -0.7351  1.7935
 6143TIP3    H239921   5.095   2.930  14.681  1.1762  0.6105  0.2070
 6144TIP3   OH239922   5.831   0.688   0.233 -0.2812 -0.7927  0.2304
 6144TIP3    H139923   5.871   0.762   0.187  1.1414 -2.0219 -0.6062
 6144TIP3    H239924   5.737   0.707   0.232  0.1224  1.5625  1.1007
 6145TIP3   OH239925   1.299   4.860   4.580 -0.1969  0.2967 -0.6387
 6145TIP3    H139926   1.244   4.822   4.648  1.1015 -1.2853 -0.4250
 6145TIP3    H239927   1.292   4.955   4.594 -0.2979  0.0244  1.4219
 6146TIP3   OH239928   1.759   1.254  12.391 -0.0340  0.3342 -0.4584
 6146TIP3    H139929   1.734   1.341  12.360 -1.0901 -0.6186 -2.4773
 6146TIP3    H239930   1.842   1.267  12.436  1.1866  2.0252 -2.9991
 6147TIP3   OH239931   1.136   6.490   0.847  0.0789  0.3101  0.0882
 6147TIP3    H139932   1.156   6.573   0.804 -1.9351  0.3434 -0.9183
 6147TIP3    H239933   1.167   6.500   0.937  1.9993  1.2421 -0.6445
 6148TIP3   OH239934   2.445   5.897  13.868 -0.1593  0.3019 -0.2125
 6148TIP3    H139935   2.430   5.944  13.950 -0.0525 -0.0832  0.0289
 6148TIP3    H239936   2.517   5.837  13.888  1.9043  2.2294 -1.3867
 6149TIP3   OH239937   3.824   3.199  11.949 -0.1300 -0.1764 -0.3816
 6149TIP3    H139938   3.783   3.155  12.024  0.8851 -0.8996 -0.2256
 6149TIP3    H239939   3.909   3.156  11.940  0.1383  0.5321 -1.3838
 6150TIP3   OH239940   5.988   4.904   4.937  0.0244 -0.1549 -0.2149
 6150TIP3    H139941   5.983   4.998   4.951  2.2214 -0.0021 -0.1608
 6150TIP3    H239942   5.898   4.873   4.951 -1.0995  2.1063 -1.8863
 6151TIP3   OH239943   0.193   4.382  10.576 -0.4483  0.7581  0.6191
 6151TIP3    H139944   0.177   4.406  10.484  0.9984  1.5737  0.5536
 6151TIP3    H239945   0.159   4.455  10.626  0.3564  1.1368  0.6269
 6152TIP3   OH239946   6.046   3.338   0.838 -0.6053  0.0051 -0.2899
 6152TIP3    H139947   6.091   3.359   0.920  1.5729  0.7778 -1.5921
 6152TIP3    H239948   5.953   3.346   0.859 -0.0867  1.2502  1.8382
 6153TIP3   OH239949   0.607   4.804   5.236  0.2797  0.1062 -0.2359
 6153TIP3    H139950   0.591   4.734   5.299 -0.4891  0.9870  0.5918
 6153TIP3    H239951   0.698   4.830   5.251  0.3520 -0.2505 -0.0630
 6154TIP3   OH239952   2.160   6.338   4.952  0.6198 -0.2906 -0.3191
 6154TIP3    H139953   2.216   6.294   4.888 -0.6099  0.3512 -1.9074
 6154TIP3    H239954   2.084   6.281   4.962 -0.4234  0.8477 -1.4824
 6155TIP3   OH239955   5.252   0.981  14.513 -0.6309 -0.2781  0.1543
 6155TIP3    H139956   5.340   0.961  14.481 -0.1795  0.1033  1.1282
 6155TIP3    H239957   5.197   0.911  14.477  0.1802 -0.8788  0.0540
 6156TIP3   OH239958   3.017   3.872   4.206  0.0968  0.1014  0.9483
 6156TIP3    H139959   2.939   3.925   4.197 -0.4886 -1.0484 -1.5489
 6156TIP3    H239960   2.998   3.814   4.280 -1.8530 -0.7985 -0.1934
 6157TIP3   OH239961   4.538   2.179  11.426 -0.4644  0.0927 -0.0231
 6157TIP3    H139962   4.609   2.115  11.415  0.0217  0.7961 -1.1145
 6157TIP3    H239963   4.557   2.247  11.362 -1.9340  0.4776 -0.0849
 6158TIP3   OH239964   0.833   5.455  15.571 -0.0957  0.6969  0.1040
 6158TIP3    H139965   0.769   5.525  15.581  1.6332  2.2555  0.6450
 6158TIP3    H239966   0.889   5.483  15.498  0.6187 -0.1322  0.3151
 6159TIP3   OH239967   5.832   3.105  15.472 -0.3419 -0.2802 -0.5701
 6159TIP3    H139968   5.799   3.172  15.412 -0.3639 -0.7785 -1.1224
 6159TIP3    H239969   5.888   3.153  15.532 -2.1318  0.6109  0.4771
 6160TIP3   OH239970   6.412   4.237  11.964  0.3279 -0.4711 -0.6343
 6160TIP3    H139971   6.388   4.167  11.903  2.0407  0.8682 -3.0377
 6160TIP3    H239972   6.471   4.293  11.914  4.3150 -0.7952  3.1284
 6161TIP3   OH239973   4.749   3.955   0.606  0.0057 -0.0468 -0.2568
 6161TIP3    H139974   4.747   3.980   0.699 -0.3845  0.4163 -0.3857
 6161TIP3    H239975   4.818   3.889   0.601 -1.3932 -1.7042  0.7603
 6162TIP3   OH239976   1.071   0.218  12.636  1.1639 -0.2026  0.3111
 6162TIP3    H139977   1.056   0.280  12.565  0.8341  0.5142  0.9994
 6162TIP3    H239978   1.081   0.133  12.592 -0.7120 -0.0575 -0.5097
 6163TIP3   OH239979   4.057   5.319   5.419 -0.3293 -0.4071 -0.2504
 6163TIP3    H139980   4.117   5.278   5.357 -0.5577 -1.4871  0.2135
 6163TIP3    H239981   4.058   5.261   5.495 -0.3117  0.7252  0.6256
 6164TIP3   OH239982   4.579   3.953   5.219 -0.1352 -0.6051 -0.2101
 6164TIP3    H139983   4.524   4.030   5.204 -0.2045 -0.5375  0.3497
 6164TIP3    H239984   4.620   3.970   5.304 -1.1159 -1.7513  0.5068
 6165TIP3   OH239985   2.214   5.338   0.939 -0.5139 -0.7675  0.6046
 6165TIP3    H139986   2.242   5.263   0.992  0.3151  0.7670  2.4536
 6165TIP3    H239987   2.149   5.383   0.993  2.0973  2.2128  1.5751
 6166TIP3   OH239988   6.674   5.087   2.565 -0.0820  0.0425 -0.4188
 6166TIP3    H139989   6.761   5.047   2.564  0.2961  0.8240  0.2175
 6166TIP3    H239990   6.628   5.045   2.493  0.9787 -0.0611 -1.0655
 6167TIP3   OH239991   3.040   5.182   4.094 -0.4524 -0.2533 -0.1175
 6167TIP3    H139992   2.958   5.161   4.139 -0.3523 -0.5302 -0.0639
 6167TIP3    H239993   3.015   5.248   4.029 -0.9436 -1.1774 -0.8998
 6168TIP3   OH239994   2.655   1.772   3.143 -0.0373 -0.3109 -0.1434
 6168TIP3    H139995   2.726   1.783   3.206 -0.5170  0.5521  0.2628
 6168TIP3    H239996   2.579   1.749   3.196 -0.6946  1.4245 -0.2504
 6169TIP3   OH239997   3.434   2.106   3.925 -0.0139 -0.0646  0.0645
 6169TIP3    H139998   3.522   2.099   3.963  0.7201 -0.2820 -1.5994
 6169TIP3    H239999   3.448   2.135   3.835 -1.4353 -2.5072 -1.0525
 6170TIP3   OH240000   2.679   0.035  14.192  0.1655 -0.5431  0.0702
 6170TIP3    H140001   2.718   0.024  14.279  0.6375  1.1745  0.1110
 6170TIP3    H240002   2.742  -0.006  14.133  1.1676  0.5415  0.3236
 6171TIP3   OH240003   1.346   2.243  14.977  0.2853  0.4383 -0.2700
 6171TIP3    H140004   1.353   2.151  15.001 -1.1632 -0.1332 -1.8001
 6171TIP3    H240005   1.370   2.291  15.056  1.1337 -1.2431  0.5399
 6172TIP3   OH240006   2.697   4.779   5.308  0.4990  0.1662  0.3299
 6172TIP3    H140007   2.753   4.728   5.368 -0.0006  0.1773  0.8142
 6172TIP3    H240008   2.726   4.869   5.320 -0.3188  0.3103  1.3743
 6173TIP3   OH240009   0.129   1.912  16.026  0.0230  0.2603  0.1644
 6173TIP3    H140010   0.122   1.819  16.045 -1.8531  0.2386 -0.4091
 6173TIP3    H240011   0.054   1.951  16.071  0.6534  1.4746  0.2237
 6174TIP3   OH240012   5.149   2.642   1.796  0.4361 -0.1235  0.1521
 6174TIP3    H140013   5.057   2.639   1.822 -0.1133 -1.5364 -1.7356
 6174TIP3    H240014   5.173   2.734   1.800 -0.9970  0.2396  0.8710
 6175TIP3   OH240015   2.487   5.489   4.756 -0.2043 -0.1252  0.2228
 6175TIP3    H140016   2.482   5.523   4.846 -0.9325  1.6477 -0.4473
 6175TIP3    H240017   2.416   5.425   4.751 -0.8538  0.5443  0.6155
 6176TIP3   OH240018   1.779   1.432  16.482  0.2933  0.2511 -0.5989
 6176TIP3    H140019   1.764   1.342  16.510 -1.3750  0.8867  0.7359
 6176TIP3    H240020   1.785   1.427  16.386 -1.3735 -1.1101 -0.6820
 6177TIP3   OH240021   0.422   3.718   1.880  0.2682  0.1752  0.1487
 6177TIP3    H140022   0.505   3.724   1.832  0.1973  3.5356  0.1651
 6177TIP3    H240023   0.444   3.740   1.970 -0.4190 -0.3557  0.4523
 6178TIP3   OH240024   2.495   0.683  11.376  0.8517  0.6056 -0.1240
 6178TIP3    H140025   2.510   0.755  11.437  1.2538 -1.7288  2.7516
 6178TIP3    H240026   2.399   0.678  11.368  0.6822 -0.0591  1.7470
 6179TIP3   OH240027   3.274   4.995  14.708  0.1747 -0.0095 -0.0220
 6179TIP3    H140028   3.211   4.923  14.706 -0.5310  0.4765  2.0545
 6179TIP3    H240029   3.265   5.032  14.796  1.3497  1.8848 -0.6400
 6180TIP3   OH240030   3.996   5.728  16.039  0.1681  0.0435 -0.5722
 6180TIP3    H140031   4.071   5.685  16.079  0.0025  1.3389  1.2810
 6180TIP3    H240032   3.935   5.658  16.019  0.9184 -0.8089  0.0604
 6181TIP3   OH240033   3.889   6.499   4.518  0.1789 -0.0807 -0.2465
 6181TIP3    H140034   3.843   6.415   4.522  2.0711 -1.2674 -1.9055
 6181TIP3    H240035   3.886   6.524   4.426 -0.1542  1.6037  0.1931
 6182TIP3   OH240036   0.549   5.908   3.712  0.3514  0.2007  0.1123
 6182TIP3    H140037   0.504   5.844   3.658  0.3780  0.2464  0.0362
 6182TIP3    H240038   0.558   5.865   3.797 -1.8537  1.0180  0.8386
 6183TIP3   OH240039   0.471   5.618   2.317 -0.3848  0.1025  0.6274
 6183TIP3    H140040   0.529   5.665   2.377  1.3608  0.5300 -1.2678
 6183TIP3    H240041   0.485   5.661   2.233 -3.8472  0.5028  0.1077
 6184TIP3   OH240042   1.398   6.238  10.910  0.3197 -0.2359 -0.2410
 6184TIP3    H140043   1.462   6.241  10.981 -0.9029 -1.2387  0.9505
 6184TIP3    H240044   1.317   6.208  10.951 -1.5133  2.8079 -1.2834
 6185TIP3   OH240045   6.586   6.397  12.129 -0.4304 -0.0606  0.5667
 6185TIP3    H140046   6.500   6.435  12.145  0.6983  2.9734  0.2214
 6185TIP3    H240047   6.600   6.408  12.035  0.6092  0.1923  0.7346
 6186TIP3   OH240048   6.586   5.298  11.509 -0.1470 -0.2765  0.1048
 6186TIP3    H140049   6.575   5.380  11.557  1.3188  0.1570 -0.2419
 6186TIP3    H240050   6.604   5.325  11.419 -3.5920 -1.0727 -0.9944
 6187TIP3   OH240051   2.723   1.988   3.891 -0.0921  0.0518  0.2490
 6187TIP3    H140052   2.630   2.010   3.904 -0.6214 -1.2675 -1.0319
 6187TIP3    H240053   2.724   1.893   3.882  1.4341  0.0223  0.5128
 6188TIP3   OH240054   2.660   2.611  13.963 -0.2169  0.3354  0.0992
 6188TIP3    H140055   2.690   2.521  13.949  1.6326  1.0233 -0.7114
 6188TIP3    H240056   2.669   2.625  14.057  0.8469  0.0993  0.0490
 6189TIP3   OH240057   5.248   1.885  10.949  0.2936 -0.1648 -0.4229
 6189TIP3    H140058   5.159   1.851  10.955  0.2754 -0.0280  0.1735
 6189TIP3    H240059   5.284   1.872  11.037  0.2933  1.3180 -0.1767
 6190TIP3   OH240060   0.648   1.915   0.297 -0.2581 -0.2493 -0.6431
 6190TIP3    H140061   0.730   1.900   0.346 -0.5909 -1.0999 -0.3162
 6190TIP3    H240062   0.675   1.916   0.205  0.0812 -0.9631 -0.5637
 6191TIP3   OH240063   1.964   0.078   4.143  0.7608  0.5674  0.1612
 6191TIP3    H140064   1.941   0.146   4.207  1.7350  0.3433  0.7741
 6191TIP3    H240065   2.013   0.013   4.194 -1.8374 -1.6527  0.0702
 6192TIP3   OH240066   2.968   2.933   6.522  0.1576  0.1746  0.2996
 6192TIP3    H140067   2.988   2.959   6.433  0.8756 -0.9458  0.1089
 6192TIP3    H240068   3.053   2.912   6.561 -0.2607 -0.7520  0.7655
 6193TIP3   OH240069   1.924   1.520   4.030  0.3648 -0.5058  0.6894
 6193TIP3    H140070   1.841   1.566   4.015 -0.1687 -1.1849  1.4832
 6193TIP3    H240071   1.922   1.446   3.970  0.1064 -0.8811  1.1586
 6194TIP3   OH240072   6.780   3.199   1.313 -0.0659  0.0200 -0.4276
 6194TIP3    H140073   6.685   3.190   1.319 -0.0074  0.2898  1.5783
 6194TIP3    H240074   6.814   3.140   1.380  1.2846 -0.9719 -1.8886
 6195TIP3   OH240075   5.857   0.633   1.270  0.2273  0.2756 -0.0378
 6195TIP3    H140076   5.819   0.709   1.313 -0.4867 -0.5414  0.8243
 6195TIP3    H240077   5.784   0.589   1.227  0.4603 -0.4472  0.2855
 6196TIP3   OH240078   2.182   5.916   1.828 -0.2800  0.3453 -0.1805
 6196TIP3    H140079   2.208   5.927   1.920 -0.7608 -0.8176  0.1232
 6196TIP3    H240080   2.087   5.909   1.831 -0.3413  0.8388 -0.8355
 6197TIP3   OH240081   6.436   3.294  15.207 -0.1765  0.2945  0.7991
 6197TIP3    H140082   6.528   3.315  15.222 -0.0193 -1.4788  2.7915
 6197TIP3    H240083   6.432   3.199  15.212 -1.9407  0.2309 -0.6399
 6198TIP3   OH240084   0.111   2.669  10.327  0.0249  0.7026 -0.0594
 6198TIP3    H140085   0.201   2.683  10.299  0.5659 -1.4268  0.4849
 6198TIP3    H240086   0.100   2.574  10.327 -2.0740  0.8998  0.3624
 6199TIP3   OH240087   0.903   0.931   0.060 -0.7150 -0.3451 -0.0097
 6199TIP3    H140088   0.963   0.866   0.096 -0.3829  0.4985  1.0195
 6199TIP3    H240089   0.909   1.005   0.121 -0.8795  0.7522 -1.2718
 6200TIP3   OH240090   1.832   2.676  16.566 -0.4436  0.1392 -1.3212
 6200TIP3    H140091   1.831   2.586  16.598  0.0620  0.9644  1.2650
 6200TIP3    H240092   1.916   2.686  16.522  0.4554 -0.1253  0.2531
 6201TIP3   OH240093   4.478   4.452  12.743  0.5216 -0.4421  0.2471
 6201TIP3    H140094   4.504   4.440  12.835 -0.7547 -1.0396  0.5631
 6201TIP3    H240095   4.405   4.514  12.748 -0.3032 -1.3420 -0.2196
 6202TIP3   OH240096   6.736   4.080   1.959 -0.1852 -0.1034 -0.3513
 6202TIP3    H140097   6.768   3.997   1.922  0.1326 -0.9437  1.6830
 6202TIP3    H240098   6.813   4.121   1.998 -0.2378  1.4535 -1.7817
 6203TIP3   OH240099   5.463   3.743  13.514 -0.0433 -0.2861 -0.1787
 6203TIP3    H140100   5.478   3.830  13.476 -1.6130  1.6328  3.1420
 6203TIP3    H240101   5.535   3.732  13.576 -0.0838 -1.1996 -0.2875
 6204TIP3   OH240102   2.385   4.301   2.044  0.0562  0.0113  0.1965
 6204TIP3    H140103   2.446   4.227   2.040 -0.4591 -0.4698  0.9944
 6204TIP3    H240104   2.440   4.376   2.066  0.5919 -0.1173 -0.6678
 6205TIP3   OH240105   5.638   4.916   2.871 -0.0652 -0.8398  0.4599
 6205TIP3    H140106   5.591   4.877   2.797  1.0931  0.0720 -0.7985
 6205TIP3    H240107   5.686   4.843   2.910  0.2398 -1.1338 -0.4329
 6206TIP3   OH240108   1.630   0.886   1.476 -0.2403  0.1899  0.7138
 6206TIP3    H140109   1.675   0.971   1.472 -0.2876  0.1773 -0.5775
 6206TIP3    H240110   1.540   0.908   1.499 -0.5750  0.6525 -0.9064
 6207TIP3   OH240111   4.388   0.605   1.671  0.0703 -0.0216  0.1707
 6207TIP3    H140112   4.326   0.541   1.636 -0.6328  0.0877  1.1706
 6207TIP3    H240113   4.343   0.690   1.662  1.1854  0.4202 -1.5841
 6208TIP3   OH240114   5.514   3.401  17.143  0.1213 -0.0138 -0.0224
 6208TIP3    H140115   5.455   3.327  17.131  0.9492 -0.8452  0.8649
 6208TIP3    H240116   5.600   3.368  17.118  0.2200  1.2391 -1.4993
 6209TIP3   OH240117   4.037   6.182   2.250  0.2484 -0.3558 -0.0808
 6209TIP3    H140118   4.104   6.120   2.223  0.9584  0.1709  0.4531
 6209TIP3    H240119   3.962   6.127   2.273  0.5714 -0.9596 -0.4333
 6210TIP3   OH240120   3.401   0.655  13.801 -0.2364  0.2834  0.5234
 6210TIP3    H140121   3.488   0.616  13.815  0.4594  1.1832 -0.9832
 6210TIP3    H240122   3.341   0.596  13.846  0.9246 -1.7249 -0.4123
 6211TIP3   OH240123   0.585   1.653  15.917  0.4666 -0.2250 -0.0975
 6211TIP3    H140124   0.493   1.660  15.889  0.2649 -1.9721 -0.0068
 6211TIP3    H240125   0.630   1.617  15.841  1.3344  1.6263 -0.5151
 6212TIP3   OH240126   5.281   2.326   0.342  0.3041  0.4117  0.0415
 6212TIP3    H140127   5.333   2.263   0.292 -0.3158  0.0188 -0.1088
 6212TIP3    H240128   5.326   2.331   0.427  1.8898  1.7469 -0.8070
 6213TIP3   OH240129   1.597   4.056  13.256 -0.1019 -0.0651 -0.4994
 6213TIP3    H140130   1.546   4.090  13.330 -0.0801 -0.7607 -0.1616
 6213TIP3    H240131   1.621   4.135  13.207  0.3762  0.4617  0.5420
 6214TIP3   OH240132   0.634   6.100  17.075 -0.6025 -0.1255  0.5167
 6214TIP3    H140133   0.649   6.027  17.016 -3.5142 -0.6930  0.3134
 6214TIP3    H240134   0.603   6.171  17.019  0.8840  0.8557  0.8804
 6215TIP3   OH240135   4.718   5.692  12.017 -0.3521 -0.1896 -0.5516
 6215TIP3    H140136   4.767   5.609  12.013  0.6536  0.2560  1.1832
 6215TIP3    H240137   4.627   5.667  12.005 -0.0999 -1.6203  0.2075
 6216TIP3   OH240138   5.842   2.335  11.205  0.2087  0.0685 -0.5017
 6216TIP3    H140139   5.884   2.334  11.119  0.3797 -1.2651 -0.4272
 6216TIP3    H240140   5.758   2.378  11.191  0.7567  0.9800 -1.0694
 6217TIP3   OH240141   3.950   5.575   5.005  0.0880  0.7192 -0.0113
 6217TIP3    H140142   3.962   5.566   5.099 -1.2193  0.5307  0.1490
 6217TIP3    H240143   3.902   5.497   4.978 -1.2646  1.6776 -0.4958
 6218TIP3   OH240144   4.078   5.703  14.390  0.0262  0.0209  0.4873
 6218TIP3    H140145   4.113   5.691  14.302  0.0559 -0.8089  0.6064
 6218TIP3    H240146   4.065   5.614  14.423 -0.4454  0.3262  1.1374
 6219TIP3   OH240147   3.284   2.148   0.253 -0.4205  0.2645 -0.1030
 6219TIP3    H140148   3.247   2.149   0.165  0.8822  2.5005 -0.7181
 6219TIP3    H240149   3.246   2.225   0.296  1.9565  1.5537 -0.1425
 6220TIP3   OH240150   5.884   2.578  16.871  0.2919 -0.0623  0.6361
 6220TIP3    H140151   5.860   2.636  16.799  2.9549  2.5307  1.6326
 6220TIP3    H240152   5.802   2.536  16.896 -0.7433 -1.3016 -3.9478
 6221TIP3   OH240153   3.951   0.083  14.795  0.7211 -0.4577  0.0833
 6221TIP3    H140154   3.986   0.165  14.829  0.6240 -1.2241  2.1981
 6221TIP3    H240155   3.857   0.088  14.813  0.8111 -1.2847  0.8635
 6222TIP3   OH240156   5.309   4.374   4.721 -0.1418 -0.4122 -0.2346
 6222TIP3    H140157   5.396   4.347   4.749  0.3535 -1.0063 -2.1424
 6222TIP3    H240158   5.281   4.438   4.786  2.0181  0.3194  0.0566
 6223TIP3   OH240159   2.214   1.004   4.039  0.1337  0.1001 -0.1063
 6223TIP3    H140160   2.230   0.945   3.965 -1.3980  1.0295 -1.2188
 6223TIP3    H240161   2.195   1.089   3.999  3.4264  1.7778  1.4671
 6224TIP3   OH240162   2.971   4.361  11.139 -0.0723  0.0315 -0.3888
 6224TIP3    H140163   3.031   4.416  11.088 -0.7255  0.7653 -0.3648
 6224TIP3    H240164   2.994   4.271  11.113  0.8276  0.3121 -0.6102
 6225TIP3   OH240165   6.419   3.005   3.984 -0.6663 -0.0360 -0.2596
 6225TIP3    H140166   6.447   3.073   3.923 -1.1441  0.2425 -0.1669
 6225TIP3    H240167   6.334   3.034   4.017 -1.4750 -1.2581 -1.1564
 6226TIP3   OH240168   6.608   2.059  10.229 -0.0219  0.2551  0.0441
 6226TIP3    H140169   6.645   1.986  10.278 -0.9015 -1.3827 -1.5914
 6226TIP3    H240170   6.632   2.041  10.138 -1.4415  1.2410 -0.5584
 6227TIP3   OH240171   0.403   6.123  13.637 -0.2830 -0.2882  0.1061
 6227TIP3    H140172   0.470   6.163  13.693  1.1462 -0.9558 -1.0584
 6227TIP3    H240173   0.333   6.188  13.632  1.8497  2.0673 -1.5656
 6228TIP3   OH240174   2.923   2.496   1.529 -0.4918 -0.2952  0.1327
 6228TIP3    H140175   2.979   2.551   1.475 -0.2596 -1.4671 -0.8730
 6228TIP3    H240176   2.836   2.506   1.490 -0.2701 -1.3787 -0.7097
 6229TIP3   OH240177   0.164   1.712   3.226 -0.5570 -0.4660  0.0003
 6229TIP3    H140178   0.110   1.791   3.232  0.2185  0.0139  1.0442
 6229TIP3    H240179   0.163   1.689   3.133 -1.0236  0.6106 -0.2797
 6230TIP3   OH240180   2.577   4.562   4.950 -0.3485 -0.0012  0.2606
 6230TIP3    H140181   2.615   4.628   4.892  0.1269  0.1802  0.7682
 6230TIP3    H240182   2.651   4.533   5.004 -0.4837 -1.1542 -0.1508
 6231TIP3   OH240183   3.123   5.376  13.161 -0.6161  0.2870  0.9456
 6231TIP3    H140184   3.081   5.454  13.198 -1.8432  0.3389 -0.4856
 6231TIP3    H240185   3.075   5.303  13.201 -3.4947  0.3395 -2.0289
 6232TIP3   OH240186   5.953   6.547   5.040 -0.1545 -0.1769 -0.1150
 6232TIP3    H140187   5.910   6.567   4.957 -2.6132  0.6005  1.2329
 6232TIP3    H240188   6.010   6.473   5.020  0.2589  0.7190 -2.7196
 6233TIP3   OH240189   0.687   5.849  13.131 -0.3457 -0.8270  0.0649
 6233TIP3    H140190   0.654   5.846  13.221  0.6065 -3.4335  0.4098
 6233TIP3    H240191   0.699   5.942  13.113 -0.2979 -0.2406  2.7355
 6234TIP3   OH240192   0.879   2.340   5.425 -0.2689  0.6198 -0.6085
 6234TIP3    H140193   0.972   2.343   5.445  0.2504  2.8370 -2.8596
 6234TIP3    H240194   0.842   2.415   5.471 -1.4931 -1.4416  2.0712
 6235TIP3   OH240195   5.559   5.519   4.509  0.1091  0.1245  0.0653
 6235TIP3    H140196   5.553   5.424   4.500  0.3956  0.0452  0.6167
 6235TIP3    H240197   5.469   5.549   4.523 -0.1957  0.1272 -1.6748
 6236TIP3   OH240198   4.591   1.167   5.225  0.5918  0.0332  0.4938
 6236TIP3    H140199   4.590   1.141   5.317  0.1412  0.2983  0.5649
 6236TIP3    H240200   4.511   1.218   5.214 -0.9997 -2.5344 -0.7859
 6237TIP3   OH240201   1.716   5.398   3.942  0.2868  0.0107 -0.0037
 6237TIP3    H140202   1.621   5.391   3.947  0.2877  0.5671  1.1251
 6237TIP3    H240203   1.747   5.311   3.968  0.0925 -0.2295 -0.5601
 6238TIP3   OH240204   6.311   5.934  12.178 -0.7461 -0.4213  0.2751
 6238TIP3    H140205   6.326   5.995  12.250 -2.0834 -0.9939  1.0719
 6238TIP3    H240206   6.334   5.984  12.099 -0.7998  0.7443  0.9819
 6239TIP3   OH240207   2.966   5.976   2.009 -0.1788 -0.4461 -0.4112
 6239TIP3    H140208   3.021   6.046   2.046 -2.6471  0.9610  0.8122
 6239TIP3    H240209   3.001   5.896   2.048 -0.4292  0.6375  2.2705
 6240TIP3   OH240210   6.647   3.415   1.024  0.5706  0.1282  0.0109
 6240TIP3    H140211   6.591   3.492   1.034  0.8770  0.2055  1.4155
 6240TIP3    H240212   6.729   3.440   1.067  1.2631 -0.4080 -0.9621
 6241TIP3   OH240213   0.264   6.376   0.214  0.4672 -0.6166 -0.0109
 6241TIP3    H140214   0.223   6.323   0.145  0.1796 -0.9698  0.4265
 6241TIP3    H240215   0.358   6.369   0.197  0.4720 -1.8796  0.4796
 6242TIP3   OH240216   4.682   1.472  13.316 -1.0468  0.0899 -0.1971
 6242TIP3    H140217   4.722   1.485  13.402 -0.3716  2.6903 -0.7989
 6242TIP3    H240218   4.590   1.456  13.335 -0.6954 -0.5657  1.0509
 6243TIP3   OH240219   3.401   3.501   0.054  0.4179  0.1285  0.3533
 6243TIP3    H140220   3.436   3.425   0.009 -0.7876 -0.7826  0.8822
 6243TIP3    H240221   3.474   3.562   0.059  1.0797 -0.4765 -1.1851
 6244TIP3   OH240222   0.612   1.879  12.853 -0.1202 -0.1070 -0.0225
 6244TIP3    H140223   0.524   1.915  12.865 -0.4592 -0.6937 -0.6739
 6244TIP3    H240224   0.652   1.935  12.787 -0.0903  0.0186  0.1032
 6245TIP3   OH240225   2.440   5.593  15.020  0.3643  0.6212 -0.1811
 6245TIP3    H140226   2.417   5.602  15.112 -0.9415  1.5956 -0.5701
 6245TIP3    H240227   2.441   5.499  15.004 -1.0623  0.4758  0.4578
 6246TIP3   OH240228   3.169   2.776   4.323  0.2552 -0.4685 -0.5088
 6246TIP3    H140229   3.080   2.752   4.351  0.7958 -3.2369 -0.9528
 6246TIP3    H240230   3.155   2.847   4.260 -1.5023  0.2348  0.5697
 6247TIP3   OH240231   5.299   5.855  13.467  0.2395 -0.1896  0.3740
 6247TIP3    H140232   5.224   5.852  13.408  0.5624  0.7144 -0.1104
 6247TIP3    H240233   5.262   5.835  13.553 -0.0153 -2.8448 -0.2617
 6248TIP3   OH240234   1.008   6.012   6.020  0.2582  0.1880  0.2755
 6248TIP3    H140235   0.951   6.089   6.027  0.5973  0.3236  2.0225
 6248TIP3    H240236   1.046   6.019   5.933 -0.0150  1.8017  0.2413
 6249TIP3   OH240237   2.724   1.729   1.859 -0.1385 -0.5902 -0.3050
 6249TIP3    H140238   2.650   1.704   1.804 -0.2734  1.8464 -1.3692
 6249TIP3    H240239   2.685   1.765   1.938 -0.0211 -1.0497 -0.0324
 6250TIP3   OH240240   2.648   6.561  15.340  0.6434  0.1126 -0.2437
 6250TIP3    H140241   2.583   6.594  15.402  1.1954 -1.8186  1.4712
 6250TIP3    H240242   2.596   6.515  15.274  0.1586  0.6074 -0.2180
 6251TIP3   OH240243   2.949   4.598  13.478  0.2840 -0.5864  0.0562
 6251TIP3    H140244   2.992   4.514  13.497  0.4944  0.0782  2.9494
 6251TIP3    H240245   2.976   4.655  13.550 -1.7646  1.2543 -0.5518
 6252TIP3   OH240246   0.738   5.267  12.325 -0.0667 -0.2936  0.1319
 6252TIP3    H140247   0.701   5.180  12.313  1.0861 -0.8293  0.3502
 6252TIP3    H240248   0.790   5.283  12.246 -1.6104  0.9173 -0.6961
 6253TIP3   OH240249   5.263   1.775   3.117  0.0273  0.1880  0.3766
 6253TIP3    H140250   5.273   1.717   3.042 -0.0103  0.6502  0.0130
 6253TIP3    H240251   5.230   1.718   3.187 -0.3258 -0.1632 -0.0719
 6254TIP3   OH240252   2.023   5.465   2.669 -0.2926 -0.5646 -0.1589
 6254TIP3    H140253   2.065   5.458   2.584 -2.8345 -2.1377 -1.4280
 6254TIP3    H240254   1.947   5.521   2.655 -0.7841 -0.8735  1.0497
 6255TIP3   OH240255   2.371   4.854  13.256  0.1095  0.5653  0.0662
 6255TIP3    H140256   2.417   4.931  13.289  0.3754  0.0710  0.8646
 6255TIP3    H240257   2.417   4.830  13.176  0.4991  0.7881  0.2230
 6256TIP3   OH240258   5.259   0.372   3.011 -0.4736 -0.1624 -0.3427
 6256TIP3    H140259   5.176   0.347   2.970 -0.5921 -0.6734  0.1962
 6256TIP3    H240260   5.233   0.422   3.088 -0.2716 -0.0295 -0.3604
 6257TIP3   OH240261   0.402   6.569  16.446  0.3317  0.2721 -0.2264
 6257TIP3    H140262   0.395   6.629  16.521 -1.7948 -0.7514  0.4836
 6257TIP3    H240263   0.434   6.487  16.484 -0.3674 -0.1322 -0.4965
 6258TIP3   OH240264   5.629   5.200  13.764  0.6004 -0.2822 -0.2604
 6258TIP3    H140265   5.604   5.284  13.802 -0.2505 -0.5603 -0.1798
 6258TIP3    H240266   5.546   5.160  13.739  1.0087 -1.0413 -0.4178
 6259TIP3   OH240267   1.883   4.027   0.892  0.2979  0.1072  0.0115
 6259TIP3    H140268   1.957   3.989   0.844 -0.1294 -1.4639  0.5391
 6259TIP3    H240269   1.814   4.036   0.826  0.5465  0.4310 -0.2122
 6260TIP3   OH240270   5.731   4.269   3.943 -0.1142 -0.1623  0.0010
 6260TIP3    H140271   5.684   4.262   4.026  0.3884  0.2925  0.3309
 6260TIP3    H240272   5.810   4.320   3.964 -0.1247  0.2110 -0.8072
 6261TIP3   OH240273   6.546   2.481  13.769 -0.0111 -0.1267  0.4898
 6261TIP3    H140274   6.631   2.445  13.744  0.2717  0.9707 -0.2257
 6261TIP3    H240275   6.567   2.569  13.802 -0.8503  0.0646  0.5276
 6262TIP3   OH240276   4.573   2.735   2.987  0.2712  0.5695  0.3029
 6262TIP3    H140277   4.498   2.761   3.040 -0.3336 -0.2408 -0.1247
 6262TIP3    H240278   4.536   2.677   2.920  1.6974 -2.7012  2.0818
 6263TIP3   OH240279   3.973   6.634   2.479 -0.2941  0.0523  0.2737
 6263TIP3    H140280   3.949   6.543   2.493 -0.1497 -0.1386 -0.6802
 6263TIP3    H240281   4.038   6.631   2.409 -1.5440  1.0346 -0.9725
 6264TIP3   OH240282   6.485   5.101  11.772 -0.7671 -0.0966  0.1473
 6264TIP3    H140283   6.459   5.094  11.864 -0.2233 -1.5160  0.2189
 6264TIP3    H240284   6.480   5.011  11.739 -0.6503  0.3503 -1.1356
 6265TIP3   OH240285   5.368   0.627   3.075 -0.6753 -0.0864  0.0522
 6265TIP3    H140286   5.397   0.657   2.989 -0.5335 -0.6597 -0.1005
 6265TIP3    H240287   5.317   0.548   3.057  2.2936 -2.3207  0.7488
 6266TIP3   OH240288   6.297   1.878  14.379  1.0654  0.8635  0.4695
 6266TIP3    H140289   6.205   1.866  14.404  0.5555  1.7933 -0.8379
 6266TIP3    H240290   6.324   1.792  14.346 -0.4596  1.3828 -2.4559
 6267TIP3   OH240291   3.215   2.670   4.926  0.4830  0.5913 -0.4213
 6267TIP3    H140292   3.172   2.735   4.981  0.7101 -0.2641  0.8020
 6267TIP3    H240293   3.277   2.626   4.984  2.1811  0.9910 -1.8422
 6268TIP3   OH240294   1.728   0.467   6.130 -0.1297  0.0493 -0.1796
 6268TIP3    H140295   1.784   0.457   6.053  1.7320 -1.0124  1.2247
 6268TIP3    H240296   1.775   0.422   6.200 -2.5612 -0.5280  1.2159
 6269TIP3   OH240297   4.703   2.363  13.277 -0.3857 -0.0761  0.5881
 6269TIP3    H140298   4.642   2.435  13.264 -0.6939 -0.3017  0.7767
 6269TIP3    H240299   4.790   2.403  13.271 -0.4354 -0.1865 -2.4663
 6270TIP3   OH240300   4.915   6.605  13.223  0.0453 -0.6028  0.0403
 6270TIP3    H140301   4.885   6.567  13.141 -1.3550 -0.2023  0.3380
 6270TIP3    H240302   4.882   6.546  13.291 -2.1086  0.9989  0.5086
 6271TIP3   OH240303   0.636   1.109   5.900 -0.7670  0.0206  0.0223
 6271TIP3    H140304   0.613   1.196   5.931  1.1381  0.7078 -0.4039
 6271TIP3    H240305   0.659   1.061   5.980  0.3340  0.6030  0.0747
 6272TIP3   OH240306   6.291   5.077  13.503 -0.0493 -0.2978 -0.3505
 6272TIP3    H140307   6.305   5.136  13.577 -0.5783 -0.7112  0.0885
 6272TIP3    H240308   6.208   5.107  13.464 -0.4071 -0.8365 -0.0268
 6273TIP3   OH240309   4.664   0.891   1.670  0.2568 -0.7580 -1.1388
 6273TIP3    H140310   4.679   0.923   1.581 -1.2134 -2.0906 -1.9170
 6273TIP3    H240311   4.683   0.797   1.666 -0.0438 -0.8816 -0.0946
 6274TIP3   OH240312   0.624   5.810   3.293 -0.3718  0.2653 -0.1982
 6274TIP3    H140313   0.580   5.886   3.331 -0.5312 -1.3593  3.2777
 6274TIP3    H240314   0.718   5.830   3.299 -0.3911  0.0181  1.2644
 6275TIP3   OH240315   6.367   2.724  11.701 -0.2691 -0.5201 -0.1694
 6275TIP3    H140316   6.285   2.753  11.661  0.4073  1.1105 -0.4699
 6275TIP3    H240317   6.342   2.696  11.789 -0.9659  1.6407  0.4023
 6276TIP3   OH240318   2.358   0.709   2.326 -0.3429  0.3091  0.4460
 6276TIP3    H140319   2.334   0.638   2.386  3.1244 -0.0201  1.7118
 6276TIP3    H240320   2.359   0.787   2.382 -0.2623  0.6117  0.0216
 6277TIP3   OH240321   0.333   4.457   1.126  0.3442  0.3001 -0.2067
 6277TIP3    H140322   0.406   4.482   1.070 -0.4170  0.5341 -1.1183
 6277TIP3    H240323   0.288   4.539   1.145  0.1077  0.1127  0.0616
 6278TIP3   OH240324   3.051   4.180  14.793 -0.0122 -0.0627  0.3347
 6278TIP3    H140325   2.957   4.183  14.807 -0.1770 -1.1031 -0.4586
 6278TIP3    H240326   3.073   4.267  14.758 -0.9501 -0.3245 -0.9842
 6279TIP3   OH240327   6.330   2.878   0.815  0.6243 -0.3257  0.3790
 6279TIP3    H140328   6.329   2.823   0.737 -1.9099 -1.2279  0.9334
 6279TIP3    H240329   6.284   2.958   0.788 -2.3111 -1.5235  1.3670
 6280TIP3   OH240330   3.754   6.527   6.024  0.2220 -0.3990 -0.0497
 6280TIP3    H140331   3.778   6.573   5.944  2.5338 -1.0921  0.1827
 6280TIP3    H240332   3.764   6.434   6.002  2.2299 -0.5844  1.3502
 6281TIP3   OH240333   5.335   2.089   3.108 -0.5313 -0.0361  0.3146
 6281TIP3    H140334   5.262   2.124   3.160  0.4790  0.8940  1.1448
 6281TIP3    H240335   5.313   1.997   3.096 -2.4854  0.4993 -0.5955
 6282TIP3   OH240336   6.704   0.799   2.389 -0.2131  0.2790  0.2945
 6282TIP3    H140337   6.792   0.835   2.381 -0.7461  1.4555 -0.4423
 6282TIP3    H240338   6.689   0.756   2.305 -0.7391  1.0135  0.0054
 6283TIP3   OH240339   0.096   3.255  11.836 -0.3541 -0.5978  0.4015
 6283TIP3    H140340   0.094   3.222  11.746 -2.2624 -0.7481  0.4430
 6283TIP3    H240341   0.004   3.274  11.856  0.3864  2.8291  1.1235
 6284TIP3   OH240342   6.751   1.577   5.932  0.5467  0.0523 -0.1126
 6284TIP3    H140343   6.778   1.498   5.978 -0.0918 -0.0923  0.0306
 6284TIP3    H240344   6.755   1.646   5.999 -0.1441 -0.1113  0.1046
 6285TIP3   OH240345   1.355   3.708  15.273  0.5953  0.3745 -0.2967
 6285TIP3    H140346   1.352   3.617  15.243 -0.8326  0.7672 -1.4579
 6285TIP3    H240347   1.375   3.758  15.194 -2.0436  1.3326 -0.4531
 6286TIP3   OH240348   1.433   1.048   4.228 -0.2855  0.4522  0.0537
 6286TIP3    H140349   1.433   0.975   4.166 -1.0363  2.3215 -2.2651
 6286TIP3    H240350   1.413   1.007   4.313 -2.9789 -1.7839 -1.4946
 6287TIP3   OH240351   2.730   0.439   1.979  0.1336 -0.2153  0.4078
 6287TIP3    H140352   2.715   0.504   1.911 -3.0445 -0.5366  0.6210
 6287TIP3    H240353   2.738   0.490   2.060  1.3705  0.0507  0.1248
 6288TIP3   OH240354   1.335   2.440  17.074 -0.1789 -0.1467 -0.3004
 6288TIP3    H140355   1.416   2.417  17.029  0.0808  0.8097 -0.3508
 6288TIP3    H240356   1.320   2.368  17.134  1.2793  0.1113  0.4386
 6289TIP3   OH240357   1.855   4.496  12.182  0.0829 -0.0094 -0.1607
 6289TIP3    H140358   1.849   4.575  12.128  0.9264 -0.1649 -0.4877
 6289TIP3    H240359   1.930   4.449  12.148 -0.0442 -0.6576  0.4376
 6290TIP3   OH240360   3.244   1.476   1.312  0.3774 -0.6536  0.4714
 6290TIP3    H140361   3.205   1.486   1.225  2.4893  0.6939 -0.3861
 6290TIP3    H240362   3.177   1.430   1.363 -1.5515 -0.0709 -1.4029
 6291TIP3   OH240363   5.143   4.694   4.623  0.6587  0.2355  0.0366
 6291TIP3    H140364   5.212   4.749   4.660  0.2226 -0.4840  2.0779
 6291TIP3    H240365   5.078   4.686   4.693  0.1829 -1.9543 -0.5559
 6292TIP3   OH240366   1.928   2.426   3.264  0.3293  0.7506 -0.3947
 6292TIP3    H140367   1.895   2.455   3.349  0.4834 -1.7399  0.6143
 6292TIP3    H240368   2.023   2.423   3.275  0.5099  2.3136 -1.3485
 6293TIP3   OH240369   3.828   6.722   6.827  0.2013 -0.2805  0.2638
 6293TIP3    H140370   3.766   6.777   6.779  0.0213 -1.3858 -0.8402
 6293TIP3    H240371   3.900   6.707   6.764 -0.1884 -2.0262  0.1626
 6294TIP3   OH240372   5.287   5.851  12.062  0.6094  0.3046 -0.1822
 6294TIP3    H140373   5.306   5.831  12.154 -0.9689 -0.7686 -0.0527
 6294TIP3    H240374   5.255   5.769  12.026 -1.2620  1.3409 -1.0088
 6295TIP3   OH240375   6.429   2.707   0.603 -0.5387 -0.2086 -0.6455
 6295TIP3    H140376   6.439   2.769   0.531 -2.2917  0.2688 -0.5262
 6295TIP3    H240377   6.347   2.660   0.583 -0.5412 -0.7422  0.5421
 6296TIP3   OH240378   1.926   4.745  12.080  0.1112 -0.0525  0.2868
 6296TIP3    H140379   1.960   4.809  12.143  1.2427 -0.3918  0.0468
 6296TIP3    H240380   1.871   4.797  12.022 -0.0917  0.4541  0.9190
 6297TIP3   OH240381   2.949   0.789  11.262  0.4054 -0.1301  0.4820
 6297TIP3    H140382   2.907   0.705  11.276 -0.6679  0.3487  0.2691
 6297TIP3    H240383   3.039   0.768  11.239 -0.3228 -1.3203 -1.5089
 6298TIP3   OH240384   6.532   1.521   2.700  0.1416 -0.0903  0.1154
 6298TIP3    H140385   6.463   1.455   2.703 -0.3591  0.4104 -0.2150
 6298TIP3    H240386   6.604   1.479   2.653 -0.2610 -0.3262 -0.3015
 6299TIP3   OH240387   1.497   4.342  14.762  0.4160 -0.4177  0.7153
 6299TIP3    H140388   1.446   4.412  14.721 -0.7174 -1.0969  0.9537
 6299TIP3    H240389   1.551   4.307  14.690 -0.1072 -0.2925  0.2564
 6300TIP3   OH240390   5.670   2.748   3.523 -0.1485 -0.1850 -0.1471
 6300TIP3    H140391   5.574   2.747   3.528 -0.1616 -0.8162 -0.4086
 6300TIP3    H240392   5.692   2.839   3.503 -0.6081  0.2688  1.3364
 6301TIP3   OH240393   1.962   5.398  16.948  0.7695 -0.2548  0.1311
 6301TIP3    H140394   2.028   5.412  16.880  0.2004  0.5077 -0.2832
 6301TIP3    H240395   1.930   5.486  16.969  1.0127 -0.4625  1.4717
 6302TIP3   OH240396   2.133   3.709  12.581  0.3479 -0.7132 -0.1248
 6302TIP3    H140397   2.046   3.698  12.619  1.2114 -0.6996  1.9893
 6302TIP3    H240398   2.119   3.708  12.486 -1.6556 -3.0618  0.1198
 6303TIP3   OH240399   0.722   0.458   3.658 -0.0720 -0.4700  0.7681
 6303TIP3    H140400   0.636   0.495   3.641  0.4241 -0.5183 -2.3852
 6303TIP3    H240401   0.705   0.387   3.721 -2.1120  0.2846  1.1485
 6304TIP3   OH240402   2.971   6.320   0.762 -0.0604 -0.0619 -0.0370
 6304TIP3    H140403   2.998   6.242   0.812 -0.9044  0.0874  0.6689
 6304TIP3    H240404   2.970   6.290   0.671 -2.7932 -1.6724  0.3888
 6305TIP3   OH240405   5.683   6.510   2.014 -0.4369 -0.4332  0.4642
 6305TIP3    H140406   5.729   6.431   2.044  0.6475  0.3302  0.8704
 6305TIP3    H240407   5.635   6.541   2.091  0.1312 -0.0133  0.6538
 6306TIP3   OH240408   6.011   1.759   2.595 -0.0714  0.2989  0.3662
 6306TIP3    H140409   6.084   1.812   2.625 -0.0589  1.2338 -1.1943
 6306TIP3    H240410   6.048   1.672   2.578  0.2291  0.2006  1.5048
 6307TIP3   OH240411   5.987   2.661  12.873  0.1005 -0.9136 -0.1753
 6307TIP3    H140412   5.958   2.746  12.906 -0.4340 -0.4429 -1.7921
 6307TIP3    H240413   5.910   2.604  12.880 -0.3909 -0.4829 -1.6494
 6308TIP3   OH240414   1.840   0.448   3.861 -0.7794  0.2054  0.3906
 6308TIP3    H140415   1.919   0.499   3.846 -0.1756 -0.9296 -0.4045
 6308TIP3    H240416   1.834   0.441   3.956 -0.6550  1.3852  0.5047
 6309TIP3   OH240417   5.400   4.214  11.792 -0.4616 -0.0754 -0.1516
 6309TIP3    H140418   5.430   4.263  11.869  4.1515 -0.2265 -1.5595
 6309TIP3    H240419   5.423   4.270  11.718 -1.8531 -1.3137 -1.5822
 6310TIP3   OH240420   1.277   3.959  16.629 -0.8214 -0.2510  0.0253
 6310TIP3    H140421   1.298   3.887  16.688  1.6471  1.1370  0.9969
 6310TIP3    H240422   1.330   3.942  16.551  0.1006  0.6665  0.4265
 6311TIP3   OH240423   3.394   5.332   3.977  0.5993 -0.0130 -0.8347
 6311TIP3    H140424   3.344   5.359   4.054  1.5208 -0.7719  0.0664
 6311TIP3    H240425   3.367   5.392   3.908 -0.1559  0.7741  0.1201
 6312TIP3   OH240426   2.449   4.806  16.868 -0.4348  0.0249 -0.0396
 6312TIP3    H140427   2.354   4.820  16.870 -0.5564 -0.8463  1.3386
 6312TIP3    H240428   2.463   4.745  16.795 -0.8203  0.7745 -0.7612
 6313TIP3   OH240429   3.786   0.517   3.165 -0.1890  0.3154 -0.1886
 6313TIP3    H140430   3.742   0.446   3.118 -1.9320  1.4954 -0.4038
 6313TIP3    H240431   3.730   0.593   3.153  0.5734  1.2610  1.7703
 6314TIP3   OH240432   2.886   2.805  12.254  0.4880  0.0589  0.2548
 6314TIP3    H140433   2.838   2.751  12.192  0.7095 -1.9777  1.7623
 6314TIP3    H240434   2.846   2.892  12.246 -2.0371 -1.0426 -0.0589
 6315TIP3   OH240435   1.618   5.629  15.266 -0.1597 -0.7088 -0.0623
 6315TIP3    H140436   1.524   5.621  15.253 -0.1023  1.0662 -2.0748
 6315TIP3    H240437   1.645   5.543  15.299 -2.7505 -0.6227  2.7417
 6316TIP3   OH240438   4.203   3.248   1.167  0.3587  0.5824 -0.2997
 6316TIP3    H140439   4.165   3.176   1.115  0.7703 -1.1723  1.6986
 6316TIP3    H240440   4.129   3.305   1.187 -0.4635 -0.5699  0.0528
 6317TIP3   OH240441   4.093   5.951  14.727 -0.2505  0.4335 -0.3972
 6317TIP3    H140442   4.153   5.876  14.737 -2.1955 -1.3871 -1.5188
 6317TIP3    H240443   4.021   5.932  14.786 -1.1100  1.0507 -1.2237
 6318TIP3   OH240444   4.618   4.727   5.546 -0.4510 -0.3729 -0.6921
 6318TIP3    H140445   4.697   4.756   5.501 -0.3410 -0.9590 -0.8796
 6318TIP3    H240446   4.634   4.635   5.567 -0.0549  0.1507  1.5192
 6319TIP3   OH240447   1.760   0.912  11.303  0.3025 -0.0003  0.0478
 6319TIP3    H140448   1.689   0.962  11.344  0.6021 -1.2031  2.1492
 6319TIP3    H240449   1.723   0.885  11.219 -2.6310 -2.3137  1.8464
 6320TIP3   OH240450   5.032   4.040  13.383 -0.8600 -0.0092  0.5073
 6320TIP3    H140451   4.962   4.041  13.318  0.0669 -0.3715 -0.5436
 6320TIP3    H240452   4.987   4.031  13.467 -2.0851  0.2732 -0.0931
 6321TIP3   OH240453   0.890   1.084  13.819 -0.2749 -0.0585 -0.3920
 6321TIP3    H140454   0.837   1.117  13.747  1.2194  1.7557 -0.7618
 6321TIP3    H240455   0.917   1.164  13.866  1.7627 -0.9157 -0.0133
 6322TIP3   OH240456   0.719   3.418   4.909  0.1717  0.6015  0.1858
 6322TIP3    H140457   0.641   3.410   4.964 -0.6823 -1.2306 -1.1733
 6322TIP3    H240458   0.697   3.369   4.830  2.7003  0.0247 -0.2376
 6323TIP3   OH240459   3.725   4.722   3.366 -0.2505 -0.0174  0.3516
 6323TIP3    H140460   3.785   4.708   3.439 -0.0086  0.4983  0.2570
 6323TIP3    H240461   3.672   4.797   3.393 -0.8767 -0.4926  0.4486
 6324TIP3   OH240462   0.923   3.893   4.836 -0.2657  0.3493  0.4290
 6324TIP3    H140463   0.989   3.824   4.825  0.1718  0.8669 -0.2981
 6324TIP3    H240464   0.844   3.857   4.796  0.2602  0.6731 -0.9800
 6325TIP3   OH240465   3.402   4.748   3.383 -0.2697  0.1373  0.6884
 6325TIP3    H140466   3.443   4.818   3.332  0.6170  1.0561  2.5704
 6325TIP3    H240467   3.348   4.701   3.319  0.4265  1.4854 -0.9873
 6326TIP3   OH240468   4.850   2.956  11.094 -0.1896 -0.1546  0.2005
 6326TIP3    H140469   4.896   2.902  11.157 -1.2891 -2.2848 -0.7300
 6326TIP3    H240470   4.916   2.976  11.027  0.2002 -0.4383  0.4995
 6327TIP3   OH240471   0.836   1.936  10.959  0.1148  0.3355 -0.1787
 6327TIP3    H140472   0.880   1.988  10.891 -0.1166  1.2230  0.3325
 6327TIP3    H240473   0.908   1.895  11.007  0.3892  1.5591  0.4807
 6328TIP3   OH240474   3.277   1.565   4.020 -0.8042 -0.6082  0.2942
 6328TIP3    H140475   3.342   1.629   4.049 -0.3406 -1.1846  0.5427
 6328TIP3    H240476   3.231   1.540   4.100 -0.0866 -1.5740  0.4223
 6329TIP3   OH240477   1.144   0.409   5.524  0.0421  0.1737 -0.8601
 6329TIP3    H140478   1.159   0.500   5.551 -0.6445  0.9175 -2.8048
 6329TIP3    H240479   1.217   0.361   5.563 -0.5517  1.2075  1.7188
 6330TIP3   OH240480   1.959   0.017  10.557  0.0883  0.4496  0.2150
 6330TIP3    H140481   1.867   0.001  10.537  0.3972 -2.5108  0.7004
 6330TIP3    H240482   1.975   0.106  10.526 -2.5359  0.5232 -1.2275
 6331TIP3   OH240483   0.540   0.105  16.226 -0.4731  0.3198 -0.2683
 6331TIP3    H140484   0.620   0.108  16.173 -1.4187  1.0211 -1.7225
 6331TIP3    H240485   0.548   0.024  16.276  1.7049  0.9812  0.5587
 6332TIP3   OH240486   0.121   1.646  16.041 -0.4373 -0.5711  0.0367
 6332TIP3    H140487   0.188   1.604  16.094 -0.6031 -1.5805 -0.5226
 6332TIP3    H240488   0.051   1.580  16.035 -2.1475  0.9711  1.8186
 6333TIP3   OH240489   5.209   2.966   3.489  0.0036  0.3428  0.4175
 6333TIP3    H140490   5.208   3.021   3.410 -0.7148  1.6463  1.2843
 6333TIP3    H240491   5.286   2.995   3.537 -0.5391  0.8069  1.0177
 6334TIP3   OH240492   1.572   3.144  16.855 -0.5504 -0.0271 -0.2197
 6334TIP3    H140493   1.607   3.056  16.866  1.1834  0.6288 -0.0944
 6334TIP3    H240494   1.546   3.172  16.943  1.1790  0.4390  0.1923
 6335TIP3   OH240495   4.139   4.756   5.038 -0.1382 -0.2202  0.3198
 6335TIP3    H140496   4.096   4.841   5.030  1.1029  0.5382  1.3144
 6335TIP3    H240497   4.232   4.777   5.049  0.3319 -1.7563 -0.4448
 6336TIP3   OH240498   2.145   5.325  15.244  0.5340 -0.1733  0.1680
 6336TIP3    H140499   2.074   5.354  15.186  0.8258 -1.0184 -0.6393
 6336TIP3    H240500   2.120   5.356  15.331  0.2559  1.4427 -0.4504
 6337TIP3   OH240501   5.201   3.311  14.771  0.2613 -0.1463  0.0921
 6337TIP3    H140502   5.179   3.222  14.743  0.9022 -0.4298  0.4561
 6337TIP3    H240503   5.178   3.314  14.864 -1.6226  0.7100 -0.3527
 6338TIP3   OH240504   6.338   2.458   3.019  0.2145  0.8541  0.0545
 6338TIP3    H140505   6.421   2.411   3.023 -0.9074 -1.1925  1.6031
 6338TIP3    H240506   6.303   2.452   3.108 -2.6076 -0.3946 -1.0067
 6339TIP3   OH240507   6.520   5.454   0.977 -0.1502  0.4025  0.0278
 6339TIP3    H140508   6.533   5.495   0.891  1.9796  1.3663  0.7532
 6339TIP3    H240509   6.425   5.454   0.989 -0.6882 -1.2119 -2.9816
 6340TIP3   OH240510   2.708   2.010  15.570 -0.2689  0.5553 -0.1576
 6340TIP3    H140511   2.656   2.083  15.604 -0.3788  1.0424 -1.3288
 6340TIP3    H240512   2.765   1.985  15.643 -1.2966  0.8037  0.7503
 6341TIP3   OH240513   3.395   2.914   5.401  0.1635 -0.5280  0.9071
 6341TIP3    H140514   3.325   2.943   5.460  0.3711  0.0854  0.8592
 6341TIP3    H240515   3.385   2.970   5.324  1.1474  0.0527  1.1856
 6342TIP3   OH240516   5.638   1.941   1.264 -0.6978 -0.2355  0.8147
 6342TIP3    H140517   5.677   1.945   1.177 -0.6002 -1.7833  0.7612
 6342TIP3    H240518   5.546   1.963   1.251 -0.2647  1.6726  0.6738
 6343TIP3   OH240519   2.954   6.373   4.568 -0.0065 -0.3422  0.0272
 6343TIP3    H140520   2.914   6.443   4.619  0.4631 -1.2221  1.7017
 6343TIP3    H240521   2.908   6.374   4.484 -0.2398  1.7115  0.1355
 6344TIP3   OH240522   5.752   0.744   2.324 -0.4031 -0.5784  0.1291
 6344TIP3    H140523   5.771   0.690   2.247 -2.0428  0.2618 -0.9178
 6344TIP3    H240524   5.677   0.700   2.365 -0.5088 -0.1760  0.3668
 6345TIP3   OH240525   3.004   1.771   0.226 -0.2421 -0.5594  0.4952
 6345TIP3    H140526   3.021   1.751   0.317 -1.4502 -1.2855  0.5826
 6345TIP3    H240527   3.016   1.866   0.219  0.9021 -0.6432  1.1453
 6346TIP3   OH240528   1.999   6.351   3.977 -0.2028 -0.0577  0.8486
 6346TIP3    H140529   2.072   6.290   3.988 -0.8266 -0.9529  0.1607
 6346TIP3    H240530   2.036   6.436   4.001  1.1095 -0.4668  0.4042
 6347TIP3   OH240531   6.674   0.492  14.152 -0.0673 -0.2878  0.1738
 6347TIP3    H140532   6.698   0.569  14.099 -0.7813 -1.5168 -2.0794
 6347TIP3    H240533   6.750   0.434  14.144  0.1444 -0.1615  1.2058
 6348TIP3   OH240534   1.692   6.125   1.302  0.3850 -0.0713 -0.1454
 6348TIP3    H140535   1.688   6.050   1.361  2.9020 -0.1607  0.0070
 6348TIP3    H240536   1.600   6.148   1.286 -0.4906 -3.4121 -0.5529
 6349TIP3   OH240537   6.769   0.156   5.846  0.4769  0.8239 -0.5436
 6349TIP3    H140538   6.788   0.067   5.816 -1.3307  0.0976  0.3478
 6349TIP3    H240539   6.853   0.187   5.880  0.9799 -0.8425 -0.1261
 6350TIP3   OH240540   3.519   6.788   2.526  0.3320  0.8705  0.2683
 6350TIP3    H140541   3.535   6.700   2.491 -0.3821  0.3665  1.1486
 6350TIP3    H240542   3.437   6.779   2.575  0.6710  1.8314  1.0468
 6351TIP3   OH240543   5.891   3.132  16.077 -0.2356  0.3228  0.9036
 6351TIP3    H140544   5.952   3.188  16.125 -0.2317  0.5900  0.5861
 6351TIP3    H240545   5.862   3.185  16.004 -0.3839 -0.0213  0.7120
 6352TIP3   OH240546   3.778   0.636  15.234  0.3467 -0.1944  0.2990
 6352TIP3    H140547   3.686   0.639  15.207  0.8885 -0.3742 -1.7639
 6352TIP3    H240548   3.826   0.636  15.151  2.2031 -0.3253  1.3444
 6353TIP3   OH240549   3.181   3.691  16.214  0.3355 -0.0624 -0.0892
 6353TIP3    H140550   3.125   3.697  16.291 -0.0298  1.5867 -0.4520
 6353TIP3    H240551   3.269   3.707  16.247 -0.0439  2.8436 -0.2508
 6354TIP3   OH240552   6.353   0.565  14.605 -0.1147 -0.1992 -0.0353
 6354TIP3    H140553   6.345   0.523  14.520 -0.3642  1.6046 -0.9500
 6354TIP3    H240554   6.440   0.605  14.604 -0.5604  0.7866  0.0928
 6355TIP3   OH240555   1.629   4.943  16.282  0.3321 -0.2634  0.3299
 6355TIP3    H140556   1.602   4.945  16.190  1.1312  0.8910  0.0931
 6355TIP3    H240557   1.714   4.988  16.282 -0.2668  0.9633  1.8156
 6356TIP3   OH240558   5.049   6.634   2.020  0.4058 -0.2704  0.7595
 6356TIP3    H140559   4.969   6.637   2.073  0.6325  1.3113  1.0485
 6356TIP3    H240560   5.104   6.703   2.056  0.7935  0.4847 -1.1671
 6357TIP3   OH240561   3.689   6.294  12.175  0.1126 -0.5816 -0.1949
 6357TIP3    H140562   3.671   6.379  12.133 -0.0472 -0.4711  0.0946
 6357TIP3    H240563   3.722   6.317  12.262 -2.4841 -0.7944  0.9622
 6358TIP3   OH240564   3.794   5.673  12.138 -0.1169  0.3598 -0.2372
 6358TIP3    H140565   3.836   5.758  12.126 -1.5748  1.2099  0.4130
 6358TIP3    H240566   3.762   5.675  12.228  1.5593 -1.7065  0.5021
 6359TIP3   OH240567   3.455   1.016  11.379 -0.3977  1.0192 -0.2121
 6359TIP3    H140568   3.490   0.931  11.405  1.3083  0.8288 -2.7671
 6359TIP3    H240569   3.379   1.029  11.435 -1.0394 -2.4193 -0.0919
 6360TIP3   OH240570   6.441   5.340   5.256 -0.3291 -0.1122 -0.3069
 6360TIP3    H140571   6.514   5.314   5.200  0.5714  1.0916  0.2563
 6360TIP3    H240572   6.442   5.278   5.329 -0.3629 -0.5717 -0.6938
 6361TIP3   OH240573   5.528   2.387   3.739  0.1285  0.2570  0.6720
 6361TIP3    H140574   5.463   2.323   3.712  1.1572 -0.8636  0.7478
 6361TIP3    H240575   5.522   2.457   3.674  0.9038 -1.2528 -1.1144
 6362TIP3   OH240576   4.670   5.089  12.908 -0.1822  0.3435 -0.7478
 6362TIP3    H140577   4.627   5.021  12.961  0.5343 -0.2553 -0.9230
 6362TIP3    H240578   4.613   5.166  12.918  0.8199  0.8384  2.3498
 6363TIP3   OH240579   3.195   6.790  14.552  0.1799 -0.0286  0.0169
 6363TIP3    H140580   3.283   6.753  14.560  0.2919  0.4329  1.1147
 6363TIP3    H240581   3.149   6.729  14.495  1.6211  0.5099 -1.8236
 6364TIP3   OH240582   4.344   0.362   0.095 -0.0696 -0.4098 -0.1015
 6364TIP3    H140583   4.357   0.332   0.005 -0.5160 -2.4250  0.4659
 6364TIP3    H240584   4.395   0.302   0.148  1.3034  1.5764  0.9566
 6365TIP3   OH240585   5.989   5.737  16.074 -0.1230 -0.2891  0.1758
 6365TIP3    H140586   5.941   5.673  16.022  0.1349 -0.7676  0.5089
 6365TIP3    H240587   5.991   5.816  16.021 -1.4244 -0.2051  0.2356
 6366TIP3   OH240588   4.926   0.109   0.204 -0.1427  0.1973  0.1772
 6366TIP3    H140589   4.873   0.091   0.282 -3.4497  1.6361 -1.5294
 6366TIP3    H240590   4.916   0.030   0.150  0.9561 -0.2121  0.5356
 6367TIP3   OH240591   0.649   6.743  16.392  0.1227  0.1835 -0.8704
 6367TIP3    H140592   0.632   6.701  16.477 -1.5116  2.0439 -0.1864
 6367TIP3    H240593   0.657   6.670  16.331  0.4182 -1.1895  0.7172
 6368TIP3   OH240594   2.080   5.520   2.330 -0.0072  0.0911  0.0068
 6368TIP3    H140595   2.161   5.495   2.284  0.5359  2.4769 -0.4606
 6368TIP3    H240596   2.010   5.492   2.272  0.6117  0.9210 -1.1830
 6369TIP3   OH240597   2.089   6.164  12.655  0.5553 -0.1193 -0.0058
 6369TIP3    H140598   2.012   6.184  12.709 -0.3005 -0.3467 -1.0943
 6369TIP3    H240599   2.134   6.248  12.646  0.2221  0.0988  0.3259
 6370TIP3   OH240600   6.499   2.264   5.237  0.2361 -0.2292  0.1029
 6370TIP3    H140601   6.565   2.323   5.273 -0.8057  3.5638 -3.4528
 6370TIP3    H240602   6.549   2.199   5.189  1.5453  1.5490 -1.0715
 6371TIP3   OH240603   5.958   1.614  12.090  0.4641  0.2027  0.0165
 6371TIP3    H140604   5.955   1.697  12.138 -0.9087 -0.4107  1.0284
 6371TIP3    H240605   5.886   1.620  12.027 -0.9846 -1.0132  1.4872
 6372TIP3   OH240606   0.117   2.174   5.453  0.1456 -0.0710 -0.1491
 6372TIP3    H140607   0.028   2.207   5.450 -0.5843 -1.9442 -1.1541
 6372TIP3    H240608   0.128   2.140   5.542 -0.1962  0.0263 -0.0708
 6373TIP3   OH240609   1.229   0.645   2.222  0.0126 -0.6222 -0.6462
 6373TIP3    H140610   1.253   0.737   2.217 -0.7232 -0.4267 -0.6970
 6373TIP3    H240611   1.221   0.617   2.131  0.4068 -0.7932 -0.6345
 6374TIP3   OH240612   2.631   3.342   1.912 -0.1297  0.3655  0.0396
 6374TIP3    H140613   2.644   3.282   1.986 -0.1748 -0.1162 -0.3382
 6374TIP3    H240614   2.541   3.327   1.884 -0.6476  1.7258  0.9098
 6375TIP3   OH240615   1.176   6.152   3.317 -0.3667  0.5370 -0.1674
 6375TIP3    H140616   1.165   6.057   3.329 -2.3412  0.8129  0.5822
 6375TIP3    H240617   1.187   6.163   3.223  0.4536 -0.4716 -0.2065
 6376TIP3   OH240618   3.454   2.346  15.000  0.3305  0.2031 -0.1377
 6376TIP3    H140619   3.545   2.328  15.024  0.5626 -0.6595 -1.5722
 6376TIP3    H240620   3.459   2.424  14.944  0.2930 -0.2949 -0.8493
 6377TIP3   OH240621   6.745   5.520  15.892  0.0807 -0.3071 -0.1725
 6377TIP3    H140622   6.694   5.600  15.879  0.8904 -0.0093 -1.7803
 6377TIP3    H240623   6.820   5.530  15.833  0.1239 -2.3102 -0.5209
 6378TIP3   OH240624   3.234   5.041  12.198 -0.1757 -0.6079 -0.1264
 6378TIP3    H140625   3.223   4.992  12.117  1.6084  0.2215 -0.9232
 6378TIP3    H240626   3.148   5.081  12.213 -1.3844 -3.0634  0.0079
 6379TIP3   OH240627   2.472   3.295   6.674  0.4640 -0.2535 -0.3526
 6379TIP3    H140628   2.454   3.388   6.660 -0.3415 -0.3466 -0.0068
 6379TIP3    H240629   2.419   3.271   6.750  1.5666 -0.7273  0.2864
 6380TIP3   OH240630   3.721   6.226  15.587  0.4395  0.2085  0.5721
 6380TIP3    H140631   3.782   6.152  15.586 -0.0360 -0.3416 -3.4713
 6380TIP3    H240632   3.647   6.196  15.638  0.8676 -1.5999  0.2027
 6381TIP3   OH240633   0.007   1.987   2.093 -0.0533 -0.6961  0.5314
 6381TIP3    H140634  -0.083   2.006   2.118 -0.3130 -0.0328 -0.8055
 6381TIP3    H240635   0.049   1.956   2.173 -1.3670 -0.6554  1.2514
 6382TIP3   OH240636   1.704   4.555  15.948 -0.0732 -0.1571 -0.1620
 6382TIP3    H140637   1.796   4.571  15.970  0.3071 -1.3543 -0.7825
 6382TIP3    H240638   1.701   4.563  15.853 -0.7339  0.3740 -0.1080
 6383TIP3   OH240639   0.389   5.632  15.363  0.6776 -0.6100 -0.1320
 6383TIP3    H140640   0.384   5.574  15.439 -1.5165 -0.8331 -0.3754
 6383TIP3    H240641   0.327   5.703  15.383  0.5388 -0.3414 -1.4279
 6384TIP3   OH240642   0.101   0.631  15.483 -0.1138 -0.0856  0.4036
 6384TIP3    H140643   0.137   0.549  15.518 -1.1797 -0.8460 -0.2343
 6384TIP3    H240644   0.165   0.659  15.418 -0.9716 -1.8465 -1.3066
 6385TIP3   OH240645   3.453   3.986   5.787  0.0613 -0.7942 -0.1537
 6385TIP3    H140646   3.547   4.002   5.800 -0.0248 -0.2262 -0.2096
 6385TIP3    H240647   3.419   3.973   5.875  0.1305 -0.6474 -0.1045
 6386TIP3   OH240648   4.178   6.329  11.793 -0.2212 -0.3956 -0.1389
 6386TIP3    H140649   4.122   6.404  11.773 -2.0165 -1.5736  0.2484
 6386TIP3    H240650   4.195   6.288  11.708  0.4536  0.1882 -0.3049
 6387TIP3   OH240651   1.357   3.609   3.236 -0.4870 -0.1056  0.4732
 6387TIP3    H140652   1.310   3.575   3.312 -0.7348 -1.9802 -0.4597
 6387TIP3    H240653   1.329   3.553   3.163 -1.6340  2.6825 -1.4284
 6388TIP3   OH240654   3.436   0.020  15.109  0.9483  0.2649 -0.3765
 6388TIP3    H140655   3.357  -0.033  15.114 -0.2845  1.8847 -1.3623
 6388TIP3    H240656   3.423   0.089  15.174 -0.0019  2.3673 -2.6268
 6389TIP3   OH240657   3.592   3.752   3.629 -0.0191 -0.3761 -0.4467
 6389TIP3    H140658   3.637   3.824   3.672  3.1448 -2.3312 -0.1358
 6389TIP3    H240659   3.636   3.743   3.545 -0.9942 -1.3794 -0.8837
 6390TIP3   OH240660   2.723   4.218  15.759  0.1649 -0.0257 -0.3186
 6390TIP3    H140661   2.673   4.137  15.756 -0.6631  0.3213  1.9508
 6390TIP3    H240662   2.784   4.212  15.685 -1.0364 -1.9065 -1.2219
 6391TIP3   OH240663   2.205   2.131  16.957  0.2221 -0.2023 -0.0173
 6391TIP3    H140664   2.248   2.216  16.967 -0.1841  0.2776 -1.8853
 6391TIP3    H240665   2.257   2.086  16.890 -2.2249  0.5224 -2.6010
 6392TIP3   OH240666   1.397   1.962   1.232  0.5127 -0.0711  0.0391
 6392TIP3    H140667   1.490   1.979   1.248  0.6350 -0.5698 -0.1006
 6392TIP3    H240668   1.381   1.877   1.274  0.2181 -0.1747 -0.2763
 6393TIP3   OH240669   2.030   0.598  11.857 -0.2904 -0.0561  0.5351
 6393TIP3    H140670   1.989   0.634  11.778  2.7105  1.2279 -0.5765
 6393TIP3    H240671   1.992   0.511  11.866 -1.4558  0.1498 -1.7514
 6394TIP3   OH240672   0.595   4.187  14.616 -0.3052  0.0388  0.0455
 6394TIP3    H140673   0.569   4.132  14.542 -1.6830 -0.3769  0.8147
 6394TIP3    H240674   0.552   4.148  14.692  1.1546  0.4067  1.1046
 6395TIP3   OH240675   2.996   3.491   3.959 -0.6695  0.0239 -0.2002
 6395TIP3    H140676   3.070   3.524   4.009 -0.4342 -2.4625  1.2580
 6395TIP3    H240677   3.029   3.413   3.914 -2.1398 -0.6008 -0.2749
 6396TIP3   OH240678   2.456   5.104   4.521 -0.4429 -0.3330  0.8512
 6396TIP3    H140679   2.550   5.109   4.539  0.1242  0.4490 -1.9427
 6396TIP3    H240680   2.416   5.156   4.591  1.4522  1.5410  0.6561
 6397TIP3   OH240681   0.608   5.288   3.723  0.1091  0.0509 -0.3011
 6397TIP3    H140682   0.667   5.245   3.661  1.9392  1.3042  0.4883
 6397TIP3    H240683   0.582   5.219   3.783  0.6408 -0.5668 -0.7581
 6398TIP3   OH240684   0.438   3.595  11.266 -0.7574  0.1380  0.1931
 6398TIP3    H140685   0.411   3.522  11.211 -1.0829  1.2136 -1.1518
 6398TIP3    H240686   0.429   3.563  11.356 -0.5100 -1.5789 -0.3536
 6399TIP3   OH240687   2.330   0.691  14.588 -0.3392  0.0209 -0.1617
 6399TIP3    H140688   2.390   0.619  14.610  1.3594  1.0626 -1.1761
 6399TIP3    H240689   2.268   0.652  14.526 -0.3882 -0.9322  0.4579
 6400TIP3   OH240690   4.869   5.925   3.816 -0.1189  0.0308  0.1840
 6400TIP3    H140691   4.890   5.949   3.906 -0.7972 -0.4225  0.4687
 6400TIP3    H240692   4.944   5.956   3.765  0.5767 -0.3090  0.9899
 6401TIP3   OH240693   5.066   4.190   4.641  0.3875  0.4217 -0.4021
 6401TIP3    H140694   5.015   4.168   4.719  2.1294 -1.3935  0.2811
 6401TIP3    H240695   5.126   4.258   4.670  0.8520 -0.0612 -0.2298
 6402TIP3   OH240696   6.209   0.424  15.803  0.2231 -0.4705 -0.5102
 6402TIP3    H140697   6.177   0.469  15.881 -0.0780  1.4790 -1.6802
 6402TIP3    H240698   6.219   0.333  15.829  1.7118  0.3909  2.2601
 6403TIP3   OH240699   4.383   4.998   5.191 -0.3791 -0.1352 -0.7186
 6403TIP3    H140700   4.360   5.077   5.240 -2.1359 -1.5024  0.8075
 6403TIP3    H240701   4.327   5.000   5.113 -0.0854  0.3227 -0.9228
 6404TIP3   OH240702   1.905   4.252  15.106  0.2800  0.4325  0.2010
 6404TIP3    H140703   1.838   4.226  15.170  1.4423 -1.2729  0.7833
 6404TIP3    H240704   1.950   4.170  15.084  1.0351  1.2716 -1.5089
 6405TIP3   OH240705   2.340   5.814   5.317  0.7545 -0.8523  0.1873
 6405TIP3    H140706   2.305   5.729   5.290 -0.0692 -0.6631  0.6239
 6405TIP3    H240707   2.359   5.859   5.235 -1.4714 -0.3880 -0.1468
 6406TIP3   OH240708   3.668   3.321  15.339  0.4591  0.0240 -0.1251
 6406TIP3    H140709   3.685   3.264  15.414 -0.5696 -0.1536 -0.0056
 6406TIP3    H240710   3.711   3.403  15.361 -0.6192  0.2957  1.1261
 6407TIP3   OH240711   2.312   6.798   3.223 -0.1326 -0.5912 -0.4029
 6407TIP3    H140712   2.325   6.872   3.282 -1.2033 -1.4251  0.9494
 6407TIP3    H240713   2.232   6.820   3.175  0.7876  0.1282 -1.6603
 6408TIP3   OH240714   2.895   4.721   5.534  0.0918  0.1582  0.2698
 6408TIP3    H140715   2.917   4.791   5.595  0.8463  1.5234 -1.4697
 6408TIP3    H240716   2.950   4.648   5.562 -0.5726  0.2837  2.0085
 6409TIP3   OH240717   2.255   1.938   4.166  0.1819 -0.0132 -0.2750
 6409TIP3    H140718   2.346   1.915   4.149 -0.1464 -0.2830 -1.8456
 6409TIP3    H240719   2.205   1.861   4.141 -0.5550  0.4677 -0.3442
 6410TIP3   OH240720   6.020   0.542  11.868  0.7224 -0.2628 -0.6808
 6410TIP3    H140721   5.991   0.605  11.934  0.5900  0.1132 -1.0929
 6410TIP3    H240722   6.102   0.578  11.834  1.5523 -1.1702  0.2662
 6411TIP3   OH240723   6.473   4.301   4.392 -0.0468 -0.1434  0.3454
 6411TIP3    H140724   6.495   4.386   4.356  0.2713 -0.8146 -1.1130
 6411TIP3    H240725   6.556   4.266   4.425 -0.0734 -0.1168  0.4401
 6412TIP3   OH240726   4.082   3.638   4.377  0.2574  0.2059 -0.4453
 6412TIP3    H140727   4.117   3.637   4.466 -1.5896 -2.3437  0.3860
 6412TIP3    H240728   3.997   3.682   4.385  0.5860  1.0086 -1.2155
 6413TIP3   OH240729   1.241   6.588   1.115  0.1187 -0.0445 -0.0491
 6413TIP3    H140730   1.246   6.675   1.076 -0.2048  0.1199  0.2708
 6413TIP3    H240731   1.185   6.599   1.192 -1.0424 -0.7888 -0.7414
 6414TIP3   OH240732   1.272   2.966  13.995 -0.5636  0.1702  0.6754
 6414TIP3    H140733   1.268   3.023  13.918 -1.1607 -0.5419  0.1690
 6414TIP3    H240734   1.187   2.979  14.038 -1.1408 -1.1280 -0.0297
 6415TIP3   OH240735   2.245   6.740  15.530 -0.0500 -0.4943  0.3326
 6415TIP3    H140736   2.336   6.709  15.525 -0.6396 -2.2028 -0.6612
 6415TIP3    H240737   2.192   6.661  15.517 -1.6765  0.6297 -0.1571
 6416TIP3   OH240738   4.051   3.870  14.139 -0.0610 -0.3574  0.2120
 6416TIP3    H140739   3.977   3.812  14.155  0.4376 -0.7031  1.4526
 6416TIP3    H240740   4.073   3.903  14.226  1.0291 -0.0028 -0.1881
 6417TIP3   OH240741   4.843   4.738  12.745  0.1542  0.0644  0.5137
 6417TIP3    H140742   4.842   4.819  12.694  1.4934 -0.0846  0.2087
 6417TIP3    H240743   4.751   4.720  12.765 -0.5475 -0.4370 -2.7021
 6418TIP3   OH240744   0.058   5.935  14.556 -0.4483 -0.0435  0.3752
 6418TIP3    H140745   0.076   6.029  14.553 -2.0151  0.2603 -1.2667
 6418TIP3    H240746   0.034   5.918  14.647  1.0355  0.8744  0.9689
 6419TIP3   OH240747   4.125   1.065  14.415  0.2680 -0.1907 -0.0904
 6419TIP3    H140748   4.131   1.013  14.335  0.5810 -2.2273  1.1924
 6419TIP3    H240749   4.050   1.028  14.462  1.4954 -0.6228  1.6083
 6420TIP3   OH240750   1.489   0.524  13.899 -0.0540  0.1251 -0.8698
 6420TIP3    H140751   1.400   0.533  13.932 -0.6206 -0.5983 -2.1225
 6420TIP3    H240752   1.544   0.516  13.977 -1.2684 -0.9881 -0.1043
 6421TIP3   OH240753   1.690   3.880  15.277  0.1394  0.1065  0.1250
 6421TIP3    H140754   1.777   3.900  15.312  0.7266 -0.5618 -0.8919
 6421TIP3    H240755   1.695   3.787  15.254 -1.3554 -0.3369  1.4530
 6422TIP3   OH240756   4.354   6.048  13.554  0.6988  0.5314 -0.1011
 6422TIP3    H140757   4.283   6.029  13.492 -0.4089  1.2562  0.9170
 6422TIP3    H240758   4.375   5.962  13.592 -0.3106  0.4447  0.2942
 6423TIP3   OH240759   5.545   4.895  10.796  0.1643  0.2379  0.4169
 6423TIP3    H140760   5.599   4.873  10.720 -1.2735 -2.5198  0.0767
 6423TIP3    H240761   5.491   4.968  10.767  1.4936  1.0028 -0.2583
 6424TIP3   OH240762   1.974   5.248  14.660  0.7358 -0.5184 -0.4381
 6424TIP3    H140763   2.027   5.172  14.683  1.0966 -0.3317 -0.6466
 6424TIP3    H240764   2.001   5.270  14.572  0.4338 -0.3108 -0.4810
 6425TIP3   OH240765   2.623   1.021  12.046  0.1873  0.6970  0.1786
 6425TIP3    H140766   2.701   0.968  12.034 -0.7155 -0.6061 -0.1762
 6425TIP3    H240767   2.615   1.032  12.141  0.5892  0.5197  0.2321
 6426TIP3   OH240768   2.849   3.022  15.371 -0.9722  0.6391  0.7191
 6426TIP3    H140769   2.904   3.035  15.448 -0.4224 -0.3552  0.5008
 6426TIP3    H240770   2.770   2.980  15.405 -0.1415 -1.1225  0.5825
 6427TIP3   OH240771   5.848   3.861  12.239 -0.1639 -0.1259 -0.6292
 6427TIP3    H140772   5.791   3.829  12.169 -0.6609  1.2107 -0.8795
 6427TIP3    H240773   5.927   3.808  12.232 -1.1851 -1.7139 -0.5716
 6428TIP3   OH240774   4.876   4.463  14.783 -0.5489  0.1541  0.3899
 6428TIP3    H140775   4.920   4.454  14.868 -1.5703  1.7848  1.1554
 6428TIP3    H240776   4.907   4.547  14.749 -1.4813  0.3514 -0.0089
 6429TIP3   OH240777   5.266   3.459   2.511  0.4673  0.4001 -0.6176
 6429TIP3    H140778   5.336   3.521   2.493 -0.1854  1.6008  0.7147
 6429TIP3    H240779   5.269   3.447   2.606 -0.6390 -0.1162 -0.6311
 6430TIP3   OH240780   1.371   0.745  14.862 -0.2158  0.0975 -0.0487
 6430TIP3    H140781   1.401   0.687  14.933  2.4779  0.8652 -0.4443
 6430TIP3    H240782   1.335   0.685  14.796 -2.6834 -0.6493  1.8113
 6431TIP3   OH240783   5.985   5.744   2.287 -0.4394  0.4858  0.5524
 6431TIP3    H140784   6.073   5.781   2.289 -0.2888  0.1377  0.4759
 6431TIP3    H240785   5.942   5.779   2.365  1.2015 -2.8164  3.1515
 6432TIP3   OH240786   5.585   5.261   2.235 -0.1800  0.0426  0.6270
 6432TIP3    H140787   5.641   5.314   2.292 -0.6965 -0.0728  1.2552
 6432TIP3    H240788   5.531   5.324   2.188 -1.6158  0.0692  2.2266
 6433TIP3   OH240789   0.234   2.730  12.360  0.2941  0.4090 -0.0024
 6433TIP3    H140790   0.274   2.657  12.313  0.1492 -1.2240  2.2160
 6433TIP3    H240791   0.143   2.730  12.333  0.8915  1.7903 -2.2920
 6434TIP3   OH240792   6.516   1.533   1.073  0.9007  0.2039  0.3158
 6434TIP3    H140793   6.479   1.528   0.985  0.9616  0.6217  0.2608
 6434TIP3    H240794   6.611   1.539   1.059  0.8973  0.5031  0.3944
 6435TIP3   OH240795   5.985   6.370  16.986 -0.4474  0.3381  0.3778
 6435TIP3    H140796   5.989   6.461  17.017  0.1239  0.7378 -0.7755
 6435TIP3    H240797   5.907   6.368  16.930  1.3321  1.1292 -2.3822
 6436TIP3   OH240798   0.943   1.604  15.345 -0.2695  0.7118 -0.0035
 6436TIP3    H140799   1.001   1.613  15.270  1.2640  0.4911  1.0988
 6436TIP3    H240800   0.869   1.553  15.312  1.4206 -1.3928 -0.8566
 6437TIP3   OH240801   1.378   5.763  15.937 -0.4300  0.4021 -0.3211
 6437TIP3    H140802   1.393   5.669  15.929  0.6760  0.7181 -3.0729
 6437TIP3    H240803   1.283   5.772  15.944 -0.6248 -0.9019 -0.9608
 6438TIP3   OH240804   6.336   6.563   4.847  0.3002 -0.1200  0.3191
 6438TIP3    H140805   6.414   6.558   4.792 -0.2298 -2.5781 -0.3538
 6438TIP3    H240806   6.278   6.495   4.812 -2.1421  1.5737  0.8318
 6439TIP3   OH240807   2.557   2.884   3.382  0.3899 -0.3631  0.0657
 6439TIP3    H140808   2.571   2.972   3.418 -2.1061  0.1824 -0.1266
 6439TIP3    H240809   2.478   2.892   3.329  0.3868 -2.6308 -0.3624
 6440TIP3   OH240810   2.913   5.977   2.407  0.4376 -0.3457 -0.1970
 6440TIP3    H140811   2.854   5.979   2.331  0.6952  1.3763 -0.4042
 6440TIP3    H240812   2.875   5.911   2.464 -0.5549 -0.7037 -1.2182
 6441TIP3   OH240813   5.202   0.692  14.524  0.4763  0.3335  0.1390
 6441TIP3    H140814   5.260   0.636  14.576  2.4895  1.3445 -0.9167
 6441TIP3    H240815   5.209   0.658  14.435 -2.0461 -0.6608  0.2312
 6442TIP3   OH240816   6.668   0.304  14.731  0.1552  0.5633  0.0894
 6442TIP3    H140817   6.748   0.355  14.739 -0.2599  1.0995  1.0157
 6442TIP3    H240818   6.600   0.370  14.716 -0.2250  0.1892  0.1678
 6443TIP3   OH240819   1.554   5.029   3.875 -0.4743 -0.1656  0.2072
 6443TIP3    H140820   1.559   4.957   3.812  1.8003 -1.2192  1.4422
 6443TIP3    H240821   1.489   5.000   3.940 -1.2545 -0.0444 -0.5139
 6444TIP3   OH240822   1.045   3.723  16.500 -0.1337 -0.4011 -0.7988
 6444TIP3    H140823   1.100   3.795  16.470  1.1520 -0.7376  0.6410
 6444TIP3    H240824   1.106   3.651  16.515 -1.2001 -1.3201 -0.7859
 6445TIP3   OH240825   3.115   3.206  13.378  0.4877  0.0315 -0.8307
 6445TIP3    H140826   3.177   3.198  13.306  0.5934  0.4734 -0.7942
 6445TIP3    H240827   3.152   3.276  13.433 -0.1571  0.4597 -0.9251
 6446TIP3   OH240828   5.997   0.491  12.918  0.1608 -0.4204 -0.5595
 6446TIP3    H140829   6.030   0.536  12.996 -1.9689  1.1514 -0.4832
 6446TIP3    H240830   5.919   0.444  12.948 -1.7482  1.6393 -1.9598
 6447TIP3   OH240831   4.447   2.633   3.518 -0.2396 -0.0126  0.4092
 6447TIP3    H140832   4.434   2.714   3.568 -1.9893  0.1899 -0.3060
 6447TIP3    H240833   4.517   2.655   3.456 -0.9476  1.0987 -0.0294
 6448TIP3   OH240834   6.381   4.887   3.447  0.4456 -0.5212 -0.0463
 6448TIP3    H140835   6.382   4.898   3.542  4.1882 -1.0258  0.1202
 6448TIP3    H240836   6.406   4.973   3.413 -1.7556 -0.0810 -0.7326
 6449TIP3   OH240837   1.831   6.566   2.135  0.0842  0.0425 -0.1351
 6449TIP3    H140838   1.817   6.537   2.045  0.9102 -0.3138 -0.1530
 6449TIP3    H240839   1.815   6.661   2.133  2.7672  0.5384 -1.2523
 6450TIP3   OH240840   2.933   0.053  16.434  0.2761  0.2595 -0.1150
 6450TIP3    H140841   2.938   0.141  16.469  0.0168  0.4801 -0.6236
 6450TIP3    H240842   2.868   0.009  16.488  1.7634 -0.2131  1.3748
 6451TIP3   OH240843   2.920   5.273   5.937 -0.1006 -0.2090  0.2580
 6451TIP3    H140844   2.839   5.222   5.946 -1.0236  1.1812  0.0979
 6451TIP3    H240845   2.905   5.328   5.860  1.3502 -0.5265 -0.2740
 6452TIP3   OH240846   5.012   0.851  14.300 -0.0343  0.7045  0.1998
 6452TIP3    H140847   4.932   0.859  14.249  0.5830  1.4258 -0.7127
 6452TIP3    H240848   5.082   0.859  14.235  0.7773  1.2488  1.1086
 6453TIP3   OH240849   4.632   4.551  14.837 -0.2721  0.6311 -0.1499
 6453TIP3    H140850   4.568   4.508  14.780  0.0267  0.4405 -0.3415
 6453TIP3    H240851   4.714   4.507  14.819 -0.3009  0.0889  0.9401
 6454TIP3   OH240852   1.087   6.068   4.355  0.4754  0.3640 -0.0589
 6454TIP3    H140853   1.120   5.999   4.412  1.4537  0.2451 -0.7512
 6454TIP3    H240854   1.163   6.099   4.307 -0.0100  1.6990 -0.0139
 6455TIP3   OH240855   3.651   3.682   0.669  0.1046 -0.0811 -0.4084
 6455TIP3    H140856   3.704   3.637   0.603 -0.2055  1.4829 -1.7813
 6455TIP3    H240857   3.698   3.763   0.687 -0.1330 -0.2067  0.8628
 6456TIP3   OH240858   0.492   2.021  14.446  0.3161  0.4130  0.3882
 6456TIP3    H140859   0.436   2.049  14.374 -0.5463 -0.2513  0.7698
 6456TIP3    H240860   0.481   2.089  14.513 -1.8048 -0.7379  1.3288
 6457TIP3   OH240861   2.120   6.550   4.716  0.0360  0.2631  0.3585
 6457TIP3    H140862   2.122   6.645   4.724  0.6020  0.1411  1.8974
 6457TIP3    H240863   2.077   6.519   4.796  1.2679 -0.8373  0.6420
 6458TIP3   OH240864   1.407   0.031  12.510 -0.0225 -0.0351 -0.2564
 6458TIP3    H140865   1.402   0.100  12.445  0.6555 -0.9229 -1.2744
 6458TIP3    H240866   1.461   0.067  12.580 -0.4114  0.7698 -0.3586
 6459TIP3   OH240867   0.783   2.033  16.914  0.4360  0.1706 -0.8191
 6459TIP3    H140868   0.765   1.948  16.954 -1.8439  0.8043 -0.3766
 6459TIP3    H240869   0.869   2.057  16.949 -0.8476  0.1067  2.8522
 6460TIP3   OH240870   2.627   4.860   2.814  0.4476 -0.4190  0.1849
 6460TIP3    H140871   2.577   4.869   2.733  0.1221  1.2631  0.5289
 6460TIP3    H240872   2.584   4.919   2.876  0.2990 -2.1425  1.8139
 6461TIP3   OH240873   2.494   1.167   4.888  0.2741 -0.0948  0.4387
 6461TIP3    H140874   2.574   1.123   4.856  0.6826  2.1250 -1.9812
 6461TIP3    H240875   2.423   1.107   4.865  0.9917 -0.6482 -0.4212
 6462TIP3   OH240876   3.073   0.171   0.016  0.2953  0.0763  0.1538
 6462TIP3    H140877   3.163   0.195   0.038  0.7957 -0.6883 -0.9581
 6462TIP3    H240878   3.080   0.129  -0.070 -1.1657  0.2681 -0.0788
 6463TIP3   OH240879   4.738   4.979   2.833  0.1531  0.2635  0.7608
 6463TIP3    H140880   4.728   4.896   2.879  0.5231  0.2012  0.7250
 6463TIP3    H240881   4.740   5.045   2.903  0.5534  0.1830  0.8230
 6464TIP3   OH240882   4.420   2.432  13.481  0.3209 -0.0923 -0.2155
 6464TIP3    H140883   4.367   2.510  13.468 -1.7363 -1.2213  0.9613
 6464TIP3    H240884   4.487   2.458  13.544 -0.4696  0.6763  0.3225
 6465TIP3   OH240885   1.190   0.504   4.731 -0.8515 -0.2940  0.0877
 6465TIP3    H140886   1.273   0.529   4.773 -0.7400  1.4130 -1.0522
 6465TIP3    H240887   1.193   0.408   4.728  1.2801 -0.2784 -0.2657
 6466TIP3   OH240888   5.943   3.087  16.961 -0.4643 -0.2496  0.4167
 6466TIP3    H140889   6.001   3.012  16.974  0.2857  0.6529  2.7834
 6466TIP3    H240890   5.867   3.069  17.016 -0.5856  0.3927  0.4758
 6467TIP3   OH240891   3.183   6.497  16.559 -0.6540  0.1022 -0.5449
 6467TIP3    H140892   3.209   6.407  16.576 -1.1014  0.2125  0.8622
 6467TIP3    H240893   3.101   6.508  16.607  0.2294  1.7319  0.7206
 6468TIP3   OH240894   1.576   2.608  11.347 -0.0069 -0.2626 -0.4138
 6468TIP3    H140895   1.656   2.556  11.354  1.0447  1.5261  2.0380
 6468TIP3    H240896   1.595   2.671  11.277 -0.0522 -1.0808 -1.1770
 6469TIP3   OH240897   6.427   5.705   1.773  0.2650 -0.4267  0.5763
 6469TIP3    H140898   6.416   5.785   1.824 -1.0848 -1.2678  1.6912
 6469TIP3    H240899   6.445   5.638   1.839  0.3941 -1.2186 -0.2510
 6470TIP3   OH240900   0.962   4.220   1.999  0.3292  0.7802 -0.3789
 6470TIP3    H140901   1.012   4.295   1.967 -2.2295  2.3229 -1.0612
 6470TIP3    H240902   1.015   4.144   1.976  4.1166  2.3144  2.2166
 6471TIP3   OH240903   6.049   0.743  12.684  1.1795  0.2953 -0.4834
 6471TIP3    H140904   6.023   0.692  12.761  3.3722 -0.5599 -0.2580
 6471TIP3    H240905   6.025   0.833  12.706 -1.1520 -0.3210 -0.1667
 6472TIP3   OH240906   5.912   3.535  14.543  0.1153 -0.2767  0.6337
 6472TIP3    H140907   5.876   3.540  14.631 -1.4765  2.2774 -0.0449
 6472TIP3    H240908   6.004   3.514  14.556  0.1059  0.8122  2.9914
 6473TIP3   OH240909   0.469   6.744  10.705  0.0760 -0.2619 -0.2847
 6473TIP3    H140910   0.464   6.765  10.612  1.5360 -0.0384 -0.3328
 6473TIP3    H240911   0.428   6.658  10.713  1.0603 -0.8584 -1.3450
 6474TIP3   OH240912   4.632   5.597   4.852 -0.2359 -0.1238 -0.4258
 6474TIP3    H140913   4.720   5.562   4.836 -1.0542 -1.0368 -3.5869
 6474TIP3    H240914   4.638   5.689   4.825 -0.1505 -0.0474 -0.1528
 6475TIP3   OH240915   0.085   3.896   2.677 -0.6310 -0.9557  0.6430
 6475TIP3    H140916   0.082   3.971   2.736  1.7311 -0.3381  0.0667
 6475TIP3    H240917   0.178   3.881   2.661 -1.1227 -1.3715 -2.5470
 6476TIP3   OH240918   4.321   5.064   0.015 -0.2851  0.2741  0.0595
 6476TIP3    H140919   4.308   4.973   0.040 -0.8410 -0.3923 -2.4406
 6476TIP3    H240920   4.281   5.114   0.087 -0.4264 -1.4340  1.2233
 6477TIP3   OH240921   4.323   0.935  11.419  0.9465  0.1053  0.4574
 6477TIP3    H140922   4.345   0.994  11.347  0.4050 -0.2923 -0.0450
 6477TIP3    H240923   4.231   0.954  11.439  0.1500 -1.8680 -1.0126
 6478TIP3   OH240924   1.495   1.880   2.161 -0.2903 -0.2064  0.1848
 6478TIP3    H140925   1.498   1.952   2.098  2.0703  0.1427  0.5990
 6478TIP3    H240926   1.524   1.803   2.112  3.3122  0.3885  1.0568
 6479TIP3   OH240927   0.140   1.551  13.943  0.1002 -0.0624  0.1629
 6479TIP3    H140928   0.144   1.472  13.998 -0.7379 -2.3984 -2.8269
 6479TIP3    H240929   0.222   1.548  13.892 -0.0140  0.9138 -0.0937
 6480TIP3   OH240930   3.243   1.942   2.239  0.1064 -0.2418  0.4384
 6480TIP3    H140931   3.268   1.995   2.163 -1.7915  0.9984  0.6136
 6480TIP3    H240932   3.246   1.852   2.207  0.3264  0.1837 -0.7966
 6481TIP3   OH240933   2.563   6.390  16.802  0.3414 -0.1062 -0.0473
 6481TIP3    H140934   2.569   6.482  16.777  1.8255 -0.3436 -0.6273
 6481TIP3    H240935   2.493   6.355  16.746 -0.6765  0.7737  0.6222
 6482TIP3   OH240936   2.139   4.192   1.393  0.2275 -0.3996 -1.0549
 6482TIP3    H140937   2.164   4.268   1.445  1.1851 -1.7614  0.5744
 6482TIP3    H240938   2.044   4.196   1.388  0.1099 -0.1522  0.7479
 6483TIP3   OH240939   4.642   2.623  13.258 -0.0009 -0.0954 -0.4301
 6483TIP3    H140940   4.642   2.663  13.345  1.2257  2.7929 -1.6115
 6483TIP3    H240941   4.550   2.624  13.231 -0.4687 -1.4666  0.9294
 6484TIP3   OH240942   1.021   6.585   5.492  0.1737 -0.4187 -0.3578
 6484TIP3    H140943   1.032   6.582   5.587  1.1620 -0.7361 -0.4698
 6484TIP3    H240944   0.949   6.647   5.478 -0.3080 -0.7377  0.6136
 6485TIP3   OH240945   5.019   1.905  15.155 -0.1011 -0.1391 -0.4256
 6485TIP3    H140946   4.992   1.950  15.235  0.4134  0.5461 -0.6261
 6485TIP3    H240947   4.999   1.967  15.084  0.8545 -0.1046 -0.6818
 6486TIP3   OH240948   0.668   0.120  12.485 -0.2851 -0.1328 -0.3270
 6486TIP3    H140949   0.667   0.142  12.392 -0.3560  0.5567 -0.1671
 6486TIP3    H240950   0.685   0.203  12.529  0.0376 -0.5109  0.2620
 6487TIP3   OH240951   1.182   4.427  16.814  0.6107 -0.3415  0.2938
 6487TIP3    H140952   1.113   4.490  16.836  0.5107 -0.0504 -0.8290
 6487TIP3    H240953   1.161   4.398  16.726  1.6842 -0.5896  0.1097
 6488TIP3   OH240954   4.513   0.876  11.120  0.7864  0.0474  0.2082
 6488TIP3    H140955   4.487   0.962  11.151 -1.9805 -0.3951 -0.5951
 6488TIP3    H240956   4.481   0.816  11.187 -2.4516 -0.6697 -1.7421
 6489TIP3   OH240957   2.779   2.237  15.698 -0.4888  0.4566 -0.3612
 6489TIP3    H140958   2.721   2.289  15.642  0.1980 -0.1283 -1.6763
 6489TIP3    H240959   2.721   2.193  15.760 -1.1079  2.6060  0.6845
 6490TIP3   OH240960   5.189   3.642  12.493 -0.2008 -0.1470  0.0481
 6490TIP3    H140961   5.238   3.634  12.575 -1.7415 -1.5730  0.8788
 6490TIP3    H240962   5.257   3.642  12.425  1.0804  0.6074  1.2696
 6491TIP3   OH240963   3.267   2.998  16.857 -0.6818  0.2046  0.0564
 6491TIP3    H140964   3.228   2.927  16.806 -0.3477 -0.2765  0.4605
 6491TIP3    H240965   3.269   3.073  16.796 -2.0960  0.2158 -0.0136
 6492TIP3   OH240966   1.218   6.064  15.965  0.3774  0.6149 -0.1657
 6492TIP3    H140967   1.259   5.986  16.002 -0.2991  0.4746  0.3023
 6492TIP3    H240968   1.254   6.136  16.015  1.0847  0.6217 -0.6670
 6493TIP3   OH240969   5.756   0.062  14.241  0.4756  0.1337 -0.1487
 6493TIP3    H140970   5.714   0.011  14.310  0.2644  2.6102  1.7166
 6493TIP3    H240971   5.703   0.141  14.234  1.4494  0.6948 -2.0235
 6494TIP3   OH240972   2.748   6.415   2.982 -0.2835  0.0499 -0.1855
 6494TIP3    H140973   2.690   6.380   2.913  0.0137 -0.4624 -0.1796
 6494TIP3    H240974   2.803   6.478   2.937 -0.9610  0.6726 -0.1586
 6495TIP3   OH240975   1.795   5.879   1.334 -0.1386  0.2606 -0.7115
 6495TIP3    H140976   1.733   5.806   1.332 -0.6165  0.6422 -0.1848
 6495TIP3    H240977   1.836   5.878   1.248 -0.8890  0.0083 -1.0718
 6496TIP3   OH240978   1.406   3.045  14.224 -0.3112  0.2405 -0.0101
 6496TIP3    H140979   1.483   2.989  14.211 -0.5421 -0.0756 -0.0360
 6496TIP3    H240980   1.341   3.010  14.163 -0.2501  0.9421 -0.4885
 6497TIP3   OH240981   4.831   3.353   5.004 -0.3726 -0.4858 -0.0577
 6497TIP3    H140982   4.852   3.446   5.014  0.6638 -0.8880  2.2034
 6497TIP3    H240983   4.740   3.352   4.975 -1.0457  1.2485  1.7612
 6498TIP3   OH240984   3.964   1.754  12.911  0.1794  0.0898  0.0300
 6498TIP3    H140985   3.920   1.721  12.833  0.0464  1.5087 -0.5223
 6498TIP3    H240986   4.040   1.801  12.877 -0.2682  1.3320  0.6879
 6499TIP3   OH240987   0.924   5.881   3.931  0.0580  0.1907  0.2653
 6499TIP3    H140988   0.905   5.813   3.866  0.5323  1.6448 -1.4675
 6499TIP3    H240989   0.981   5.837   3.995 -0.3662 -1.2730 -0.3165
 6500TIP3   OH240990   3.197   3.281   1.737  0.5019 -0.0537 -0.8565
 6500TIP3    H140991   3.135   3.242   1.799  0.5497  3.0764  1.4397
 6500TIP3    H240992   3.155   3.270   1.652 -1.1226 -1.7743  0.0718
 6501TIP3   OH240993   4.333   1.671   6.604 -0.1800 -0.2177 -0.2027
 6501TIP3    H140994   4.262   1.732   6.585 -1.1174  1.2125  5.8518
 6501TIP3    H240995   4.413   1.723   6.592 -0.6763  0.6316  0.0869
 6502TIP3   OH240996   6.248   3.794  15.329 -0.1800  0.3925 -0.2326
 6502TIP3    H140997   6.274   3.724  15.270  0.4346  1.3715 -1.1766
 6502TIP3    H240998   6.310   3.788  15.402  1.1934  1.1744 -1.2857
 6503TIP3   OH240999   3.552   2.903  10.942 -0.0991 -0.5003  0.1220
 6503TIP3    H141000   3.624   2.852  10.980  0.9337  1.0908  0.3705
 6503TIP3    H241001   3.573   2.994  10.963 -1.3937  0.1278 -1.1565
 6504TIP3   OH241002   6.207   0.784  12.935 -0.0702  0.0197  0.2137
 6504TIP3    H141003   6.302   0.779  12.930 -0.0198 -2.0052  1.8141
 6504TIP3    H241004   6.184   0.861  12.882  2.3194 -0.2047 -1.2903
 6505TIP3   OH241005   5.571   4.564   3.617 -0.0465 -0.1111  0.2276
 6505TIP3    H141006   5.556   4.629   3.548 -1.9202 -1.7441 -1.0086
 6505TIP3    H241007   5.640   4.508   3.584 -0.6290 -0.6200 -0.1496
 6506TIP3   OH241008   2.329   4.722  11.348 -0.2150  0.4702  0.0070
 6506TIP3    H141009   2.353   4.804  11.392 -1.5326 -0.6637  3.0863
 6506TIP3    H241010   2.237   4.709  11.371 -0.2827 -1.4664 -1.1682
 6507TIP3   OH241011   2.450   2.990  15.153 -0.1549  0.0340 -0.2491
 6507TIP3    H141012   2.460   3.083  15.175 -1.4205  0.7092 -2.2764
 6507TIP3    H241013   2.395   2.955  15.223  0.2430  0.8240  0.4735
 6508TIP3   OH241014   2.229   4.510  11.623  0.4950  0.0844 -0.2763
 6508TIP3    H141015   2.256   4.587  11.673  0.0698 -1.1894  2.0736
 6508TIP3    H241016   2.293   4.443  11.645  1.3513 -0.0716 -2.9514
 6509TIP3   OH241017   6.350   0.904  14.761 -0.1523  0.0713  0.5055
 6509TIP3    H141018   6.332   0.976  14.821  2.0812  0.3034  0.9983
 6509TIP3    H241019   6.441   0.879  14.780  0.0252 -1.0751 -1.5165
 6510TIP3   OH241020   2.389   5.069   4.274 -0.6495 -0.0269 -0.2170
 6510TIP3    H141021   2.422   5.104   4.357 -0.0743  0.2256 -0.5421
 6510TIP3    H241022   2.451   4.998   4.253 -0.4030  0.3433 -0.7547
 6511TIP3   OH241023   4.449   1.146   1.080 -0.0116  0.1191  0.2040
 6511TIP3    H141024   4.459   1.081   1.149  0.9412  0.4728  0.4159
 6511TIP3    H241025   4.468   1.230   1.123  2.6411  0.1745 -0.8650
 6512TIP3   OH241026   2.947   0.792  15.815  0.7820  0.6228 -0.0761
 6512TIP3    H141027   2.881   0.735  15.857  0.8403 -0.2222 -1.0873
 6512TIP3    H241028   2.975   0.851  15.885  0.4083 -0.3223  0.9110
 6513TIP3   OH241029   2.354   2.143   0.380 -0.1223  0.4444  0.3128
 6513TIP3    H141030   2.291   2.138   0.451  1.4584  0.9225  1.8350
 6513TIP3    H241031   2.319   2.210   0.321 -1.0375  0.6958  1.1169
 6514TIP3   OH241032   2.516   2.967   0.488 -0.0847 -0.4815  0.0639
 6514TIP3    H141033   2.525   3.007   0.402  3.0460  0.3888  0.6743
 6514TIP3    H241034   2.431   2.921   0.485  0.3483 -1.3500 -3.7817
 6515TIP3   OH241035   0.845   3.560  11.382 -0.4065  0.3209  0.0612
 6515TIP3    H141036   0.909   3.563  11.453  0.5856 -0.7596 -0.7520
 6515TIP3    H241037   0.778   3.499  11.411  0.9866 -1.6528 -0.6635
 6516TIP3   OH241038   4.096   1.949  12.462 -0.2771  0.0753  0.0361
 6516TIP3    H141039   4.144   2.032  12.454 -0.0709 -0.0747 -0.2910
 6516TIP3    H241040   4.164   1.884  12.478 -0.5332  0.1248  1.4503
 6517TIP3   OH241041   3.861   5.595  17.125 -0.0150 -0.8523 -0.1372
 6517TIP3    H141042   3.944   5.641  17.110  0.2083 -1.9765 -2.7607
 6517TIP3    H241043   3.882   5.502  17.118 -1.5997 -1.1524 -1.8684
 6518TIP3   OH241044   5.391   0.793  15.059  0.6999  0.0889  0.3390
 6518TIP3    H141045   5.311   0.788  15.006  1.2771 -1.2763 -0.4481
 6518TIP3    H241046   5.367   0.752  15.142  0.1066  1.2636  0.7776
 6519TIP3   OH241047   4.416   3.654  15.740 -0.6303  0.6276  0.6710
 6519TIP3    H141048   4.330   3.669  15.779 -0.8482 -0.2687  0.5699
 6519TIP3    H241049   4.424   3.721  15.672 -1.7674 -0.0257 -0.1346
 6520TIP3   OH241050   3.037   4.165   0.232  0.9435 -0.2940 -0.3407
 6520TIP3    H141051   3.022   4.247   0.279  1.2000 -0.5160  0.1398
 6520TIP3    H241052   3.108   4.123   0.280  2.8496  0.5096 -2.2732
 6521TIP3   OH241053   3.586   1.871   5.831 -0.2284 -0.1055  0.1078
 6521TIP3    H141054   3.613   1.874   5.740  1.6650  1.1986  0.6517
 6521TIP3    H241055   3.641   1.802   5.870 -0.8799 -0.5118  0.3323
 6522TIP3   OH241056   4.023   1.650   2.388  0.0805  0.0598 -0.4731
 6522TIP3    H141057   4.018   1.556   2.401 -0.4349  0.0820 -0.5114
 6522TIP3    H241058   4.089   1.680   2.451  0.2029 -0.3129 -0.4226
 6523TIP3   OH241059   2.912   5.235   5.092 -0.4178  0.0786 -0.3005
 6523TIP3    H141060   2.983   5.176   5.068 -1.0725 -1.0474  0.4420
 6523TIP3    H241061   2.875   5.264   5.009 -1.7571 -2.6274 -0.7332
 6524TIP3   OH241062   6.777   0.536   4.992  0.6666  0.0258  0.6012
 6524TIP3    H141063   6.868   0.547   5.021  0.0138  0.0766  2.8137
 6524TIP3    H241064   6.732   0.501   5.069 -1.6720  2.1858  0.3358
 6525TIP3   OH241065   2.005   2.184  15.617  0.0157  0.0061 -0.2678
 6525TIP3    H141066   2.080   2.237  15.589 -0.8730  0.8283 -1.1368
 6525TIP3    H241067   1.929   2.240  15.603 -0.8863 -1.2296 -0.4722
 6526TIP3   OH241068   5.937   4.649   0.116  0.3364 -0.6622  0.0265
 6526TIP3    H141069   5.906   4.588   0.049 -1.2496  0.1602 -0.0152
 6526TIP3    H241070   6.030   4.628   0.125  0.1508 -2.1161 -1.0058
 6527TIP3   OH241071   5.061   4.602   5.132  0.2443 -0.2568 -0.4359
 6527TIP3    H141072   5.103   4.648   5.205 -0.6969 -0.1721  0.0642
 6527TIP3    H241073   5.132   4.549   5.093  1.0208  0.5761 -0.1874
 6528TIP3   OH241074   5.557   0.015  12.312 -0.0406  0.4047 -0.2441
 6528TIP3    H141075   5.563   0.084  12.378 -1.6778 -0.0380  0.4466
 6528TIP3    H241076   5.467   0.021  12.280  0.0342 -0.8885 -0.7518
 6529TIP3   OH241077   4.077   0.136  13.465 -0.0223 -0.3913 -0.1765
 6529TIP3    H141078   3.989   0.172  13.475 -0.2878 -1.3188  1.0298
 6529TIP3    H241079   4.079   0.060  13.523  1.8115  0.0213  0.3863
 6530TIP3   OH241080   3.650   3.363  13.256 -0.1212  0.6382 -0.6970
 6530TIP3    H141081   3.644   3.438  13.197 -0.4118 -0.1126 -1.6486
 6530TIP3    H241082   3.629   3.398  13.342 -1.1898  1.4694 -1.2814
 6531TIP3   OH241083   3.740   1.387  11.514  0.1332  0.0816  0.2291
 6531TIP3    H141084   3.656   1.432  11.510 -0.5210 -1.1762 -1.1392
 6531TIP3    H241085   3.763   1.368  11.423  0.3801 -2.2333  0.6907
 6532TIP3   OH241086   6.624   4.845   1.326  0.7495 -0.3331 -0.2767
 6532TIP3    H141087   6.565   4.810   1.392  1.0452 -1.0895 -0.3974
 6532TIP3    H241088   6.599   4.937   1.317  1.8680  0.2786  2.1506
 6533TIP3   OH241089   2.855   6.264   1.970 -0.6554 -0.4471  0.2484
 6533TIP3    H141090   2.932   6.235   2.018 -0.2048  1.8098  0.9763
 6533TIP3    H241091   2.786   6.270   2.036 -0.2704  1.7613  0.5361
 6534TIP3   OH241092   5.985   0.596  16.637 -0.4439 -0.5091 -0.2236
 6534TIP3    H141093   5.891   0.576  16.643 -0.3232 -1.3742 -1.0899
 6534TIP3    H241094   6.028   0.511  16.639  0.2290 -0.2125 -1.3968
 6535TIP3   OH241095   5.303   1.096  16.409  0.0750  0.0626 -0.1376
 6535TIP3    H141096   5.290   1.190  16.419 -0.5560 -0.2032  1.8614
 6535TIP3    H241097   5.360   1.072  16.482  1.8826 -0.8274 -1.7539
 6536TIP3   OH241098   3.949   5.747   1.810  0.2175  0.2262 -0.9614
 6536TIP3    H141099   4.039   5.715   1.817 -0.2516 -1.2238 -1.2189
 6536TIP3    H241100   3.936   5.799   1.889  1.2152  0.2531 -0.8102
 6537TIP3   OH241101   3.440   3.398   1.779  0.2429  0.2075 -0.3727
 6537TIP3    H141102   3.357   3.408   1.826  0.5736 -0.2239  0.3267
 6537TIP3    H241103   3.416   3.368   1.692 -0.3357  0.0289 -0.1531
 6538TIP3   OH241104   5.784   3.905   1.370  0.2360 -0.4052 -0.5627
 6538TIP3    H141105   5.796   3.999   1.373 -1.0434 -0.2367 -0.1520
 6538TIP3    H241106   5.706   3.888   1.424  0.1640 -1.6362 -1.0022
 6539TIP3   OH241107   5.621   2.047  11.656  0.1824  0.4509 -0.3684
 6539TIP3    H141108   5.659   1.963  11.631 -0.7994 -0.2809  0.5249
 6539TIP3    H241109   5.650   2.108  11.588  0.6149 -0.6801 -1.2208
 6540TIP3   OH241110   5.043   4.552  13.394  0.3643 -0.1539 -0.9618
 6540TIP3    H141111   5.080   4.589  13.314 -0.9078  4.0106  0.1101
 6540TIP3    H241112   5.118   4.531  13.449  1.2192 -2.1096 -2.7714
 6541TIP3   OH241113   5.772   2.507   4.922  0.6711 -0.3348 -0.4541
 6541TIP3    H141114   5.681   2.482   4.937  1.0598 -2.1180 -0.8073
 6541TIP3    H241115   5.808   2.522   5.009  0.2672 -0.4616 -0.2652
 6542TIP3   OH241116   3.653   0.398  11.965  0.5243 -0.1932  0.1929
 6542TIP3    H141117   3.719   0.365  12.025  1.3406 -1.3117 -1.2633
 6542TIP3    H241118   3.683   0.372  11.878 -1.9363 -0.9848 -0.5210
 6543TIP3   OH241119   5.536   0.660   4.980 -0.3553 -0.5144 -0.1227
 6543TIP3    H141120   5.612   0.656   5.038  0.1727  0.0599 -0.7407
 6543TIP3    H241121   5.463   0.686   5.036 -0.0116 -0.6877  0.4103
 6544TIP3   OH241122   3.780   1.486  10.962 -0.1888 -0.1525 -0.0565
 6544TIP3    H141123   3.713   1.431  10.922 -0.8151 -0.8130  1.8067
 6544TIP3    H241124   3.733   1.537  11.028  0.8982  0.4365  0.2886
 6545TIP3   OH241125   1.786   3.635   5.722 -0.0497  0.0824  0.0812
 6545TIP3    H141126   1.867   3.659   5.676 -1.1917  1.2357 -1.4339
 6545TIP3    H241127   1.744   3.718   5.741  0.2282 -0.3718  3.0782
 6546TIP3   OH241128   4.650   3.045   2.131 -0.1084 -0.0958  0.2238
 6546TIP3    H141129   4.721   3.043   2.195  0.0828 -1.5215 -0.0093
 6546TIP3    H241130   4.579   3.092   2.175  0.6919  0.6520  0.7455
 6547TIP3   OH241131   4.028   5.356  17.029  0.0143  0.2550 -0.6786
 6547TIP3    H141132   4.000   5.288  17.090  0.8687 -0.2774 -0.8505
 6547TIP3    H241133   3.965   5.352  16.957  1.7354 -2.5422 -2.2267
 6548TIP3   OH241134   2.348   2.617   1.135  0.0573  0.0886  0.2055
 6548TIP3    H141135   2.301   2.548   1.182 -2.4048  1.1011 -0.6426
 6548TIP3    H241136   2.350   2.587   1.044  0.5747  0.3459  0.1246
 6549TIP3   OH241137   6.635   3.458  14.339 -0.5076  0.3083 -0.0689
 6549TIP3    H141138   6.676   3.372  14.348 -0.4219  0.3118 -0.4009
 6549TIP3    H241139   6.576   3.465  14.414 -1.1191 -0.3730 -0.4727
 6550TIP3   OH241140   4.814   3.855   2.375  0.3252 -0.3512  0.2400
 6550TIP3    H141141   4.745   3.921   2.371  0.5964 -0.0861 -0.0872
 6550TIP3    H241142   4.868   3.872   2.298  0.9493 -0.3339  0.6753
 6551TIP3   OH241143   4.388   0.570   0.553 -0.0037 -0.5951  0.1515
 6551TIP3    H141144   4.472   0.592   0.592 -0.8910  0.8679  1.3540
 6551TIP3    H241145   4.372   0.641   0.490 -0.5373 -0.6113  0.2611
 6552TIP3   OH241146   3.492   1.832  12.394  0.3214 -0.4162  0.5927
 6552TIP3    H141147   3.548   1.910  12.402  1.9169 -1.1179 -2.4583
 6552TIP3    H241148   3.551   1.763  12.363 -1.5819 -2.1865  0.7081
 6553TIP3   OH241149   0.128   2.287   4.765 -0.0734 -0.3228 -0.5995
 6553TIP3    H141150   0.051   2.344   4.760 -0.3049 -0.5701  0.0123
 6553TIP3    H241151   0.132   2.262   4.857  0.6969 -0.3764 -0.6437
 6554TIP3   OH241152   1.181   0.122   5.998 -0.4730  0.3918  0.6179
 6554TIP3    H141153   1.123   0.183   6.043 -0.4830  1.4332 -0.7595
 6554TIP3    H241154   1.145   0.115   5.910  1.0893  0.5220 -0.0646
 6555TIP3   OH241155   4.862   3.709   6.404  0.4229 -0.2183  0.2989
 6555TIP3    H141156   4.937   3.677   6.354  1.3722 -1.6048  2.4368
 6555TIP3    H241157   4.804   3.633   6.412  0.3664 -0.0815  1.3690
 6556TIP3   OH241158   5.456   6.716   4.794 -0.6227  0.5112  0.2822
 6556TIP3    H141159   5.436   6.692   4.885 -1.9207  1.2884  0.2158
 6556TIP3    H241160   5.376   6.697   4.746  0.0127  0.2414 -0.6858
 6557TIP3   OH241161   1.671   2.420   2.701 -0.0497 -0.2018  0.1664
 6557TIP3    H141162   1.618   2.436   2.779 -1.2507 -1.6394 -0.2938
 6557TIP3    H241163   1.612   2.438   2.628  0.7448  0.1515 -0.4042
 6558TIP3   OH241164   3.052   3.060  16.363 -0.2057  0.3206  0.7768
 6558TIP3    H141165   3.094   3.095  16.285 -1.4231  0.0169 -0.0569
 6558TIP3    H241166   2.962   3.092  16.358 -0.1855  0.7173  2.3431
 6559TIP3   OH241167   2.783   4.234  13.574  0.3011  0.2619  0.1461
 6559TIP3    H141168   2.810   4.167  13.637  2.0279 -0.6032 -1.4359
 6559TIP3    H241169   2.699   4.203  13.541  0.5070 -0.5066  0.3216
 6560TIP3   OH241170   0.794   1.498  14.781  0.0584 -0.0108  0.0195
 6560TIP3    H141171   0.860   1.480  14.713 -0.6423 -0.0907 -0.6479
 6560TIP3    H241172   0.845   1.532  14.855  1.1897 -2.5038  0.4918
 6561TIP3   OH241173   6.165   1.693  10.308  0.2802  0.9615 -0.2941
 6561TIP3    H141174   6.071   1.679  10.294  0.4704 -1.2420  0.2651
 6561TIP3    H241175   6.189   1.757  10.242 -1.1041 -0.4688 -2.3064
 6562TIP3   OH241176   2.963   0.737  15.490  0.6017 -0.0054 -0.4040
 6562TIP3    H141177   2.967   0.832  15.485 -2.5578  0.1839 -1.4688
 6562TIP3    H241178   2.945   0.719  15.583  0.6396  0.4887 -0.2968
 6563TIP3   OH241179   3.345   2.989  17.109 -0.2693 -0.1648  0.1811
 6563TIP3    H141180   3.358   2.999  17.015 -2.1914  0.0964 -0.0960
 6563TIP3    H241181   3.327   3.078  17.141  0.6069 -0.2144  0.8451
 6564TIP3   OH241182   1.778   4.350  13.240 -0.4234  0.0420  0.0320
 6564TIP3    H141183   1.868   4.353  13.208 -0.8599  2.2157 -1.1770
 6564TIP3    H241184   1.778   4.405  13.318 -0.7571  0.3436 -0.1759
 6565TIP3   OH241185   0.421   3.759  14.220 -0.2268 -0.2426  0.4836
 6565TIP3    H141186   0.412   3.716  14.305  4.5485  0.0032  1.4014
 6565TIP3    H241187   0.428   3.687  14.157 -0.2283 -0.5422  0.8243
 6566TIP3   OH241188   3.310   2.225   1.392  0.1017 -0.0709  0.2706
 6566TIP3    H141189   3.262   2.174   1.457 -0.8285 -1.3488 -1.3508
 6566TIP3    H241190   3.241   2.260   1.335  0.8325  1.8183  0.4661
 6567TIP3   OH241191   2.691   0.015  16.593  0.5847 -0.1975 -0.2295
 6567TIP3    H141192   2.673   0.055  16.679  1.2761  1.2712 -0.7351
 6567TIP3    H241193   2.607   0.016  16.548  0.4385  0.0052  0.0437
 6568TIP3   OH241194   0.732   6.540  16.184  0.6198 -0.2097 -0.0026
 6568TIP3    H141195   0.808   6.518  16.129 -0.7663 -1.3636 -1.5902
 6568TIP3    H241196   0.730   6.471  16.250  0.5031 -0.6735 -0.4770
 6569TIP3   OH241197   1.515   3.505  16.336  0.3298 -0.1041  0.2431
 6569TIP3    H141198   1.452   3.450  16.384 -0.4202  0.1431 -0.4292
 6569TIP3    H241199   1.460   3.572  16.294  1.2011  1.0289  0.8632
 6570TIP3   OH241200   6.718   0.170   5.301 -0.4953  0.5403 -0.4775
 6570TIP3    H141201   6.693   0.261   5.285  1.8362  1.0928 -1.3689
 6570TIP3    H241202   6.807   0.163   5.267  0.2644 -1.4747  1.6220
 6571TIP3   OH241203   0.269   1.562   0.589 -0.0178 -0.2406 -0.4779
 6571TIP3    H141204   0.293   1.540   0.500  0.6588 -2.8871  0.2673
 6571TIP3    H241205   0.173   1.564   0.589 -0.0751 -1.8041 -0.9741
 6572TIP3   OH241206   4.736   1.306   0.370 -1.1413  0.1320 -0.5386
 6572TIP3    H141207   4.705   1.216   0.360 -2.1468  0.3452  0.4240
 6572TIP3    H241208   4.801   1.317   0.301 -0.9002 -1.3729 -0.5857
 6573TIP3   OH241209   1.584   0.933  14.836 -0.2257  0.4425  0.3510
 6573TIP3    H141210   1.543   0.975  14.761 -1.4045  0.8127  1.1894
 6573TIP3    H241211   1.529   0.857  14.854 -1.4780  1.7276  2.3735
 6574TIP3   OH241212   2.030   2.705   1.460 -0.2443  0.7729  0.0631
 6574TIP3    H141213   2.054   2.615   1.483 -0.7308  0.5115 -0.4465
 6574TIP3    H241214   2.111   2.755   1.472  0.6004 -0.0986 -1.6908
 6575TIP3   OH241215   3.218   0.803  11.349  0.5741  0.0831 -0.3913
 6575TIP3    H141216   3.234   0.866  11.419 -0.2859  0.7648 -0.7980
 6575TIP3    H241217   3.305   0.786  11.313  1.2178 -1.2271  1.6054
 6576TIP3   OH241218   6.495   2.692   3.693 -0.2891 -0.0717 -0.7856
 6576TIP3    H141219   6.455   2.606   3.705  0.0534  0.1564  4.6217
 6576TIP3    H241220   6.424   2.754   3.709  0.6745  0.3966  2.3406
 6577TIP3   OH241221   2.419   4.198  12.692  0.1324 -0.2253  0.7597
 6577TIP3    H141222   2.368   4.190  12.612  0.6905  1.6528  0.1677
 6577TIP3    H241223   2.373   4.142  12.755 -2.1474  0.6668 -0.0009
 6578TIP3   OH241224   4.382   0.704  14.344 -0.5341 -0.3171  0.3713
 6578TIP3    H141225   4.437   0.654  14.404 -0.5462 -1.3770 -0.4898
 6578TIP3    H241226   4.294   0.698  14.382 -0.5442 -0.9895  0.2497
 6579TIP3   OH241227   4.021   4.974   3.917 -0.2324 -0.3583  0.1906
 6579TIP3    H141228   4.062   4.998   4.000 -1.7903  1.7182  0.4715
 6579TIP3    H241229   3.938   5.023   3.918 -1.2293 -1.9107 -1.6855
 6580TIP3   OH241230   4.780   1.501  13.581  0.3059 -0.5779  0.1500
 6580TIP3    H141231   4.826   1.418  13.595  0.8167 -0.2429  0.5070
 6580TIP3    H241232   4.827   1.564  13.637 -0.6971 -0.2587  0.6553
 6581TIP3   OH241233   5.109   2.815   3.174  0.0695 -0.2369  0.1091
 6581TIP3    H141234   5.201   2.807   3.198  0.1060 -0.1765 -0.0089
 6581TIP3    H241235   5.110   2.823   3.078 -0.0525 -0.1542  0.1152
 6582TIP3   OH241236   1.995   2.971   5.388  0.3948  0.0639  0.6558
 6582TIP3    H141237   1.959   2.940   5.305 -3.7221 -0.0298  2.2322
 6582TIP3    H241238   2.044   2.897   5.422  1.2667 -0.2460 -1.1464
 6583TIP3   OH241239   4.136   3.998  11.853  0.1755  0.5140  0.0072
 6583TIP3    H141240   4.068   3.937  11.882  1.5987 -0.8770  0.6043
 6583TIP3    H241241   4.088   4.071  11.815 -1.6756  0.3103  1.7799
 6584TIP3   OH241242   2.256   5.602  15.575  0.1763 -0.2634  0.0218
 6584TIP3    H141243   2.303   5.683  15.562  0.8616 -0.3648  1.6095
 6584TIP3    H241244   2.170   5.629  15.610  0.6165 -0.2115  1.1118
 6585TIP3   OH241245   0.432   0.067  14.339 -0.4238 -0.3158  0.3571
 6585TIP3    H141246   0.465   0.149  14.301  1.0082 -1.3386 -0.7051
 6585TIP3    H241247   0.509   0.025  14.375 -0.8433 -1.9214 -0.5255
 6586TIP3   OH241248   5.473   1.747   5.992 -0.1828 -0.6326 -0.3161
 6586TIP3    H141249   5.501   1.756   6.084  1.9099  1.0433 -1.0303
 6586TIP3    H241250   5.391   1.795   5.987  0.4532  0.5654  0.3896
 6587TIP3   OH241251   5.660   5.869   2.801 -0.2328  0.0613  0.1457
 6587TIP3    H141252   5.746   5.908   2.791  0.3027 -1.0686  0.2314
 6587TIP3    H241253   5.613   5.928   2.860  0.8349  0.1149  0.9562
 6588TIP3   OH241254   3.737   5.366  11.208 -0.2445  0.0062  0.1307
 6588TIP3    H141255   3.718   5.391  11.117 -0.0825  0.7704  0.3023
 6588TIP3    H241256   3.651   5.352  11.247 -0.3936  1.2488  0.2868
 6589TIP3   OH241257   4.685   3.946   3.214 -0.2483 -0.0721 -0.2393
 6589TIP3    H141258   4.691   3.858   3.250  0.4752  0.2354  0.4113
 6589TIP3    H241259   4.651   3.933   3.125 -0.3879 -0.9767 -0.0634
 6590TIP3   OH241260   2.043   3.946   0.239 -0.0501  0.1678  0.4068
 6590TIP3    H141261   2.133   3.914   0.247  0.3659  1.4019  1.1032
 6590TIP3    H241262   1.992   3.889   0.297  0.5665  0.3737  1.1793
 6591TIP3   OH241263   3.304   6.279  11.777 -0.3871 -0.5903 -0.5057
 6591TIP3    H141264   3.342   6.192  11.789  0.9751  0.1337  0.7860
 6591TIP3    H241265   3.234   6.266  11.713  0.1462 -2.5223 -0.7637
 6592TIP3   OH241266   5.593   6.547   0.694 -0.6072  0.1575  0.5568
 6592TIP3    H141267   5.595   6.455   0.722 -0.3931 -0.5936 -1.7077
 6592TIP3    H241268   5.499   6.567   0.688 -0.6628 -0.1532  0.3381
 6593TIP3   OH241269   2.210   4.054   3.064 -0.4536 -0.4643 -0.2326
 6593TIP3    H141270   2.195   4.081   2.974 -1.9242  0.4459  0.2404
 6593TIP3    H241271   2.145   3.986   3.081 -0.8397  0.0542  0.4168
 6594TIP3   OH241272   2.219   0.076   5.843  0.6752 -0.1003 -0.2782
 6594TIP3    H141273   2.198   0.041   5.757  2.4292  0.8616 -1.1599
 6594TIP3    H241274   2.273   0.009   5.885  0.4347 -0.2573 -0.2187
 6595TIP3   OH241275   5.194   6.059   1.942  0.5491  0.0622  0.0899
 6595TIP3    H141276   5.266   6.033   1.999 -0.3914  1.6708  2.1376
 6595TIP3    H241277   5.193   6.155   1.946 -1.5333  0.1064 -0.0248
 6596TIP3   OH241278   3.469   2.345   4.512  0.6285 -0.3206  0.4705
 6596TIP3    H141279   3.430   2.299   4.587  2.1117 -1.5796  0.5062
 6596TIP3    H241280   3.472   2.279   4.442  0.6976  0.3917 -0.2153
 6597TIP3   OH241281   5.177   6.532  11.040  0.0398  0.3567  0.5257
 6597TIP3    H141282   5.169   6.455  10.984  2.3601 -0.7625  1.6185
 6597TIP3    H241283   5.148   6.605  10.984  0.9845 -0.8710 -1.6710
 6598TIP3   OH241284   2.763   2.160  12.363  1.0228 -0.0794  0.4284
 6598TIP3    H141285   2.684   2.110  12.342  2.3161 -2.8005  1.4458
 6598TIP3    H241286   2.810   2.167  12.280 -0.6665  2.4834 -0.4056
 6599TIP3   OH241287   0.917   3.728   0.692 -0.1567 -0.3540 -0.5184
 6599TIP3    H141288   0.999   3.698   0.653 -0.9251 -0.2109 -2.3339
 6599TIP3    H241289   0.894   3.659   0.755  1.6196 -0.1102  0.4820
 6600TIP3   OH241290   4.326   2.994  13.968 -0.4436  0.0943 -0.0917
 6600TIP3    H141291   4.290   2.906  13.973 -0.0362 -0.0761 -0.1005
 6600TIP3    H241292   4.383   2.992  13.891  0.3799  0.0590  0.5071
 6601TIP3   OH241293   5.712   3.276  13.199 -0.3133  0.8909  0.1259
 6601TIP3    H141294   5.717   3.184  13.225 -2.5209  1.0506  1.3653
 6601TIP3    H241295   5.754   3.279  13.112  0.5238 -1.0944  0.4059
 6602TIP3   OH241296   5.208   2.471  13.505  0.0148 -0.2209  0.2684
 6602TIP3    H141297   5.271   2.400  13.495  0.9812  0.7152 -0.5185
 6602TIP3    H241298   5.238   2.521  13.581  0.0633  0.0531  0.0740
 6603TIP3   OH241299   6.390   2.739  12.721 -0.0139 -0.2953  0.0102
 6603TIP3    H141300   6.354   2.714  12.637 -0.8908 -2.0055  0.8492
 6603TIP3    H241301   6.325   2.709  12.785  2.1329 -2.1267  1.4958
 6604TIP3   OH241302   0.194   3.424   2.219 -0.1065 -0.4588  0.2857
 6604TIP3    H141303   0.197   3.499   2.159  1.4199 -0.1679  0.6862
 6604TIP3    H241304   0.194   3.348   2.161  2.5483 -0.2118 -0.1589
 6605TIP3   OH241305   1.654   3.625  13.480  0.0142 -0.1260  0.4497
 6605TIP3    H141306   1.719   3.659  13.542  0.0687 -1.9120  1.4323
 6605TIP3    H241307   1.696   3.547  13.443 -0.0558  0.8399 -1.8046
 6606TIP3   OH241308   1.303   5.944  14.888  0.1542  0.3233  0.1663
 6606TIP3    H141309   1.313   6.003  14.963  0.5488 -1.4432  1.5534
 6606TIP3    H241310   1.379   5.886  14.892 -1.3418 -1.7176  0.1874
 6607TIP3   OH241311   0.341   4.922  15.667  0.3080  0.5387 -0.0932
 6607TIP3    H141312   0.406   4.992  15.668 -0.1635  0.9824 -0.0045
 6607TIP3    H241313   0.273   4.954  15.608 -0.3334  0.5440  0.6404
 6608TIP3   OH241314   2.631   4.209   2.237  0.5008  0.2928  0.1046
 6608TIP3    H141315   2.554   4.265   2.244  0.7507  0.5041  1.5039
 6608TIP3    H241316   2.618   4.143   2.305  0.8316 -0.5940 -0.6744
 6609TIP3   OH241317   3.952   6.266   3.299 -0.0857 -0.3024 -0.0956
 6609TIP3    H141318   3.887   6.305   3.240  1.0154  0.2107 -0.9843
 6609TIP3    H241319   3.903   6.251   3.381 -1.8380 -1.7140 -1.3141
 6610TIP3   OH241320   0.428   4.362   3.452 -0.2784  0.5468  0.0637
 6610TIP3    H141321   0.353   4.379   3.508  0.3333 -2.2743  1.9506
 6610TIP3    H241322   0.391   4.310   3.379 -0.3189 -0.2291  0.6193
 6611TIP3   OH241323   3.427   5.106  13.624  0.1227  0.4376  0.3620
 6611TIP3    H141324   3.352   5.145  13.670  0.1446 -0.2135  0.9615
 6611TIP3    H241325   3.464   5.044  13.687 -0.5476 -1.3491 -0.9455
 6612TIP3   OH241326   3.048   0.955   5.779  0.0847 -0.4198 -0.2163
 6612TIP3    H141327   3.053   1.050   5.784 -0.5458 -0.4261  0.6219
 6612TIP3    H241328   3.045   0.936   5.685  0.3346  0.3704 -0.3904
 6613TIP3   OH241329   5.991   3.298   4.403  0.2533  0.6484  0.2812
 6613TIP3    H141330   5.984   3.243   4.481  0.6322 -1.9114 -1.3749
 6613TIP3    H241331   5.903   3.333   4.390 -0.4954 -1.0989  0.3865
 6614TIP3   OH241332   6.131   0.025   6.659  0.0017  0.2528  0.5986
 6614TIP3    H141333   6.118  -0.034   6.733  1.2340 -1.6603 -0.6145
 6614TIP3    H241334   6.045   0.063   6.643 -0.7503 -0.9113  1.6980
 6615TIP3   OH241335   0.511   2.838   5.209  0.2215  0.1604  0.1602
 6615TIP3    H141336   0.507   2.747   5.241 -1.3529 -0.3029 -1.1954
 6615TIP3    H241337   0.459   2.887   5.271  0.4882  0.0046  0.5101
 6616TIP3   OH241338   6.473   5.386   5.754 -0.2983 -0.1921 -0.2013
 6616TIP3    H141339   6.518   5.467   5.733 -0.2650 -0.3222 -0.6269
 6616TIP3    H241340   6.397   5.414   5.806  0.8628 -0.0621  1.4948
 6617TIP3   OH241341   5.318   5.131   2.031 -0.0050 -0.2344  0.8790
 6617TIP3    H141342   5.246   5.167   2.083 -0.0800  0.2229  0.4571
 6617TIP3    H241343   5.330   5.043   2.066 -1.0552 -0.4739  0.6671
 6618TIP3   OH241344   3.786   6.073   2.330 -0.2471 -0.3812 -0.5407
 6618TIP3    H141345   3.736   6.001   2.292  1.8273 -1.1208 -2.0713
 6618TIP3    H241346   3.825   6.036   2.409 -0.7827 -0.2921 -0.2265
 6619TIP3   OH241347   3.877   3.474  13.061 -0.2794  0.2622 -0.0687
 6619TIP3    H141348   3.916   3.463  13.147 -0.7064 -0.0579  0.0891
 6619TIP3    H241349   3.936   3.429  13.001 -0.2076  0.1119  0.1167
 6620TIP3   OH241350   3.344   3.700  15.365  0.6521 -0.2453 -0.3774
 6620TIP3    H141351   3.349   3.630  15.431 -1.5306 -0.0263  0.0981
 6620TIP3    H241352   3.335   3.780  15.416  2.3017  0.3286 -0.9366
 6621TIP3   OH241353   1.268   1.304  16.267 -0.0027  0.2644  0.5413
 6621TIP3    H141354   1.220   1.232  16.309 -0.5270  0.3716  0.1291
 6621TIP3    H241355   1.339   1.325  16.329 -0.8509  0.5153  1.4571
 6622TIP3   OH241356   6.181   5.412  10.959  0.4335  0.0291 -0.5575
 6622TIP3    H141357   6.237   5.490  10.960  1.3118 -0.5753  1.0019
 6622TIP3    H241358   6.092   5.447  10.952  0.8772  1.1082 -1.0461
 6623TIP3   OH241359   1.718   5.941  16.894 -0.3340  0.4957  0.0772
 6623TIP3    H141360   1.777   5.901  16.831  0.8836  0.0681  1.4488
 6623TIP3    H241361   1.775   5.982  16.959 -1.4802 -0.9684  2.1258
 6624TIP3   OH241362   4.569   2.328  14.604  0.1474 -0.0073  0.1995
 6624TIP3    H141363   4.606   2.287  14.526 -0.0356 -0.5445  0.3891
 6624TIP3    H241364   4.477   2.305  14.602  0.1115  0.0990  0.4979
 6625TIP3   OH241365   5.172   1.339   1.191  0.3023 -0.6627  0.0770
 6625TIP3    H141366   5.245   1.362   1.133  0.9131 -1.2311  0.6072
 6625TIP3    H241367   5.188   1.247   1.215 -1.3794 -1.2809 -0.9608
 6626TIP3   OH241368   2.930   6.073  13.585  0.1674 -0.5281 -0.2931
 6626TIP3    H141369   2.908   6.000  13.643 -4.0102  0.7797  0.1198
 6626TIP3    H241370   2.882   6.055  13.505  1.2505  0.5161 -1.2209
 6627TIP3   OH241371   3.687   6.560  11.884 -0.6185 -0.8535 -0.3404
 6627TIP3    H141372   3.625   6.514  11.828  1.9167  0.0676 -4.2930
 6627TIP3    H241373   3.768   6.563  11.833  1.0457  2.8843  2.0791
 6628TIP3   OH241374   2.680   2.852   2.136  0.1573 -0.4590  0.1954
 6628TIP3    H141375   2.615   2.826   2.070 -0.6560 -0.8808  1.1333
 6628TIP3    H241376   2.747   2.898   2.086  0.6375 -2.5515 -1.2609
 6629TIP3   OH241377   4.637   5.349   4.745 -0.3519  0.2292  0.4004
 6629TIP3    H141378   4.597   5.310   4.823  0.2800  0.3144  0.7831
 6629TIP3    H241379   4.633   5.443   4.761 -3.5072  0.5107 -1.3366
 6630TIP3   OH241380   3.345   5.733   0.222  0.3317 -0.1097 -0.4881
 6630TIP3    H141381   3.320   5.661   0.164  0.6794 -0.7058  0.0955
 6630TIP3    H241382   3.382   5.799   0.163 -0.2480 -0.2777 -1.0623
 6631TIP3   OH241383   0.706   2.758  13.745  0.4709 -0.3766 -0.3614
 6631TIP3    H141384   0.707   2.688  13.810  0.6897 -0.8971 -0.9172
 6631TIP3    H241385   0.773   2.733  13.681  1.4386  0.9633  0.0706
 6632TIP3   OH241386   1.556   4.993   2.149  0.4659 -0.2786 -0.0995
 6632TIP3    H141387   1.646   4.987   2.180  0.3531 -0.3012  0.2253
 6632TIP3    H241388   1.557   5.066   2.087  0.8055 -0.5766 -0.4447
 6633TIP3   OH241389   1.153   3.100   5.439 -0.3302  0.0325 -0.6888
 6633TIP3    H141390   1.202   3.175   5.474  1.9959 -1.2992 -0.9028
 6633TIP3    H241391   1.193   3.083   5.354  1.8553 -3.6656  0.8674
 6634TIP3   OH241392   5.059   2.305  16.907 -0.1465 -0.4143 -0.0082
 6634TIP3    H141393   5.106   2.247  16.848  1.1518 -0.9312  1.4672
 6634TIP3    H241394   5.121   2.375  16.926 -0.8718  0.2207  0.0588
 6635TIP3   OH241395   2.276   5.620   0.573 -0.2131 -0.4539 -0.1037
 6635TIP3    H141396   2.307   5.697   0.526  1.2181 -1.5131 -0.9828
 6635TIP3    H241397   2.283   5.642   0.666 -0.3415  0.6411 -0.3476
 6636TIP3   OH241398   2.224   2.404   1.299 -0.2580  0.6706  0.0708
 6636TIP3    H141399   2.212   2.320   1.343  2.4422 -0.5577 -1.3196
 6636TIP3    H241400   2.153   2.408   1.235 -1.2568  0.1686  1.0986
 6637TIP3   OH241401   1.410   1.865  16.891 -0.2125 -0.3329  0.2857
 6637TIP3    H141402   1.433   1.891  16.802 -0.3366  1.0453  0.6359
 6637TIP3    H241403   1.414   1.946  16.942 -3.2389 -0.4561  0.8945
 6638TIP3   OH241404   1.338   1.223  13.775  0.0663  0.0571  0.0459
 6638TIP3    H141405   1.408   1.199  13.835 -1.0849 -0.4862  1.2181
 6638TIP3    H241406   1.382   1.271  13.705  1.3699  1.4180  1.7085
 6639TIP3   OH241407   2.003   0.525   6.373  0.3473 -0.3148  0.1801
 6639TIP3    H141408   2.075   0.503   6.432  0.9077 -2.3947 -1.1743
 6639TIP3    H241409   1.933   0.465   6.397 -1.1542  1.8631  1.6607
 6640TIP3   OH241410   1.502   4.342   0.237  0.1111  0.2908 -0.0497
 6640TIP3    H141411   1.524   4.397   0.161  1.0278 -0.5652 -0.4310
 6640TIP3    H241412   1.478   4.257   0.199  0.5811 -0.1465  0.6149
 6641TIP3   OH241413   2.648   2.784   2.397  0.2517  0.4211 -0.2421
 6641TIP3    H141414   2.738   2.805   2.423  0.4037  0.5142 -0.8390
 6641TIP3    H241415   2.640   2.817   2.308 -0.2511  0.0511 -0.3387
 6642TIP3   OH241416   5.445   4.431   2.380  0.2316 -0.2349 -0.0815
 6642TIP3    H141417   5.416   4.474   2.461 -0.4440 -0.1549 -0.3581
 6642TIP3    H241418   5.442   4.337   2.400  1.1476 -0.1849  0.3372
 6643TIP3   OH241419   5.514   1.160  12.718 -0.3021  0.1916 -0.8503
 6643TIP3    H141420   5.491   1.197  12.803 -0.7062 -0.7909 -0.5159
 6643TIP3    H241421   5.576   1.090  12.739 -0.1646  0.1452 -1.3959
 6644TIP3   OH241422   2.466   5.008  10.536  0.0721  0.2501  0.4554
 6644TIP3    H141423   2.412   4.963  10.471 -0.1156  0.2161  0.6370
 6644TIP3    H241424   2.531   4.943  10.562 -1.6256 -0.7364  2.4749
 6645TIP3   OH241425   1.787   3.855  13.315  0.6843 -0.1398  0.0148
 6645TIP3    H141426   1.720   3.923  13.305 -0.9229 -1.7804 -1.1873
 6645TIP3    H241427   1.777   3.824  13.405 -1.1974 -1.2963 -0.5383
 6646TIP3   OH241428   4.242   5.123  13.955 -0.7423 -0.6616  0.5095
 6646TIP3    H141429   4.155   5.114  13.917 -0.3400 -2.6000 -0.0434
 6646TIP3    H241430   4.296   5.060  13.907  0.3458 -1.4363  2.6310
 6647TIP3   OH241431   5.646   1.814   1.552 -0.1539  0.2445 -0.3249
 6647TIP3    H141432   5.695   1.855   1.481 -0.1531  1.6931  0.4709
 6647TIP3    H241433   5.555   1.840   1.537 -0.0861  0.9851  0.4512
 6648TIP3   OH241434   6.541   4.218  14.200  0.5525  0.1694 -0.6349
 6648TIP3    H141435   6.622   4.255  14.237  2.7994 -3.7209 -1.1299
 6648TIP3    H241436   6.519   4.146  14.259 -2.7828  1.2064 -0.4379
 6649TIP3   OH241437   2.013   4.484  15.794 -0.6728  0.1462 -0.2839
 6649TIP3    H141438   1.991   4.573  15.822 -1.0857 -0.2684  0.7924
 6649TIP3    H241439   2.070   4.451  15.864 -0.0094 -0.2149 -0.9900
 6650TIP3   OH241440   2.575   1.447  16.609  0.2059 -0.2093 -1.4060
 6650TIP3    H141441   2.617   1.362  16.621  2.5762  0.7498 -2.3998
 6650TIP3    H241442   2.597   1.473  16.520 -1.1433  1.1068 -1.4047
 6651TIP3   OH241443   4.432   0.409   2.689  0.0513  0.3609 -0.5288
 6651TIP3    H141444   4.485   0.455   2.755  0.9904  0.9060 -1.6353
 6651TIP3    H241445   4.442   0.460   2.609 -0.3110 -0.8006 -1.3527
 6652TIP3   OH241446   5.128   4.587   3.319  0.5797 -0.0653  0.1000
 6652TIP3    H141447   5.182   4.511   3.299  0.6418 -0.0753  0.3059
 6652TIP3    H241448   5.129   4.593   3.414  0.5398  0.1672  0.0869
 6653TIP3   OH241449   5.459   5.064   2.399 -0.3016  0.6964  0.8124
 6653TIP3    H141450   5.403   5.130   2.440  0.6638  2.2002 -0.2164
 6653TIP3    H241451   5.518   5.114   2.343  0.6415 -1.0337  0.2046
 6654TIP3   OH241452   5.007   1.120  10.743 -0.1678 -0.1019 -0.3408
 6654TIP3    H141453   5.098   1.125  10.714  0.4888  1.4188  1.6921
 6654TIP3    H241454   4.956   1.150  10.668  1.2046  1.1137 -0.8473
 6655TIP3   OH241455   5.212   3.218  16.933  0.3504 -0.0834  0.6211
 6655TIP3    H141456   5.169   3.260  17.007 -0.4913  2.9492 -1.3911
 6655TIP3    H241457   5.162   3.247  16.856  4.1229  1.2443 -1.6178
 6656TIP3   OH241458   0.251   1.257   0.760 -0.2855  0.5826 -0.2836
 6656TIP3    H141459   0.257   1.263   0.665 -0.5637 -0.4629 -0.3728
 6656TIP3    H241460   0.338   1.281   0.791  0.0410  0.1319 -0.8367
 6657TIP3   OH241461   3.128   2.134   6.062 -0.4302  0.8993  0.0283
 6657TIP3    H141462   3.067   2.171   6.126 -0.2104 -0.7962  1.2945
 6657TIP3    H241463   3.101   2.042   6.054 -0.0062  0.8929 -1.8073
 6658TIP3   OH241464   3.169   0.505  13.287 -0.1895 -0.1221  0.2869
 6658TIP3    H141465   3.150   0.423  13.241 -0.0985  0.9234 -1.7250
 6658TIP3    H241466   3.103   0.566  13.255  0.5046  0.9332  0.8093
 6659TIP3   OH241467   5.068   5.192   0.240  0.2497  0.0174  0.1325
 6659TIP3    H141468   5.078   5.226   0.329 -0.3977 -1.6398  0.8804
 6659TIP3    H241469   5.102   5.102   0.245 -0.2424 -0.2576 -1.1679
 6660TIP3   OH241470   5.967   3.980  16.396 -0.2127  0.4429 -0.0347
 6660TIP3    H141471   5.919   3.960  16.316 -0.0313  1.0873 -0.3059
 6660TIP3    H241472   5.912   4.044  16.441  1.1355  2.4851 -1.1389
 6661TIP3   OH241473   3.380   5.695   5.593 -0.1061 -0.5204  0.9914
 6661TIP3    H141474   3.392   5.784   5.625  1.7442 -0.0470 -0.8262
 6661TIP3    H241475   3.343   5.705   5.505  3.3272 -1.2576 -0.7104
 6662TIP3   OH241476   1.636   2.563   5.627 -0.4290 -0.6296 -0.2228
 6662TIP3    H141477   1.636   2.625   5.700 -1.9093 -1.5856  0.6535
 6662TIP3    H241478   1.712   2.587   5.575  1.1704 -0.4172  2.0637
 6663TIP3   OH241479   1.489   5.481  12.861  0.3821  0.1558 -0.4671
 6663TIP3    H141480   1.504   5.388  12.873  0.4106  0.2248  0.0392
 6663TIP3    H241481   1.555   5.524  12.915 -0.6355  0.4678  0.5719
 6664TIP3   OH241482   3.259   4.452  13.358 -0.3112 -0.1794 -0.6503
 6664TIP3    H141483   3.262   4.395  13.282 -0.5106  0.7908 -1.4098
 6664TIP3    H241484   3.191   4.415  13.413  1.4367 -2.2753  0.2333
 6665TIP3   OH241485   5.611   0.225  15.442  0.0030 -0.2262  0.3695
 6665TIP3    H141486   5.615   0.287  15.516 -0.6657 -1.6435  1.6429
 6665TIP3    H241487   5.555   0.154  15.474 -1.2325 -0.3660 -1.9187
 6666TIP3   OH241488   6.008   3.440  13.246  0.0285 -0.2764 -0.1439
 6666TIP3    H141489   5.949   3.457  13.319 -0.5697 -0.3051 -0.6100
 6666TIP3    H241490   6.007   3.521  13.195 -0.5458 -0.6803 -0.7929
 6667TIP3   OH241491   1.793   3.481  12.853  0.0299  0.4321  0.2455
 6667TIP3    H141492   1.812   3.561  12.803  3.6899 -0.6143 -0.3392
 6667TIP3    H241493   1.770   3.416  12.786 -0.7620  0.4084  0.5253
 6668TIP3   OH241494   4.121   0.978  14.161 -0.5578 -0.3973 -0.2840
 6668TIP3    H141495   4.106   0.888  14.189  0.9503 -1.1574 -1.7484
 6668TIP3    H241496   4.092   0.981  14.070 -0.8419  0.6816 -0.1767
 6669TIP3   OH241497   3.775   5.327   1.606 -0.7931  0.3381  0.6844
 6669TIP3    H141498   3.745   5.413   1.635 -2.1114  0.7927 -1.7829
 6669TIP3    H241499   3.704   5.267   1.628 -1.1346  0.4091 -0.2299
 6670TIP3   OH241500   5.293   5.651  10.479 -0.2603  0.6530  0.1953
 6670TIP3    H141501   5.275   5.667  10.386  1.8220 -0.9256 -0.5655
 6670TIP3    H241502   5.216   5.605  10.511 -0.6291  0.4028 -1.0091
 6671TIP3   OH241503   1.491   5.370   3.158 -0.0784 -0.4628 -0.4259
 6671TIP3    H141504   1.492   5.460   3.191  3.3085  0.1055 -1.6463
 6671TIP3    H241505   1.457   5.378   3.069 -1.9300 -0.8297  0.1957
 6672TIP3   OH241506   0.074   4.113  13.534 -0.2163 -0.0988 -0.0846
 6672TIP3    H141507   0.063   4.079  13.623 -0.2474  0.3436  0.0810
 6672TIP3    H241508  -0.014   4.141  13.508 -0.3197 -0.7844 -0.4841
 6673TIP3   OH241509   6.265   1.275  16.685 -0.5724  0.1339  0.2970
 6673TIP3    H141510   6.304   1.356  16.653  0.3176  0.6675  2.5110
 6673TIP3    H241511   6.182   1.301  16.724 -0.0073  0.1236  1.5574
 6674TIP3   OH241512   4.299   1.718  15.641  0.0946 -1.0391  0.2618
 6674TIP3    H141513   4.222   1.670  15.609  0.5532 -0.7826 -1.3044
 6674TIP3    H241514   4.266   1.766  15.717 -1.8534  0.6324 -1.5146
 6675TIP3   OH241515   5.895   0.863  13.906 -0.2758  0.2707  0.2115
 6675TIP3    H141516   5.965   0.879  13.970  0.3113 -0.6425 -0.1765
 6675TIP3    H241517   5.930   0.899  13.824 -0.3224 -0.0468  0.0513
 6676TIP3   OH241518   4.607   3.424  16.142 -0.0753 -0.0631  0.1352
 6676TIP3    H141519   4.591   3.513  16.172  1.4997  0.2412  0.1501
 6676TIP3    H241520   4.646   3.435  16.055 -2.2286 -0.8487 -1.0125
 6677TIP3   OH241521   1.348   6.805  11.361 -0.2233  0.1245 -0.4767
 6677TIP3    H141522   1.313   6.716  11.352  3.8147 -1.4754 -3.2052
 6677TIP3    H241523   1.291   6.858  11.307 -0.8099 -1.5271 -1.5693
 6678TIP3   OH241524   0.286   3.007   1.816  0.2651  0.1505 -0.0828
 6678TIP3    H141525   0.218   2.992   1.881  0.4084 -0.0299  0.0252
 6678TIP3    H241526   0.341   2.929   1.820 -0.2625 -0.2942 -1.0790
 6679TIP3   OH241527   5.680   1.079   4.941  0.1805  0.3772 -0.5454
 6679TIP3    H141528   5.678   1.173   4.962 -0.8684 -0.1008  1.8565
 6679TIP3    H241529   5.590   1.049   4.954  0.7305 -1.1686 -0.0485
 6680TIP3   OH241530   3.861   2.060   1.399 -0.0818  0.3909 -0.2467
 6680TIP3    H141531   3.768   2.041   1.388 -0.0150 -0.8928  1.1614
 6680TIP3    H241532   3.898   1.980   1.435  1.2256  1.5181  1.0333
 6681TIP3   OH241533   6.161   4.184   5.551 -0.1119  0.0748 -0.1611
 6681TIP3    H141534   6.160   4.144   5.638  2.5046  0.3388  0.0551
 6681TIP3    H241535   6.187   4.275   5.566 -2.2969  0.9099 -1.0181
 6682TIP3   OH241536   5.095   5.478  10.581  0.1248 -0.1316  0.2994
 6682TIP3    H141537   5.079   5.394  10.538  0.9315 -0.1368  0.0055
 6682TIP3    H241538   5.008   5.507  10.608  0.0630 -2.7943  3.7631
 6683TIP3   OH241539   5.649   6.474   6.311 -0.5275 -0.5419  0.5205
 6683TIP3    H141540   5.662   6.519   6.395 -0.2378  1.3385 -0.4861
 6683TIP3    H241541   5.554   6.479   6.296 -0.5094 -0.3572  0.4652
 6684TIP3   OH241542   3.321   0.260  13.618  0.2793  0.6268  0.1793
 6684TIP3    H141543   3.413   0.235  13.627 -0.4006 -1.4399  2.5081
 6684TIP3    H241544   3.289   0.206  13.545  0.7657  0.9472 -0.2768
 6685TIP3   OH241545   1.485   3.549   4.858  0.2661 -0.5113  0.0380
 6685TIP3    H141546   1.396   3.541   4.892  0.1767 -0.7498 -0.2579
 6685TIP3    H241547   1.540   3.513   4.927  0.1091 -0.6774  0.0763
 6686TIP3   OH241548   4.433   6.661  13.063 -0.5205  0.1562 -0.6399
 6686TIP3    H141549   4.378   6.643  13.139 -0.5091  1.2270 -0.3624
 6686TIP3    H241550   4.472   6.747  13.081 -0.2891  0.2945 -1.7186
 6687TIP3   OH241551   4.514   5.287   2.360 -0.3647  0.1578 -0.3881
 6687TIP3    H141552   4.503   5.366   2.412 -1.0260  0.9545 -1.7042
 6687TIP3    H241553   4.605   5.261   2.375 -0.2241  0.9890  0.2752
 6688TIP3   OH241554   1.659   5.935   2.535  0.0125  0.3596 -0.3618
 6688TIP3    H141555   1.653   6.028   2.516  1.0582  0.5449  0.1102
 6688TIP3    H241556   1.751   5.922   2.559 -0.7162 -0.2083  2.5626
 6689TIP3   OH241557   5.992   4.775   6.278 -0.4231 -0.4499  0.1474
 6689TIP3    H141558   6.015   4.777   6.370  1.1909  0.7900 -0.2330
 6689TIP3    H241559   6.020   4.688   6.248 -1.4676 -1.0644  0.9266
 6690TIP3   OH241560   0.948   4.824  13.250 -0.9391 -0.4050  0.1909
 6690TIP3    H141561   0.910   4.758  13.309 -0.0301 -0.5404  0.6401
 6690TIP3    H241562   1.004   4.877  13.307 -0.2034 -0.4108 -0.5086
 6691TIP3   OH241563   2.698   1.781  11.360 -0.0709 -0.5381  0.1753
 6691TIP3    H141564   2.693   1.686  11.346 -0.5968 -0.6183  0.8624
 6691TIP3    H241565   2.727   1.790  11.451  1.7100 -0.0319 -0.4022
 6692TIP3   OH241566   1.900   6.669  16.298  0.4628  0.0693 -0.2955
 6692TIP3    H141567   1.922   6.652  16.389 -0.2803 -1.9759 -0.4624
 6692TIP3    H241568   1.985   6.688  16.256  1.1199 -1.3110  0.3547
 6693TIP3   OH241569   2.927   5.386   5.348  0.0238 -0.2106  0.2444
 6693TIP3    H141570   2.944   5.302   5.391 -0.9482 -0.2973  0.4841
 6693TIP3    H241571   2.871   5.363   5.273 -0.0024  0.1852  0.1418
 6694TIP3   OH241572   4.384   3.071   9.767  0.4524 -0.0962 -0.1475
 6694TIP3    H141573   4.351   3.072   9.857 -0.2878  1.8446 -0.3907
 6694TIP3    H241574   4.308   3.043   9.714  0.4776  0.1303 -0.3036
 6695TIP3   OH241575   1.669   3.713   5.429 -0.3753  0.2466 -0.4176
 6695TIP3    H141576   1.763   3.713   5.448 -0.7104  1.3885  1.5654
 6695TIP3    H241577   1.631   3.657   5.497 -1.4290  2.6173  1.0756
 6696TIP3   OH241578   2.420   1.599  13.092  0.0530 -0.1084  0.0282
 6696TIP3    H141579   2.387   1.510  13.104 -1.5989  0.5936  1.0796
 6696TIP3    H241580   2.384   1.626  13.008  0.6620 -0.4491 -0.3544
 6697TIP3   OH241581   5.633   2.291  16.550  0.0730 -0.1593 -0.3545
 6697TIP3    H141582   5.662   2.378  16.578  0.1469 -0.3629  0.2095
 6697TIP3    H241583   5.540   2.302  16.531  0.1098  0.0681 -0.4083
 6698TIP3   OH241584   5.584   2.812   1.073 -0.3419  0.2998  0.1734
 6698TIP3    H141585   5.643   2.752   1.119  0.0612  0.7373  0.2353
 6698TIP3    H241586   5.529   2.755   1.020 -1.4223 -0.3065  1.8420
 6699TIP3   OH241587   2.458   3.612  16.745 -0.0676 -0.2452 -0.3456
 6699TIP3    H141588   2.549   3.638  16.734  0.6862 -2.4464  0.1820
 6699TIP3    H241589   2.434   3.643  16.832 -0.3058  1.4785 -0.9689
 6700TIP3   OH241590   2.069   3.819   0.606  0.6960 -0.5304 -0.0795
 6700TIP3    H141591   1.984   3.786   0.636  0.2863  1.5594  1.2945
 6700TIP3    H241592   2.128   3.744   0.614 -0.7610 -1.7073  0.0824
 6701TIP3   OH241593   5.751   3.935  11.245  0.1237  0.0561  0.2432
 6701TIP3    H141594   5.716   3.989  11.174 -1.5030  0.5356  1.3435
 6701TIP3    H241595   5.844   3.954  11.247 -0.1154  1.3935 -0.6153
 6702TIP3   OH241596   6.666   1.903   5.878  0.1224  0.1220  0.1966
 6702TIP3    H141597   6.608   1.979   5.870  0.3040  0.1278 -1.3475
 6702TIP3    H241598   6.607   1.828   5.884 -0.0947  0.0977 -1.6723
 6703TIP3   OH241599   0.790   3.067  15.397 -0.0754  0.2865 -0.0187
 6703TIP3    H141600   0.820   3.050  15.308 -0.1073 -0.0780  0.0378
 6703TIP3    H241601   0.856   3.027  15.453 -0.2468  0.1835  0.1141
 6704TIP3   OH241602   3.174   4.444   3.774 -0.0766  0.0625 -0.1433
 6704TIP3    H141603   3.265   4.447   3.806  0.2375 -0.2010 -0.9994
 6704TIP3    H241604   3.132   4.377   3.829  0.4092 -0.2558 -0.1495
 6705TIP3   OH241605   0.341   4.244  14.208  0.0106  0.0881  0.1910
 6705TIP3    H141606   0.245   4.249  14.206  0.0197  0.1046 -1.1663
 6705TIP3    H241607   0.367   4.302  14.279 -0.8659  2.2229 -1.1537
 6706TIP3   OH241608   3.062   6.078  13.095 -0.5650 -0.2602  0.6887
 6706TIP3    H141609   3.073   6.072  13.189  2.1228  0.6982  0.5194
 6706TIP3    H241610   3.145   6.114  13.063 -1.4232 -0.4538 -2.0327
 6707TIP3   OH241611   2.179   2.532   5.135 -0.5576  0.7165  0.0022
 6707TIP3    H141612   2.198   2.468   5.066  0.1243  0.8701  0.0406
 6707TIP3    H241613   2.229   2.610   5.110 -0.3899  0.8102  0.6169
 6708TIP3   OH241614   2.332   1.416   4.793 -0.3196 -0.4733  0.1310
 6708TIP3    H141615   2.356   1.348   4.731 -0.9849  1.4174 -2.3943
 6708TIP3    H241616   2.237   1.426   4.782 -0.6800 -0.8755  2.3929
 6709TIP3   OH241617   3.019   5.594   1.793 -0.1044  0.6391 -0.4525
 6709TIP3    H141618   2.982   5.682   1.798 -0.7785  0.4075 -1.1025
 6709TIP3    H241619   2.945   5.538   1.770  0.3675 -0.0572 -0.3181
 6710TIP3   OH241620   6.406   0.605   3.298  0.7250 -0.0143  0.6514
 6710TIP3    H141621   6.360   0.538   3.349  0.7355 -0.6953 -0.2262
 6710TIP3    H241622   6.344   0.678   3.294  0.7795  0.1214  1.7588
 6711TIP3   OH241623   5.559   5.008   5.638  0.5163 -0.0443  0.3404
 6711TIP3    H141624   5.603   5.084   5.601 -1.1379  0.3541 -0.9175
 6711TIP3    H241625   5.551   5.028   5.731  3.6525 -0.5199  0.8371
 6712TIP3   OH241626   3.875   6.352  11.613  0.4723  0.3248 -0.2591
 6712TIP3    H141627   3.886   6.383  11.702 -1.0950  0.1309  0.0310
 6712TIP3    H241628   3.788   6.313  11.612 -0.1580  1.6326 -2.2344
 6713TIP3   OH241629   5.191   1.493  14.153 -0.4399  0.0369 -0.6677
 6713TIP3    H141630   5.272   1.477  14.201 -0.8374 -1.1355 -0.3441
 6713TIP3    H241631   5.213   1.563  14.091  0.6851  0.0402 -0.2916
 6714TIP3   OH241632   1.271   6.082   0.439 -0.9360  0.5774  0.2807
 6714TIP3    H141633   1.326   6.004   0.446  0.5193  1.5827  0.4527
 6714TIP3    H241634   1.207   6.073   0.510  0.9583  0.8354  2.1133
 6715TIP3   OH241635   5.453   2.873   2.467  0.3640  0.4139 -0.2866
 6715TIP3    H141636   5.392   2.806   2.497  0.6052  1.3591  2.6530
 6715TIP3    H241637   5.540   2.832   2.473  0.2920 -0.0190 -1.7432
 6716TIP3   OH241638   4.175   5.690  14.746  0.2445  0.0803 -0.1464
 6716TIP3    H141639   4.266   5.713  14.765  0.1144  1.3740 -0.9420
 6716TIP3    H241640   4.176   5.660  14.655 -0.1708  0.4300 -0.2698
 6717TIP3   OH241641   0.515   0.876   0.159 -0.3950  0.2315  0.6104
 6717TIP3    H141642   0.421   0.879   0.144 -0.4113 -0.0549  0.6689
 6717TIP3    H241643   0.531   0.944   0.225 -0.6049  0.0319  0.8635
 6718TIP3   OH241644   1.491   0.761   0.376  0.5192 -0.2458  0.1180
 6718TIP3    H141645   1.528   0.673   0.375 -1.1608 -1.0272  1.7101
 6718TIP3    H241646   1.397   0.748   0.391  0.1180  1.8024 -0.2505
 6719TIP3   OH241647   4.523   6.673   4.031 -0.6762  0.2302  0.2013
 6719TIP3    H141648   4.471   6.742   4.072 -1.6267 -0.0319 -0.5318
 6719TIP3    H241649   4.572   6.718   3.962  0.9409  0.6757  1.5504
 6720TIP3   OH241650   2.680   5.640   0.374 -0.1746 -0.6766  0.5721
 6720TIP3    H141651   2.752   5.590   0.335  0.2613  0.3516  0.0118
 6720TIP3    H241652   2.659   5.593   0.454 -1.7881 -3.4702 -1.3150
 6721TIP3   OH241653   1.021   6.155   2.018  0.0703  0.3217 -0.6230
 6721TIP3    H141654   1.013   6.205   2.099  1.0478  0.7812 -0.7982
 6721TIP3    H241655   0.958   6.195   1.958 -1.8833 -1.0622  0.3755
 6722TIP3   OH241656   4.427   1.400   4.432  0.0082  0.1134  0.4483
 6722TIP3    H141657   4.424   1.452   4.352  2.7217 -0.9158 -0.4501
 6722TIP3    H241658   4.384   1.318   4.408 -0.5575  0.3866  0.5319
 6723TIP3   OH241659   1.498   4.573   2.467 -0.5866 -0.8188 -0.1104
 6723TIP3    H141660   1.503   4.634   2.394 -1.7439  0.0479  0.5005
 6723TIP3    H241661   1.412   4.588   2.506  0.2797 -0.6674  1.9059
 6724TIP3   OH241662   3.315   6.333   4.780 -0.1250  0.2855  0.0899
 6724TIP3    H141663   3.236   6.378   4.810  1.1382  1.8247  1.2985
 6724TIP3    H241664   3.319   6.352   4.686 -1.3328 -0.0698 -0.0485
 6725TIP3   OH241665   0.362   5.141  10.830 -0.4990 -0.5345  0.0945
 6725TIP3    H141666   0.330   5.051  10.824  0.5464 -0.8371 -1.5245
 6725TIP3    H241667   0.454   5.133  10.854 -0.5519  0.1274  0.5369
 6726TIP3   OH241668   4.194   2.650   5.172  0.0467 -1.0974 -0.0864
 6726TIP3    H141669   4.099   2.646   5.182  0.0912  0.0549  1.0473
 6726TIP3    H241670   4.227   2.587   5.235  0.0333 -1.5591 -0.5407
 6727TIP3   OH241671   1.603   5.925  14.350 -0.1140 -0.0456 -0.2334
 6727TIP3    H141672   1.657   6.004  14.347 -0.8149  0.4902  0.8000
 6727TIP3    H241673   1.661   5.856  14.318  0.0525  1.1090 -2.6763
 6728TIP3   OH241674   0.762   6.600   1.930 -0.0038 -0.1015  0.1713
 6728TIP3    H141675   0.687   6.540   1.934  2.0197 -2.7679  2.2840
 6728TIP3    H241676   0.815   6.567   1.857 -0.4571  1.2663 -0.8004
 6729TIP3   OH241677   3.855   2.469   4.893  0.0296  0.1744 -0.6002
 6729TIP3    H141678   3.866   2.448   4.985 -0.5442  1.5483 -0.1956
 6729TIP3    H241679   3.776   2.421   4.867  0.7986 -1.0905 -0.6946
 6730TIP3   OH241680   1.150   1.710  15.551  0.1228  0.1551 -0.4222
 6730TIP3    H141681   1.077   1.653  15.526  1.1143 -1.4631  0.2549
 6730TIP3    H241682   1.124   1.746  15.636  0.1971 -0.5587 -0.0977
 6731TIP3   OH241683   0.953   2.472  16.491 -0.2083  0.1540 -0.5716
 6731TIP3    H141684   0.991   2.549  16.449 -2.2362  2.1532  0.9778
 6731TIP3    H241685   0.864   2.499  16.514 -0.9660 -2.6455  0.1886
 6732TIP3   OH241686   4.817   0.055  16.012 -0.4429 -0.0212 -0.1169
 6732TIP3    H141687   4.749   0.089  15.954 -0.6752  2.0453  1.2489
 6732TIP3    H241688   4.900   0.083  15.972 -0.4359 -1.3153 -1.0457
 6733TIP3   OH241689   2.545   2.908  14.881 -0.5480  0.5317  0.7212
 6733TIP3    H141690   2.629   2.929  14.839 -0.5270  1.2657  1.1046
 6733TIP3    H241691   2.550   2.952  14.966  0.1233 -2.3076  2.2623
 6734TIP3   OH241692   3.469   5.083   2.961 -0.1298  0.2211 -0.3319
 6734TIP3    H141693   3.396   5.144   2.961  0.6577  1.3203  2.0913
 6734TIP3    H241694   3.433   5.002   2.927 -1.3663  1.8120 -3.1063
 6735TIP3   OH241695   1.262   0.187   2.475 -0.4068 -0.3780 -0.4730
 6735TIP3    H141696   1.293   0.277   2.471  1.2500 -0.9054 -0.8043
 6735TIP3    H241697   1.340   0.135   2.453 -1.1681 -1.9061  0.2862
 6736TIP3   OH241698   3.506   2.699  12.639 -0.1416  0.7389  0.4021
 6736TIP3    H141699   3.452   2.778  12.633  0.3019  1.0570  0.5559
 6736TIP3    H241700   3.471   2.641  12.571 -1.5363  0.4098  1.3510
 6737TIP3   OH241701   4.700   2.572  15.443  0.2634 -0.3869  0.1968
 6737TIP3    H141702   4.774   2.611  15.489 -0.6526  0.1650  1.2532
 6737TIP3    H241703   4.707   2.478  15.460  1.4809 -0.5171 -0.8792
 6738TIP3   OH241704   3.131   5.864  10.653 -0.1706  0.7031 -0.1217
 6738TIP3    H141705   3.083   5.788  10.685  1.3041  0.2675  1.2012
 6738TIP3    H241706   3.065   5.918  10.610 -1.4410 -0.8231 -0.1909
 6739TIP3   OH241707   1.401   3.242  16.444 -0.1513  0.0310 -0.3454
 6739TIP3    H141708   1.326   3.234  16.503 -1.1938  2.0082 -1.2780
 6739TIP3    H241709   1.476   3.214  16.497 -1.0897  1.2173  1.7596
 6740TIP3   OH241710   1.876   0.168  13.101 -0.0417 -0.1054 -0.0815
 6740TIP3    H141711   1.953   0.196  13.151  0.5188 -0.1942 -0.8736
 6740TIP3    H241712   1.819   0.245  13.101  0.2012  0.0790  0.2232
 6741TIP3   OH241713   2.940   5.021   1.446 -0.3574 -0.2233 -0.1148
 6741TIP3    H141714   2.893   4.996   1.526 -1.4882 -1.4501 -1.1253
 6741TIP3    H241715   2.946   5.117   1.451 -1.2385 -0.2055  0.9884
 6742TIP3   OH241716   5.295   6.070   0.404  0.1880  0.1323  0.1704
 6742TIP3    H141717   5.357   6.031   0.342  0.7709 -0.3953  1.0587
 6742TIP3    H241718   5.262   5.996   0.455  0.2378  0.6212  0.9372
 6743TIP3   OH241719   6.503   5.356   4.362  0.5018  0.0590 -0.2896
 6743TIP3    H141720   6.448   5.434   4.366 -0.8387 -0.8589  0.0788
 6743TIP3    H241721   6.441   5.283   4.355  1.6218 -1.1147  1.2251
 6744TIP3   OH241722   2.147   3.601  11.293  0.1084 -0.2895 -0.4682
 6744TIP3    H141723   2.091   3.527  11.319  2.3710 -2.0324 -0.2888
 6744TIP3    H241724   2.229   3.586  11.340  2.2581 -0.1850 -3.8636
 6745TIP3   OH241725   4.045   4.181   5.724 -0.6712  0.0811  0.3627
 6745TIP3    H141726   3.968   4.233   5.701 -0.9288 -0.6218 -0.4111
 6745TIP3    H241727   4.109   4.204   5.657 -0.6164 -0.2176  0.3121
 6746TIP3   OH241728   0.445   1.272  13.022 -0.3493 -0.2337  0.1097
 6746TIP3    H141729   0.524   1.223  13.002 -0.1654  0.0660  0.0907
 6746TIP3    H241730   0.432   1.260  13.116 -0.0391  0.0690  0.1918
 6747TIP3   OH241731   6.678   3.795   1.051  0.1068  0.2480  0.3145
 6747TIP3    H141732   6.747   3.836   1.104  0.5578 -1.2188  0.8916
 6747TIP3    H241733   6.725   3.755   0.978 -0.0773 -1.0319  0.8762
 6748TIP3   OH241734   3.990   0.232  15.179  0.0812  0.0434 -0.3570
 6748TIP3    H141735   4.035   0.315  15.191  0.4054  0.1510 -2.1586
 6748TIP3    H241736   4.036   0.171  15.237 -0.1335  1.0732  0.9384
 6749TIP3   OH241737   4.815   0.884  11.169 -0.0998  0.5318 -0.1657
 6749TIP3    H141738   4.855   0.921  11.091 -1.1952  1.3198 -0.3869
 6749TIP3    H241739   4.729   0.926  11.174 -0.1633  0.2935  1.3108
 6750TIP3   OH241740   0.770   3.339   5.875 -0.1762 -0.2236 -0.1800
 6750TIP3    H141741   0.857   3.317   5.908 -0.0504 -0.2405 -0.5148
 6750TIP3    H241742   0.771   3.434   5.864 -0.5451 -0.0999  0.7735
 6751TIP3   OH241743   3.338   0.415   6.252 -0.1570 -0.7691  0.4325
 6751TIP3    H141744   3.372   0.348   6.192  0.3615 -0.8891  0.8471
 6751TIP3    H241745   3.339   0.496   6.200 -0.5616 -1.0341  0.0036
 6752TIP3   OH241746   3.639   3.635  14.331 -0.1528  0.0249 -0.0966
 6752TIP3    H141747   3.676   3.551  14.359  1.8345  1.2738  1.2172
 6752TIP3    H241748   3.633   3.687  14.411  1.8311  2.2879 -1.2906
 6753TIP3   OH241749   5.640   5.932  13.588  0.0094 -0.2675 -0.3360
 6753TIP3    H141750   5.734   5.926  13.608  0.0413 -1.3492 -0.7813
 6753TIP3    H241751   5.605   5.989  13.657  1.1479  0.9537 -0.7182
 6754TIP3   OH241752   2.824   5.488   3.640  0.2265 -0.0284 -0.2415
 6754TIP3    H141753   2.880   5.411   3.635  1.4708  0.8156  0.1105
 6754TIP3    H241754   2.779   5.491   3.556  2.2478  0.3594 -1.3782
 6755TIP3   OH241755   2.312   2.030   0.706  0.6074 -0.0578 -0.2420
 6755TIP3    H141756   2.288   2.117   0.672  0.3554  0.3115  0.8481
 6755TIP3    H241757   2.406   2.037   0.724  0.1925  0.7190  1.8645
 6756TIP3   OH241758   3.226   2.620   0.625 -0.1686 -0.1145 -0.4499
 6756TIP3    H141759   3.149   2.632   0.680 -1.2317 -1.2754 -1.6219
 6756TIP3    H241760   3.221   2.690   0.560 -0.3083 -0.2585 -0.5957
 6757TIP3   OH241761   1.394   3.007   0.935 -0.2774  1.2477  0.5574
 6757TIP3    H141762   1.485   3.029   0.954  0.5511  1.0679 -2.6332
 6757TIP3    H241763   1.377   2.927   0.984  0.7683  2.0231  2.2913
 6758TIP3   OH241764   1.977   5.163   6.341  0.4160  0.1704 -0.4994
 6758TIP3    H141765   1.966   5.071   6.364  2.3436 -0.3999 -1.6000
 6758TIP3    H241766   1.893   5.190   6.305 -0.1190 -1.2077 -0.3358
 6759TIP3   OH241767   2.983   3.115  15.599 -0.2961  0.4631  0.1633
 6759TIP3    H141768   2.989   3.063  15.680  0.0556  1.0769  0.5339
 6759TIP3    H241769   2.961   3.203  15.629  1.1668  1.0099 -0.3071
 6760TIP3   OH241770   6.513   1.815  11.035 -0.5998 -0.1023  0.5992
 6760TIP3    H141771   6.476   1.733  11.069 -0.0349 -0.6378 -0.0613
 6760TIP3    H241772   6.453   1.882  11.067 -1.2349 -0.7959  0.9165
 6761TIP3   OH241773   6.417   3.588   4.894 -0.1287 -0.0699  0.6794
 6761TIP3    H141774   6.503   3.629   4.892 -1.3656  2.7488 -0.6861
 6761TIP3    H241775   6.372   3.630   4.968 -0.7220 -0.6864  0.6883
 6762TIP3   OH241776   2.395   3.339  13.254  1.0762  0.3333  0.2974
 6762TIP3    H141777   2.359   3.252  13.274 -1.0556  0.4585 -2.4200
 6762TIP3    H241778   2.490   3.325  13.254  0.8249 -2.6738 -2.2036
 6763TIP3   OH241779   3.680   5.697  11.192  0.0813  0.3082  0.1332
 6763TIP3    H141780   3.710   5.783  11.222 -0.5693  0.6347 -0.1249
 6763TIP3    H241781   3.701   5.638  11.264  2.4389  0.2650 -0.4851
 6764TIP3   OH241782   1.472   1.394  11.344  0.3169  0.3301  0.5394
 6764TIP3    H141783   1.555   1.368  11.303 -0.4249  0.0628 -0.8769
 6764TIP3    H241784   1.445   1.316  11.393 -0.1914 -0.4282 -0.8685
 6765TIP3   OH241785   1.827   1.673  14.128  0.0621 -0.0434  0.2662
 6765TIP3    H141786   1.865   1.591  14.094  0.6095  0.0799  0.5649
 6765TIP3    H241787   1.744   1.646  14.167  0.9975 -0.7504  1.8550
 6766TIP3   OH241788   5.637   5.044  12.951  0.4498 -0.5276 -0.1117
 6766TIP3    H141789   5.695   5.063  13.024  0.3480  1.2084 -0.4476
 6766TIP3    H241790   5.695   5.024  12.878  0.5573 -1.6131  0.2505
 6767TIP3   OH241791   1.589   1.860   0.976 -0.3749 -0.0258 -0.1317
 6767TIP3    H141792   1.559   1.937   0.928 -0.3304  0.0923  0.0291
 6767TIP3    H241793   1.660   1.824   0.922  0.0144  0.3950  0.0888
 6768TIP3   OH241794   5.958   6.475  14.450 -0.1842  0.0957 -0.4595
 6768TIP3    H141795   5.904   6.459  14.527 -0.9402 -1.8732 -1.3233
 6768TIP3    H241796   5.919   6.551  14.408  0.7535  1.7654  1.4626
 6769TIP3   OH241797   3.794   3.596  11.806 -0.4253  0.2856 -0.4351
 6769TIP3    H141798   3.826   3.571  11.719 -0.0184  0.1428 -0.2480
 6769TIP3    H241799   3.699   3.593  11.798 -0.5028 -3.1133  0.0115
 6770TIP3   OH241800   0.385   3.840   0.028 -0.1514 -0.7022  0.1993
 6770TIP3    H141801   0.349   3.833   0.116 -0.8451  1.3310  0.1327
 6770TIP3    H241802   0.325   3.789  -0.026 -0.9748 -0.1866  0.6042
 6771TIP3   OH241803   2.179   5.186  12.322  0.3365 -0.5747 -0.3012
 6771TIP3    H141804   2.120   5.175  12.397  1.8431 -0.3726  0.9879
 6771TIP3    H241805   2.179   5.101  12.278 -1.4899 -0.3368 -0.8009
 6772TIP3   OH241806   6.764   3.049  13.743  0.3250 -0.0332  0.3386
 6772TIP3    H141807   6.713   3.075  13.665 -0.4408 -0.1915  0.7765
 6772TIP3    H241808   6.765   3.128  13.797  1.2491  0.2156 -0.0275
 6773TIP3   OH241809   5.467   0.655  14.240 -0.5452 -0.2636 -1.2707
 6773TIP3    H141810   5.460   0.745  14.208 -0.7883 -0.3852 -1.5573
 6773TIP3    H241811   5.378   0.630  14.265 -0.0191  0.7845  2.1674
 6774TIP3   OH241812   6.837   5.021  15.118  0.3471  0.2822  0.7133
 6774TIP3    H141813   6.749   5.002  15.084 -0.2874  0.3114  2.2482
 6774TIP3    H241814   6.822   5.086  15.186  1.2556 -1.4486  2.6582
 6775TIP3   OH241815   0.528   1.721   4.801  0.4665  0.1981 -0.3383
 6775TIP3    H141816   0.603   1.714   4.742  0.8324 -0.4695  0.1862
 6775TIP3    H241817   0.472   1.647   4.777  0.9444 -0.4865  0.5768
 6776TIP3   OH241818   2.460   4.320  12.137 -0.2969 -0.0850 -0.7698
 6776TIP3    H141819   2.504   4.288  12.216  0.7850  0.8899 -0.9508
 6776TIP3    H241820   2.526   4.316  12.069 -0.9211  0.0407 -1.3934
 6777TIP3   OH241821   1.788   5.614   2.673 -0.0819 -0.2966  0.3645
 6777TIP3    H141822   1.712   5.568   2.637  0.0341  0.6015 -1.1318
 6777TIP3    H241823   1.774   5.613   2.767 -1.7281 -0.5627  0.1588
 6778TIP3   OH241824   5.116   1.572   6.145  0.2349  0.2768 -0.1285
 6778TIP3    H141825   5.180   1.571   6.216  0.5206 -0.9458 -0.3857
 6778TIP3    H241826   5.114   1.482   6.113  1.1693  1.0922 -2.6403
 6779TIP3   OH241827   3.304   3.005  14.080 -0.9190  0.6975 -0.2332
 6779TIP3    H141828   3.281   2.994  14.172  1.2016 -3.2080  0.0527
 6779TIP3    H241829   3.397   3.028  14.080  1.1915 -5.7397 -0.9725
 6780TIP3   OH241830   5.722   0.483  16.605  0.5586  1.0070  0.3255
 6780TIP3    H141831   5.628   0.483  16.589  0.6884 -0.6216 -0.6496
 6780TIP3    H241832   5.733   0.433  16.686  0.6415  0.1932 -0.1740
 6781TIP3   OH241833   5.704   6.108  15.281  0.9403  0.4941 -0.1155
 6781TIP3    H141834   5.785   6.058  15.279  0.0907 -0.9355 -0.0460
 6781TIP3    H241835   5.670   6.096  15.370  0.0473  0.0529 -0.5042
 6782TIP3   OH241836   2.903   1.377   1.788  0.4490  0.1057  0.7182
 6782TIP3    H141837   2.836   1.403   1.725  1.1669 -0.0347 -0.1148
 6782TIP3    H241838   2.955   1.456   1.802 -1.0305  0.8144  2.9050
 6783TIP3   OH241839   0.790   3.919   1.775  0.1988 -0.6570  0.4278
 6783TIP3    H141840   0.871   3.969   1.774 -0.6167  0.7163  0.9751
 6783TIP3    H241841   0.780   3.891   1.866  0.2030 -1.0836  0.2998
 6784TIP3   OH241842   2.734   2.021   5.153  0.5462 -0.4802  0.0175
 6784TIP3    H141843   2.754   1.974   5.072 -1.9234 -2.2505  0.3232
 6784TIP3    H241844   2.663   2.081   5.128 -0.6655 -1.4798  0.9357
 6785TIP3   OH241845   3.232   0.141  13.375  0.3004 -0.0451  0.3760
 6785TIP3    H141846   3.170   0.074  13.346 -0.5078  0.0793  1.7328
 6785TIP3    H241847   3.219   0.214  13.314 -1.2007  0.1325  0.8799
 6786TIP3   OH241848   4.281   5.307  12.835 -0.2748  0.3376 -0.5073
 6786TIP3    H141849   4.257   5.215  12.851  0.1966 -0.0208 -1.6989
 6786TIP3    H241850   4.362   5.301  12.783  1.0722  1.4762  1.3684
 6787TIP3   OH241851   0.385   2.687  16.943 -0.1317  0.2513 -0.0330
 6787TIP3    H141852   0.344   2.770  16.922 -1.5782 -0.4850 -0.2277
 6787TIP3    H241853   0.475   2.710  16.967 -0.3712  1.8024 -0.5268
 6788TIP3   OH241854   5.235   2.421  12.944  0.3860 -0.0086 -0.4911
 6788TIP3    H141855   5.238   2.459  12.857  1.9259  0.5871 -0.2114
 6788TIP3    H241856   5.311   2.458  12.989  0.5388 -1.5396  0.5856
 6789TIP3   OH241857   2.595   5.292   2.039 -0.1416  0.9367  0.1751
 6789TIP3    H141858   2.584   5.304   2.133 -1.6875 -0.7863  0.2734
 6789TIP3    H241859   2.508   5.310   2.003 -0.4116 -1.4835 -0.5207
 6790TIP3   OH241860   4.054   0.904   0.897  0.4548 -0.8035 -0.0157
 6790TIP3    H141861   4.058   0.999   0.908  0.1570 -0.8198  0.2567
 6790TIP3    H241862   4.122   0.884   0.833 -0.2362 -0.2744 -0.9415
 6791TIP3   OH241863   4.849   1.476  14.226 -0.4447 -0.3397 -0.4772
 6791TIP3    H141864   4.755   1.494  14.237  0.2495  3.0705  1.5613
 6791TIP3    H241865   4.876   1.534  14.155  0.3805 -0.0064  0.0923
 6792TIP3   OH241866   0.083   4.164   0.107  0.0574 -0.0009 -0.2184
 6792TIP3    H141867   0.108   4.219   0.181 -0.0494  0.8739 -0.8116
 6792TIP3    H241868   0.124   4.205   0.031 -0.7591 -0.2252 -0.8024
 6793TIP3   OH241869   2.513   6.716  16.776  0.0803  0.5715 -0.5169
 6793TIP3    H141870   2.434   6.770  16.781 -1.8354 -2.1941  1.2252
 6793TIP3    H241871   2.563   6.740  16.854 -1.5908 -1.2396  1.1966
 6794TIP3   OH241872   0.535   1.970  16.067  0.2397  0.1585 -0.0213
 6794TIP3    H141873   0.587   2.050  16.056  2.7136 -1.3750 -0.3644
 6794TIP3    H241874   0.500   1.952  15.980  1.4074 -0.2067 -0.4296
 6795TIP3   OH241875   6.409   4.392  14.403 -0.0117 -0.3104 -0.3960
 6795TIP3    H141876   6.428   4.441  14.484  0.3674 -0.9787 -0.0799
 6795TIP3    H241877   6.399   4.302  14.432  1.0141 -0.7027 -1.2234
 6796TIP3   OH241878   6.755   4.284  12.385  0.4332  0.2693  0.3035
 6796TIP3    H141879   6.811   4.206  12.381  1.0384  0.6492  1.1032
 6796TIP3    H241880   6.811   4.356  12.359  0.8734  0.9111  2.7350
 6797TIP3   OH241881   5.410   4.330  14.172 -0.2848  0.1431  0.6674
 6797TIP3    H141882   5.385   4.407  14.120  2.1163  0.1977 -0.5580
 6797TIP3    H241883   5.421   4.364  14.261  0.9337  1.3531  0.1156
 6798TIP3   OH241884   3.094   4.955   0.611 -0.1644  0.2811 -0.0773
 6798TIP3    H141885   3.093   5.046   0.644 -0.7766  0.2270  0.0585
 6798TIP3    H241886   3.070   4.963   0.519  0.3812  0.3122 -0.2218
 6799TIP3   OH241887   3.617   6.439  10.262 -0.1879  0.0922  0.4776
 6799TIP3    H141888   3.631   6.364  10.205 -0.7701 -0.1658  0.6678
 6799TIP3    H241889   3.586   6.508  10.204  1.2346  0.4981  0.1440
 6800TIP3   OH241890   5.931   5.739   4.860  0.6487  0.6242 -0.0041
 6800TIP3    H141891   5.855   5.764   4.911  0.7124  0.1623  0.3173
 6800TIP3    H241892   6.005   5.752   4.919  0.7115 -0.0165  0.0654
 6801TIP3   OH241893   1.424   0.156  16.466  0.4896  0.4626  0.5781
 6801TIP3    H141894   1.452   0.203  16.388 -0.5170 -1.0004 -0.7359
 6801TIP3    H241895   1.331   0.177  16.475  0.6933  0.9579  1.6522
 6802TIP3   OH241896   3.887   2.647   4.098 -0.2523  0.5038  0.2187
 6802TIP3    H141897   3.943   2.725   4.106 -1.2645  1.3202 -0.3620
 6802TIP3    H241898   3.945   2.574   4.118  1.4145  1.1879 -1.7973
 6803TIP3   OH241899   0.312   2.984  12.472 -0.2655 -0.2847  0.2426
 6803TIP3    H141900   0.293   2.905  12.420 -1.6312  0.1810  0.0154
 6803TIP3    H241901   0.296   2.957  12.563  2.7345 -1.2925  0.6074
 6804TIP3   OH241902   1.548   6.803  16.989  0.0264  0.4195 -0.0998
 6804TIP3    H141903   1.465   6.823  16.946  0.2249  4.1652  0.8647
 6804TIP3    H241904   1.610   6.788  16.918 -0.4937  2.5342 -1.0815
 6805TIP3   OH241905   1.934   5.823   1.806 -0.2542  0.3523  0.4823
 6805TIP3    H141906   1.972   5.736   1.792  0.5712  0.6718  0.6353
 6805TIP3    H241907   1.851   5.807   1.851  0.0717 -0.3391  0.8472
 6806TIP3   OH241908   0.808   2.315  14.322  0.3728  0.4124 -0.0636
 6806TIP3    H141909   0.734   2.369  14.350  1.5163  1.0600  1.9033
 6806TIP3    H241910   0.829   2.348  14.234 -1.4165  0.4378 -0.5286
 6807TIP3   OH241911   5.232   6.119   1.184 -0.5451 -0.5535  0.0286
 6807TIP3    H141912   5.315   6.106   1.138  0.0453 -1.0759  1.2158
 6807TIP3    H241913   5.244   6.200   1.233 -0.3910 -1.1123  0.9260
 6808TIP3   OH241914   6.297   1.361   2.131 -0.3012  0.2224 -0.0014
 6808TIP3    H141915   6.353   1.419   2.080 -2.3684  0.6259 -1.9989
 6808TIP3    H241916   6.277   1.409   2.211 -0.3800  1.4475 -0.7345
 6809TIP3   OH241917   0.284   6.146  15.611 -1.1014  0.3364 -0.6606
 6809TIP3    H141918   0.371   6.109  15.619 -0.2069  2.5998  1.2996
 6809TIP3    H241919   0.224   6.073  15.624  0.5276 -0.6884  1.5144
 6810TIP3   OH241920   3.806   1.932   1.050  0.1047 -0.4346  0.0714
 6810TIP3    H141921   3.727   1.907   1.001  0.6250 -0.1700 -0.9341
 6810TIP3    H241922   3.854   1.990   0.990 -1.0298  3.1028  2.2234
 6811TIP3   OH241923   0.691   1.492  15.354  0.1280 -0.0026  0.1731
 6811TIP3    H141924   0.650   1.574  15.326 -0.5318 -0.3525  0.0774
 6811TIP3    H241925   0.643   1.424  15.305  0.5204 -0.4580  0.4143
 6812TIP3   OH241926   6.301   4.520   3.175 -0.1270 -0.4888  0.0231
 6812TIP3    H141927   6.266   4.608   3.190 -1.0797 -0.4494 -2.1842
 6812TIP3    H241928   6.225   4.466   3.158  0.5859 -1.3409 -0.5382
 6813TIP3   OH241929   4.941   5.915   5.521 -0.2173 -0.1142 -0.4328
 6813TIP3    H141930   4.922   6.007   5.537  2.0733  0.4459 -0.5851
 6813TIP3    H241931   4.932   5.904   5.427  1.3472  0.4723 -0.6795
 6814TIP3   OH241932   0.023   5.144   1.358 -0.5742 -0.5429 -0.1879
 6814TIP3    H141933   0.087   5.213   1.376 -1.4939  0.5481 -0.9254
 6814TIP3    H241934   0.069   5.062   1.379  0.8108  0.2369 -0.0399
 6815TIP3   OH241935   2.871   1.450   4.945 -0.2099 -0.0331  0.4146
 6815TIP3    H141936   2.796   1.480   4.893 -1.5319  0.6304  2.5547
 6815TIP3    H241937   2.945   1.454   4.884 -1.2212  2.8989 -0.8332
 6816TIP3   OH241938   4.211   0.043  13.042 -0.3365  0.4788 -0.2159
 6816TIP3    H141939   4.133   0.096  13.028 -0.4118  1.1194  2.1666
 6816TIP3    H241940   4.178  -0.043  13.068 -0.2439  0.5319  0.0783
 6817TIP3   OH241941   1.993   0.842  16.884  0.0827 -0.0077  0.6726
 6817TIP3    H141942   1.958   0.927  16.911  0.9241  0.5390  0.0897
 6817TIP3    H241943   2.011   0.852  16.791 -0.3410 -1.0244  0.4659
 6818TIP3   OH241944   0.109   6.811   4.652 -0.3523 -0.3949  0.0097
 6818TIP3    H141945   0.163   6.864   4.711  0.0585 -1.9232  1.0747
 6818TIP3    H241946   0.029   6.862   4.641  1.1383  1.8742 -1.4788
 6819TIP3   OH241947   1.438   1.198   5.303  0.0271 -1.2388 -0.0088
 6819TIP3    H141948   1.484   1.135   5.359  1.0076 -1.4538 -1.0109
 6819TIP3    H241949   1.470   1.284   5.333  0.3473 -1.3389 -0.0553
 6820TIP3   OH241950   4.802   4.418  11.027  0.0094 -0.0457  0.0036
 6820TIP3    H141951   4.867   4.485  11.046 -0.2505  0.2275 -0.0643
 6820TIP3    H241952   4.770   4.440  10.939  0.3757 -0.6266 -0.2885
 6821TIP3   OH241953   0.452   2.182   2.399 -0.0087  0.1760 -0.1385
 6821TIP3    H141954   0.482   2.093   2.418  1.4809  0.9546  1.4007
 6821TIP3    H241955   0.426   2.179   2.307  0.9432 -1.6074 -0.4009
 6822TIP3   OH241956   2.343   6.510   5.082  0.0895  0.1478 -0.6368
 6822TIP3    H141957   2.288   6.435   5.061 -0.5650  0.9644 -1.9666
 6822TIP3    H241958   2.421   6.498   5.028  0.2235  0.1671 -0.4507
 6823TIP3   OH241959   1.648   0.664  13.749  0.0273 -0.3186 -0.3677
 6823TIP3    H141960   1.576   0.727  13.757 -0.8728 -1.1790 -1.3562
 6823TIP3    H241961   1.611   0.581  13.778  0.2377 -1.0148 -1.9763
 6824TIP3   OH241962   2.403   4.770  14.857  0.0271  0.3187  0.0917
 6824TIP3    H141963   2.323   4.799  14.901 -0.4763 -0.0825 -0.5545
 6824TIP3    H241964   2.468   4.835  14.882 -0.8510  1.4965 -0.5597
 6825TIP3   OH241965   5.186   5.364   1.696  0.3437 -0.1119  0.5234
 6825TIP3    H141966   5.216   5.403   1.614 -1.2853  2.1473  0.8951
 6825TIP3    H241967   5.140   5.284   1.669 -0.2420  0.6401 -0.7923
 6826TIP3   OH241968   3.030   1.978   2.429  0.2612  0.2355 -0.7794
 6826TIP3    H141969   3.113   1.953   2.390 -0.2657 -1.0344 -1.1375
 6826TIP3    H241970   3.012   1.910   2.494 -0.5112  0.4655 -0.7346
 6827TIP3   OH241971   2.232   0.773   1.869  0.2762 -0.1911  0.1991
 6827TIP3    H141972   2.262   0.842   1.928 -0.3187 -0.0159  0.3083
 6827TIP3    H241973   2.312   0.728   1.842  0.7445  0.9573 -0.3962
 6828TIP3   OH241974   3.715   6.612  14.726  0.0585  0.4772  0.2844
 6828TIP3    H141975   3.631   6.632  14.768 -1.7654  1.1879 -3.3713
 6828TIP3    H241976   3.722   6.516  14.731  0.4854  0.5590  2.9646
 6829TIP3   OH241977   6.417   4.697  17.092 -0.2391 -0.4689 -0.5429
 6829TIP3    H141978   6.341   4.749  17.069 -0.6649 -1.0207 -0.4111
 6829TIP3    H241979   6.443   4.729  17.179  1.8515  2.1615 -1.9944
 6830TIP3   OH241980   5.729   3.321  17.002  0.0372  0.3680  0.8370
 6830TIP3    H141981   5.807   3.347  16.952  0.2518 -1.5683  0.0746
 6830TIP3    H241982   5.681   3.263  16.943 -1.4059  0.6081  1.7268
 6831TIP3   OH241983   5.921   5.997   2.691  0.5093 -0.3374 -0.0457
 6831TIP3    H141984   5.888   5.965   2.607  1.8360  1.4378 -1.3171
 6831TIP3    H241985   6.016   5.987   2.685  0.6864  0.6058  0.9078
 6832TIP3   OH241986   5.851   4.294  16.079  0.5218  0.2613  0.0485
 6832TIP3    H141987   5.803   4.375  16.095 -0.3119 -0.5262  1.7647
 6832TIP3    H241988   5.825   4.268  15.990  0.7129  1.7714 -0.4821
 6833TIP3   OH241989   3.917   3.803   3.723 -0.2976  0.4520 -0.2130
 6833TIP3    H141990   3.899   3.717   3.686  0.2334 -0.0693  0.6952
 6833TIP3    H241991   3.868   3.864   3.668  0.2376 -0.3049 -1.5679
 6834TIP3   OH241992   2.886   4.420   1.901  0.4273 -0.1616 -0.0838
 6834TIP3    H141993   2.874   4.491   1.964 -0.4175  0.4613 -0.9220
 6834TIP3    H241994   2.862   4.341   1.950  0.7906  0.1866  0.6789
 6835TIP3   OH241995   3.526   3.897   1.772  0.2480 -0.3582  0.3750
 6835TIP3    H141996   3.547   3.804   1.761 -1.1392 -0.6081 -0.4484
 6835TIP3    H241997   3.573   3.923   1.851  1.3736 -1.5273  0.1254
 6836TIP3   OH241998   3.741   4.474  16.507 -0.2283  0.0105  0.0220
 6836TIP3    H141999   3.787   4.439  16.430 -0.0550  0.6731 -0.1836
 6836TIP3    H242000   3.737   4.400  16.568 -0.1075 -0.4428 -0.5060
 6837TIP3   OH242001   0.142   6.797  16.740  0.3354  0.2279 -0.4548
 6837TIP3    H142002   0.111   6.871  16.793 -1.4986 -1.7367  1.4046
 6837TIP3    H242003   0.079   6.792  16.667  0.8591  0.8730 -0.9632
 6838TIP3   OH242004   0.376   5.179  15.382  0.1921  0.2379  0.0393
 6838TIP3    H142005   0.371   5.158  15.288  1.3615 -0.7167  0.1645
 6838TIP3    H242006   0.319   5.255  15.392 -0.4779 -0.0430 -1.3265
 6839TIP3   OH242007   0.228   1.558  15.645 -0.0570 -0.2147  0.2193
 6839TIP3    H142008   0.290   1.485  15.646 -0.2518 -0.3832  1.0794
 6839TIP3    H242009   0.276   1.630  15.686 -0.1233 -0.0748  0.0519
 6840TIP3   OH242010   1.896   4.161  11.229  0.0350  0.0742 -0.2061
 6840TIP3    H142011   1.821   4.155  11.288  1.0917 -2.7924  1.0360
 6840TIP3    H242012   1.858   4.187  11.145 -2.0092  0.8844  0.8981
 6841TIP3   OH242013   0.998   4.337  15.266 -0.0916  0.0081 -0.0557
 6841TIP3    H142014   1.083   4.379  15.264 -0.8548  1.6360  0.2710
 6841TIP3    H242015   0.996   4.284  15.186  0.9474  0.5091 -0.4301
 6842TIP3   OH242016   3.745   5.229  14.051 -0.2091  0.0363  0.2624
 6842TIP3    H142017   3.778   5.207  13.964  1.0336 -3.4166  1.4009
 6842TIP3    H242018   3.650   5.219  14.045 -0.0836 -0.7723 -0.5956
 6843TIP3   OH242019   6.133   6.183  12.605 -0.2639 -0.3571  0.1074
 6843TIP3    H142020   6.217   6.137  12.608 -0.4730 -0.9357 -1.9050
 6843TIP3    H242021   6.134   6.229  12.521 -1.9340 -0.2808  0.1066
 6844TIP3   OH242022   6.144   5.098  11.991  0.4389  1.0459  0.0160
 6844TIP3    H142023   6.069   5.155  11.976 -0.2354  0.2050  0.0812
 6844TIP3    H242024   6.212   5.155  12.028 -0.5170  1.6372  0.9037
 6845TIP3   OH242025   0.302   5.781  14.626  0.5376  0.0175  0.1956
 6845TIP3    H142026   0.297   5.704  14.568  1.4712  0.1320 -0.0602
 6845TIP3    H242027   0.223   5.831  14.606  0.4634 -0.3317 -0.4240
 6846TIP3   OH242028   6.195   4.561   0.123  0.0486 -0.0660 -0.0132
 6846TIP3    H142029   6.267   4.554   0.060 -0.2575 -0.8713 -0.2792
 6846TIP3    H242030   6.233   4.534   0.206 -0.1104 -1.1771 -0.2849
 6847TIP3   OH242031   1.434   5.316   5.970 -0.1645  0.4277  0.3420
 6847TIP3    H142032   1.428   5.296   5.876  0.9837 -0.6517  0.4638
 6847TIP3    H242033   1.349   5.352   5.992 -0.5224  0.5338 -1.0829
 6848TIP3   OH242034   4.648   2.728   2.147  0.1218 -0.0059 -0.6180
 6848TIP3    H142035   4.730   2.777   2.152  1.3618 -1.9927 -0.7046
 6848TIP3    H242036   4.672   2.643   2.111 -1.8076 -1.0243  0.3208
 6849TIP3   OH242037   5.664   6.775   6.126 -0.2106  0.0706  0.0083
 6849TIP3    H142038   5.694   6.802   6.213 -0.9901  0.5652  0.1402
 6849TIP3    H242039   5.688   6.683   6.120  3.3551  0.8999 -0.7978
 6850TIP3   OH242040   5.746   1.309  11.496 -0.3136  0.4332 -0.2265
 6850TIP3    H142041   5.778   1.399  11.496  0.3248  0.2154 -0.6861
 6850TIP3    H242042   5.697   1.301  11.414 -0.4153  0.3798 -0.1609
 6851TIP3   OH242043   6.270   6.493  13.101 -0.1030 -0.2736 -0.3250
 6851TIP3    H142044   6.315   6.410  13.122 -1.0559 -1.0528 -1.2570
 6851TIP3    H242045   6.227   6.476  13.017  0.0764  1.3433 -0.7810
 6852TIP3   OH242046   1.723   4.297  16.774  0.4572  0.0527 -0.0923
 6852TIP3    H142047   1.633   4.294  16.742  0.6542  1.0171 -0.8192
 6852TIP3    H242048   1.776   4.268  16.699  0.7318 -1.0200  0.4987
 6853TIP3   OH242049   2.118   5.021   4.273 -0.1158  0.7762  0.1293
 6853TIP3    H142050   2.111   4.971   4.192  1.1510 -1.0315  1.0873
 6853TIP3    H242051   2.208   5.054   4.274 -0.5399  1.9847  0.1559
 6854TIP3   OH242052   0.437   5.049   5.587 -0.1751 -0.2154 -0.2655
 6854TIP3    H142053   0.347   5.014   5.587  0.3552 -1.6326 -0.0937
 6854TIP3    H242054   0.490   4.977   5.553  0.9095  0.6031 -0.3251
 6855TIP3   OH242055   4.522   3.263  14.088 -0.3125 -0.5976 -0.2773
 6855TIP3    H142056   4.549   3.257  14.180  0.7738 -0.6446 -0.5812
 6855TIP3    H242057   4.588   3.320  14.048 -1.2092  0.0465 -0.8712
 6856TIP3   OH242058   4.776   4.072   0.252  0.4419 -0.0092 -0.5030
 6856TIP3    H142059   4.785   4.142   0.317 -1.5353  1.5544 -1.7893
 6856TIP3    H242060   4.727   4.003   0.298  0.1060  0.5660  0.0159
 6857TIP3   OH242061   6.462   0.645  15.870 -0.0431  0.2671  0.1306
 6857TIP3    H142062   6.461   0.560  15.826 -0.4343  0.1875  0.2929
 6857TIP3    H242063   6.520   0.632  15.946 -0.6579 -0.0569  0.5506
 6858TIP3   OH242064   1.048   0.698   0.110 -0.3928  0.6625  0.2562
 6858TIP3    H142065   1.137   0.669   0.086 -0.3884 -0.1586  1.2015
 6858TIP3    H242066   0.995   0.618   0.101 -1.6926  1.7014 -3.1479
 6859TIP3   OH242067   2.425   1.578   2.757  0.2142 -0.5715 -0.1878
 6859TIP3    H142068   2.414   1.502   2.699 -1.2306 -0.8741  0.4432
 6859TIP3    H242069   2.512   1.565   2.796  0.0324 -1.8613 -0.1590
 6860TIP3   OH242070   3.518   4.522   0.576 -0.0679 -0.0137  0.3213
 6860TIP3    H142071   3.552   4.545   0.663  0.0657  0.5788  0.1131
 6860TIP3    H242072   3.452   4.455   0.594 -2.4760  2.4420  1.2018
 6861TIP3   OH242073   6.081   5.459  11.910 -0.3034 -0.5966  0.5370
 6861TIP3    H142074   6.040   5.374  11.896 -0.8519 -0.2876  0.2403
 6861TIP3    H242075   6.013   5.511  11.954 -0.1350 -0.1656  0.2885
 6862TIP3   OH242076   5.085   5.152  11.503 -0.0206  0.2550 -0.3170
 6862TIP3    H142077   5.176   5.163  11.474 -0.3375 -0.1967 -1.5385
 6862TIP3    H242078   5.055   5.072  11.459 -0.9963  0.3724  0.1041
 6863TIP3   OH242079   1.415   3.334  14.471  0.5016  0.0341 -0.2743
 6863TIP3    H142080   1.455   3.397  14.410 -0.1185  0.5634 -0.1455
 6863TIP3    H242081   1.435   3.369  14.558  1.0165 -0.4909 -0.1803
 6864TIP3   OH242082   1.078   5.515   1.071 -0.3248  0.0902  0.6630
 6864TIP3    H142083   1.085   5.455   1.146  1.4980 -1.3730 -0.5781
 6864TIP3    H242084   1.144   5.582   1.089 -0.3697  0.1261  0.6943
 6865TIP3   OH242085   2.416   1.322   3.254 -0.0162 -0.1542  0.2517
 6865TIP3    H142086   2.373   1.316   3.340 -1.9267  2.2716 -0.4136
 6865TIP3    H242087   2.344   1.324   3.192  1.2693 -0.0398 -1.2878
 6866TIP3   OH242088   6.464   0.994   2.814  0.0530  0.1541 -0.3875
 6866TIP3    H142089   6.400   0.923   2.813 -0.8266  0.8993  0.3060
 6866TIP3    H242090   6.514   0.983   2.733  0.3649 -1.6072  0.0210
 6867TIP3   OH242091   4.922   5.043   5.426 -0.0359 -0.3843  0.1434
 6867TIP3    H142092   4.967   5.087   5.498 -1.1473 -1.8672  1.8382
 6867TIP3    H242093   4.984   5.046   5.354 -0.8119  5.9542 -0.8204
 6868TIP3   OH242094   5.756   2.789   4.913  0.0950  0.3269 -0.2432
 6868TIP3    H142095   5.851   2.804   4.906  0.3925 -1.3639 -0.4697
 6868TIP3    H242096   5.744   2.702   4.875 -1.4679  0.2526  0.3726
 6869TIP3   OH242097   4.608   6.599   1.053  0.0005  0.3610 -0.0667
 6869TIP3    H142098   4.677   6.663   1.072  1.1179 -0.9214  0.3517
 6869TIP3    H242099   4.649   6.536   0.994  0.2357 -2.1558  2.5946
 6870TIP3   OH242100   6.842   2.697   1.698 -0.5275 -0.1356  0.0684
 6870TIP3    H142101   6.838   2.788   1.726 -1.4642 -0.3390  0.6467
 6870TIP3    H242102   6.750   2.668   1.697 -0.2756 -0.9559 -0.4947
 6871TIP3   OH242103   6.249   5.611  13.551 -0.2955  0.0314 -0.2348
 6871TIP3    H142104   6.172   5.604  13.608  1.0524  3.3620  2.4278
 6871TIP3    H242105   6.219   5.663  13.476 -0.7952  0.9782  0.5902
 6872TIP3   OH242106   2.930   6.592  13.688 -0.3082  0.1366 -0.0137
 6872TIP3    H142107   2.999   6.584  13.753 -0.4294 -0.4097  0.0496
 6872TIP3    H242108   2.917   6.504  13.655  0.6386  0.5861 -1.7087
 6873TIP3   OH242109   5.424   1.958   2.060  0.1270 -0.0189 -0.0642
 6873TIP3    H142110   5.433   1.892   2.129  1.7704  0.1302 -0.0860
 6873TIP3    H242111   5.419   1.907   1.979 -1.4290 -0.1820  0.1130
 6874TIP3   OH242112   0.617   5.446  10.840 -0.1544 -0.5138 -0.2794
 6874TIP3    H142113   0.672   5.523  10.836 -1.0783  0.3621  2.1046
 6874TIP3    H242114   0.676   5.375  10.865  0.5816 -0.4969 -1.8557
 6875TIP3   OH242115   0.641   4.919   2.812 -0.6242  0.4004 -0.6366
 6875TIP3    H142116   0.691   4.858   2.757  1.3838  1.0616  0.3279
 6875TIP3    H242117   0.616   4.867   2.888  0.3546  0.5396 -0.2059
 6876TIP3   OH242118   2.962   0.414  12.011 -0.2240  0.1605 -0.0840
 6876TIP3    H142119   3.035   0.353  12.006 -0.4750 -0.6520  3.5409
 6876TIP3    H242120   2.996   0.489  12.061 -1.6033  0.1200  0.9745
 6877TIP3   OH242121   5.468   6.094  11.214  0.0076  0.7364  0.0222
 6877TIP3    H142122   5.397   6.112  11.153  0.7779  0.9570 -0.8242
 6877TIP3    H242123   5.548   6.114  11.165  0.6687  0.2173  0.8623
 6878TIP3   OH242124   1.548   3.233   3.165  0.2942 -0.0356 -0.0032
 6878TIP3    H142125   1.597   3.271   3.239  0.8974  0.5078 -0.6649
 6878TIP3    H242126   1.494   3.305   3.133 -1.1718 -0.7077  0.8891
 6879TIP3   OH242127   3.161   4.683  14.515  0.2253  0.2959  0.1610
 6879TIP3    H142128   3.125   4.702  14.601 -0.0032 -2.2389  0.7252
 6879TIP3    H242129   3.084   4.678  14.458  0.0970 -0.4874  0.3806
 6880TIP3   OH242130   6.664   3.234  11.712  0.6760  0.1395 -0.4729
 6880TIP3    H142131   6.691   3.184  11.635  1.3520 -0.9834  0.4714
 6880TIP3    H242132   6.577   3.201  11.733  1.0012 -0.4236 -0.0223
 6881TIP3   OH242133   2.904   1.019   0.010  0.1988 -0.0644 -0.8172
 6881TIP3    H142134   2.864   0.943   0.052 -0.8159  0.2421 -1.2119
 6881TIP3    H242135   2.831   1.076  -0.012  0.9252  0.9398 -0.7235
 6882TIP3   OH242136   1.023   5.145   1.563  0.1313 -0.6409 -0.5966
 6882TIP3    H142137   0.945   5.096   1.535  0.3380 -0.7380 -1.0092
 6882TIP3    H242138   0.996   5.236   1.563 -0.5003 -0.7842  0.9447
 6883TIP3   OH242139   5.515   0.160   1.041  0.0762 -0.1037  0.1091
 6883TIP3    H142140   5.588   0.174   1.102  0.0084 -0.2900  0.2308
 6883TIP3    H242141   5.557   0.159   0.954  0.2147 -0.1828  0.1766
 6884TIP3   OH242142   0.623   1.884  12.436  0.8301 -0.7276 -0.2651
 6884TIP3    H142143   0.658   1.971  12.455 -0.7618  0.0782 -0.7948
 6884TIP3    H242144   0.555   1.899  12.370  0.6431 -2.4065 -0.5188
 6885TIP3   OH242145   5.628   2.500  14.351 -0.0318 -0.4665 -0.3740
 6885TIP3    H142146   5.702   2.490  14.411  0.6452  0.6009 -0.9932
 6885TIP3    H242147   5.669   2.509  14.265 -0.7345  2.0106 -0.5264
 6886TIP3   OH242148   3.786   4.423  15.147  0.0154 -0.3933 -0.5088
 6886TIP3    H142149   3.855   4.374  15.102  1.7672 -0.2277  1.8358
 6886TIP3    H242150   3.823   4.510  15.161 -0.4945 -0.4020  1.0968
 6887TIP3   OH242151   0.671   4.824   1.148 -0.2104  0.9041  0.5342
 6887TIP3    H142152   0.763   4.848   1.136 -0.6354  1.9706 -0.8406
 6887TIP3    H242153   0.671   4.768   1.226  1.5530  1.1219  0.7348
 6888TIP3   OH242154   5.160   1.556  10.567  0.0769 -0.5802  0.1059
 6888TIP3    H142155   5.221   1.615  10.611  0.1819 -1.3324  0.9957
 6888TIP3    H242156   5.204   1.534  10.485  1.2141 -1.4041  0.9001
 6889TIP3   OH242157   6.496   6.180  11.699 -0.5456 -0.2113  0.3007
 6889TIP3    H142158   6.536   6.156  11.616 -1.7959  2.8341 -1.3185
 6889TIP3    H242159   6.562   6.234  11.743 -0.3349 -0.8619  0.8100
 6890TIP3   OH242160   5.262   6.846   1.403 -0.4037  0.4001 -0.5704
 6890TIP3    H142161   5.293   6.788   1.333 -1.1791 -1.1723  0.3304
 6890TIP3    H242162   5.341   6.887   1.437  0.6064 -2.1702  0.5001
 6891TIP3   OH242163   5.405   2.071  14.483  0.3234  0.0306 -0.0947
 6891TIP3    H142164   5.310   2.068  14.473  0.2425  1.2943  0.1719
 6891TIP3    H242165   5.436   2.117  14.404  0.6400  0.3349  0.2037
 6892TIP3   OH242166   4.594   2.838  15.619  0.2045 -0.1847  0.6222
 6892TIP3    H142167   4.540   2.854  15.697 -0.7313 -0.0642 -0.0242
 6892TIP3    H242168   4.541   2.779  15.566  0.9388 -0.4558  0.1900
 6893TIP3   OH242169   5.392   2.682  14.332  0.1544  0.1043 -0.6900
 6893TIP3    H142170   5.453   2.612  14.309  0.3814 -0.2384  0.8580
 6893TIP3    H242171   5.423   2.714  14.417 -0.4899  1.4711 -0.9358
 6894TIP3   OH242172   2.864   3.399  14.994  0.4071  0.8022 -0.3734
 6894TIP3    H142173   2.930   3.449  15.041  0.6555 -0.5268  0.7487
 6894TIP3    H242174   2.780   3.428  15.031  0.5702  0.1490  0.5200
 6895TIP3   OH242175   2.579   3.656  12.731  0.4887  0.0662 -0.3974
 6895TIP3    H142176   2.495   3.697  12.750 -0.7090 -1.5472 -1.8590
 6895TIP3    H242177   2.590   3.666  12.636  0.9773 -1.4313 -0.5324
 6896TIP3   OH242178   3.447   5.683   2.940 -0.8852 -0.5233 -0.1258
 6896TIP3    H142179   3.482   5.738   2.869  1.1431 -1.5176  0.0373
 6896TIP3    H242180   3.482   5.722   3.020 -2.0893 -0.1895  0.2629
 6897TIP3   OH242181   1.031   4.464   5.164 -0.1595  0.3484 -0.2295
 6897TIP3    H142182   0.946   4.501   5.137 -0.0362 -0.1660 -1.3739
 6897TIP3    H242183   1.009   4.404   5.234 -0.6988  0.5055 -0.2566
 6898TIP3   OH242184   5.029   2.522  12.422 -0.1038  0.1676 -0.4140
 6898TIP3    H142185   4.994   2.439  12.455  0.5926  0.7865  2.1106
 6898TIP3    H242186   4.952   2.570  12.391 -0.8990 -0.2934  0.7857
 6899TIP3   OH242187   4.233   3.598  17.140 -0.0155  0.1905  0.4696
 6899TIP3    H142188   4.272   3.570  17.057  1.3754  1.6917  0.5598
 6899TIP3    H242189   4.270   3.685  17.156 -2.5575  1.2683  1.1593
 6900TIP3   OH242190   5.955   4.759  10.884  0.0874 -0.1852 -0.3057
 6900TIP3    H142191   5.933   4.776  10.792 -0.1842  1.0778 -0.0267
 6900TIP3    H242192   5.933   4.667  10.897  0.3274 -0.4389 -1.5590
 6901TIP3   OH242193   0.624   5.571   3.172  0.5795 -0.4312 -0.0757
 6901TIP3    H142194   0.615   5.652   3.222  1.5494 -1.3028  1.5723
 6901TIP3    H242195   0.716   5.569   3.146  0.3002 -0.4671 -1.1122
 6902TIP3   OH242196   0.484   4.447  11.970 -0.3764  0.1647 -0.0818
 6902TIP3    H142197   0.477   4.534  12.010  0.1319  0.4593 -0.6236
 6902TIP3    H242198   0.563   4.452  11.916 -1.3780 -0.0158 -1.6081
 6903TIP3   OH242199   5.314   6.627  15.204 -0.5300  0.4536 -0.5716
 6903TIP3    H142200   5.365   6.699  15.168  0.4696  0.1523  0.2353
 6903TIP3    H242201   5.256   6.668  15.268 -1.1836  0.7590 -1.3255
 6904TIP3   OH242202   0.145   4.974  15.438  0.4247  0.2459  1.0418
 6904TIP3    H142203   0.149   5.008  15.349 -4.7796 -1.4490 -0.1449
 6904TIP3    H242204   0.117   5.048  15.491  0.9277  0.6026  0.8244
 6905TIP3   OH242205   0.944   4.551   4.339 -0.2661 -0.5328  0.7709
 6905TIP3    H142206   1.019   4.595   4.299 -0.2498 -1.4557 -0.2585
 6905TIP3    H242207   0.915   4.488   4.274 -2.2503  0.1079  0.9544
 6906TIP3   OH242208   4.920   5.721  15.419  0.0884  0.0266  0.0374
 6906TIP3    H142209   4.859   5.736  15.491  1.6862  0.3826  1.3663
 6906TIP3    H242210   4.910   5.628  15.399 -1.1482  0.1612 -0.0223
 6907TIP3   OH242211   2.409   2.714  15.648 -0.0711 -0.0788 -0.0334
 6907TIP3    H142212   2.475   2.715  15.579 -0.5716 -2.3364 -0.6303
 6907TIP3    H242213   2.392   2.621  15.664  0.8736  0.2780  4.0045
 6908TIP3   OH242214   3.979   4.532  14.249 -0.2761 -0.8599  0.1398
 6908TIP3    H142215   3.985   4.490  14.163  1.7083  1.1830 -0.8043
 6908TIP3    H242216   3.886   4.528  14.271 -1.1324  0.1049 -2.9206
 6909TIP3   OH242217   2.367   3.213   1.854  0.3972  0.3385 -0.3671
 6909TIP3    H142218   2.290   3.157   1.867 -0.6609  1.5742 -1.0879
 6909TIP3    H242219   2.391   3.200   1.762  2.2306 -1.4297  0.2862
 6910TIP3   OH242220   6.367   2.943   4.343 -0.2638 -0.0258  0.3391
 6910TIP3    H142221   6.342   2.881   4.274  0.4298  0.6609 -0.5604
 6910TIP3    H242222   6.318   2.915   4.420 -1.9058 -0.1655 -0.7166
 6911TIP3   OH242223   4.081   0.163  10.800 -0.1421 -0.2252  0.1476
 6911TIP3    H142224   4.090   0.104  10.725 -1.1033 -0.1322 -0.0626
 6911TIP3    H242225   4.169   0.195  10.817 -0.2040  2.2005 -2.9650
 6912TIP3   OH242226   6.245   1.117   4.247  0.7317 -0.5056 -0.3560
 6912TIP3    H142227   6.329   1.127   4.200  0.8377 -1.5117 -0.3920
 6912TIP3    H242228   6.263   1.151   4.334  0.8500  0.3371 -0.6920
 6913TIP3   OH242229   1.996   0.119  12.385  0.0619  0.2994  0.1608
 6913TIP3    H142230   1.958   0.180  12.322  0.0768 -0.2197 -0.3568
 6913TIP3    H242231   2.028   0.174  12.456  4.5751  1.4593 -2.4253
 6914TIP3   OH242232   4.369   2.218   5.245  0.9023 -0.2044  0.0837
 6914TIP3    H142233   4.311   2.253   5.313  2.4228  1.6820  0.5076
 6914TIP3    H242234   4.357   2.278   5.171  1.5402 -0.4149 -0.1960
 6915TIP3   OH242235   5.016   0.645   1.068  0.4301  0.4846  0.5492
 6915TIP3    H142236   5.069   0.565   1.065  2.6666  1.8626 -2.3851
 6915TIP3    H242237   4.971   0.647   0.984 -0.8962  1.5543  1.2389
 6916TIP3   OH242238   3.216   5.190  11.319 -0.8949  0.4259 -0.3915
 6916TIP3    H142239   3.228   5.186  11.414  1.1490  0.6228 -0.6053
 6916TIP3    H242240   3.196   5.100  11.294  0.1702  0.0505  0.0515
 6917TIP3   OH242241   2.536   1.669   1.548 -0.0565  0.0635  0.2066
 6917TIP3    H142242   2.557   1.692   1.458  3.2004  0.0372  0.8412
 6917TIP3    H242243   2.510   1.751   1.589 -1.6338  0.0638 -0.6922
 6918TIP3   OH242244   2.907   3.272  13.595  0.1996 -0.2366 -0.0197
 6918TIP3    H142245   2.942   3.361  13.586  0.0797 -0.2142 -0.2641
 6918TIP3    H242246   2.961   3.219  13.537 -0.5649 -0.0923 -0.8887
 6919TIP3   OH242247   4.939   4.915  13.306 -0.1906 -0.0919 -0.4911
 6919TIP3    H142248   4.879   4.850  13.344 -0.0144 -1.1288 -1.8777
 6919TIP3    H242249   4.907   4.926  13.217  1.4130 -0.3540 -1.1348
 6920TIP3   OH242250   6.839   2.452  12.638  0.7736 -0.1579 -0.5892
 6920TIP3    H142251   6.789   2.513  12.692  0.5161  0.1507 -1.1589
 6920TIP3    H242252   6.813   2.474  12.548 -0.9943 -2.5327 -0.7415
 6921TIP3   OH242253   1.238   1.436   3.481  0.4332  0.1057  0.2105
 6921TIP3    H142254   1.236   1.482   3.397  0.2510  0.9788  0.6762
 6921TIP3    H242255   1.147   1.435   3.510 -0.0206 -2.9475 -1.0070
 6922TIP3   OH242256   0.832   6.133  12.248 -0.3183 -0.1771  0.3231
 6922TIP3    H142257   0.833   6.190  12.171 -0.6770 -0.9287 -0.2526
 6922TIP3    H242258   0.739   6.121  12.268 -0.2582 -0.8607  0.2082
 6923TIP3   OH242259   0.517   4.287  15.274 -0.2241  0.0867  0.3239
 6923TIP3    H142260   0.551   4.201  15.296  0.8961  0.0762 -1.2827
 6923TIP3    H242261   0.583   4.348  15.307 -0.8585  0.3279  1.1743
 6924TIP3   OH242262   1.170   0.774  13.981  0.3727 -0.2339  0.4217
 6924TIP3    H142263   1.124   0.704  13.936  1.3394 -0.4508 -0.2598
 6924TIP3    H242264   1.205   0.829  13.910  3.0080 -1.2812  0.7981
 6925TIP3   OH242265   0.861   1.918  14.244 -0.5120  0.2666 -0.3728
 6925TIP3    H142266   0.778   1.877  14.268 -0.2189  0.5614  1.2832
 6925TIP3    H242267   0.889   1.964  14.323  0.7015  1.0804 -1.2283
 6926TIP3   OH242268   2.466   4.279   5.127  0.4969  0.1812  0.2646
 6926TIP3    H142269   2.545   4.253   5.079  0.9198  1.1944  0.3877
 6926TIP3    H242270   2.437   4.358   5.082 -0.0681  0.1864  0.6424
 6927TIP3   OH242271   5.762   1.555  16.411 -0.2447 -0.0686 -0.2036
 6927TIP3    H142272   5.799   1.600  16.335 -0.3527 -1.5367 -1.1647
 6927TIP3    H242273   5.831   1.494  16.440  0.4914  1.6847  2.0335
 6928TIP3   OH242274   2.728   5.553  15.909  0.0371 -0.2336  0.5984
 6928TIP3    H142275   2.649   5.578  15.862 -0.8703  1.2464  2.7603
 6928TIP3    H242276   2.697   5.501  15.983  0.9777  0.8941  1.8395
 6929TIP3   OH242277   1.846   1.743   5.771 -0.5269 -0.2165  0.1500
 6929TIP3    H142278   1.903   1.725   5.697  0.1534 -0.1463  0.6432
 6929TIP3    H242279   1.858   1.669   5.830 -0.9155 -0.1809  0.2766
 6930TIP3   OH242280   0.328   4.100   5.161 -0.4859  0.1810 -0.2906
 6930TIP3    H142281   0.278   4.152   5.224 -1.7390  0.9700 -1.8615
 6930TIP3    H242282   0.414   4.144   5.157 -1.8969  3.0782 -2.5011
 6931TIP3   OH242283   3.648   0.247   5.503  0.8087  0.1202 -0.3674
 6931TIP3    H142284   3.605   0.322   5.543  1.7057  0.1437  0.5864
 6931TIP3    H242285   3.674   0.278   5.416 -1.4467 -0.0367 -1.1517
 6932TIP3   OH242286   0.463   0.284   5.225 -0.1125 -0.3943  0.0120
 6932TIP3    H142287   0.407   0.231   5.282 -0.2407 -1.8021 -1.3634
 6932TIP3    H242288   0.439   0.374   5.246 -0.0057 -0.8390  2.3034
 6933TIP3   OH242289   4.525   3.116  10.148 -0.4704 -0.1596 -0.1367
 6933TIP3    H142290   4.565   3.184  10.202 -0.6390  0.4072 -0.7179
 6933TIP3    H242291   4.431   3.130  10.157 -0.5018 -0.1397 -0.4832
 6934TIP3   OH242292   0.533   5.721  12.868  0.0442  0.1189 -0.4269
 6934TIP3    H142293   0.461   5.750  12.924 -0.6123  1.4062 -1.8387
 6934TIP3    H242294   0.595   5.679  12.927 -1.8443 -1.0016  0.8394
 6935TIP3   OH242295   1.019   0.086   2.551 -0.4230 -0.5087  0.0057
 6935TIP3    H142296   1.108   0.117   2.534 -0.1204 -1.5273 -0.3399
 6935TIP3    H242297   0.963   0.137   2.492 -0.1133  0.4047  0.5027
 6936TIP3   OH242298   2.797   1.100   2.795 -0.2699 -0.5083 -0.7325
 6936TIP3    H142299   2.812   1.006   2.810 -1.0380 -0.5926 -0.4681
 6936TIP3    H242300   2.771   1.134   2.881 -1.3976 -0.3344 -1.1289
 6937TIP3   OH242301   0.248   6.247  12.725 -0.0472 -0.1108  0.3682
 6937TIP3    H142302   0.206   6.164  12.700 -0.6420 -0.6064  2.7351
 6937TIP3    H242303   0.253   6.243  12.820  4.0725  0.5820  0.3925
 6938TIP3   OH242304   2.430   3.436  12.792  0.0859 -0.0328 -0.2211
 6938TIP3    H142305   2.491   3.365  12.772 -2.0354 -1.5450 -1.6964
 6938TIP3    H242306   2.478   3.516  12.771  0.9500 -1.2336 -3.3069
 6939TIP3   OH242307   1.118   3.403  14.665 -0.4734  0.0037  0.0604
 6939TIP3    H142308   1.159   3.480  14.627 -0.5427 -0.9876 -2.1902
 6939TIP3    H242309   1.167   3.387  14.746  0.2129  1.7752  0.0383
 6940TIP3   OH242310   6.076   4.914   4.003  0.2584 -0.3077  0.2093
 6940TIP3    H142311   6.163   4.902   4.041  0.1734 -1.2410  0.1310
 6940TIP3    H242312   6.039   4.826   4.000 -1.5308  0.2934  2.2162
 6941TIP3   OH242313   4.002   0.477  14.276 -0.3746  0.2043 -0.3998
 6941TIP3    H142314   3.928   0.424  14.248  0.0073  0.2517 -1.5531
 6941TIP3    H242315   4.076   0.416  14.279 -0.0167  0.5741 -1.3470
 6942TIP3   OH242316   0.894   3.976  15.790 -0.1759  0.0730  0.7152
 6942TIP3    H142317   0.911   3.916  15.863 -0.1511 -0.3918  0.3339
 6942TIP3    H242318   0.875   4.060  15.831  2.5828  0.5545  1.2083
 6943TIP3   OH242319   5.145   6.849  14.449 -0.1909 -0.3622  0.2131
 6943TIP3    H142320   5.091   6.780  14.412 -0.3226  0.3288 -0.9372
 6943TIP3    H242321   5.211   6.867  14.381  0.4157 -0.0116  0.8836
 6944TIP3   OH242322   0.550   5.524   1.778  0.0155 -0.4944  0.0921
 6944TIP3    H142323   0.555   5.459   1.848  1.2493  0.1714  0.6550
 6944TIP3    H242324   0.627   5.578   1.790 -0.9702  1.0875 -0.3625
 6945TIP3   OH242325   6.395   2.038   5.348 -0.4507 -0.2453 -0.2879
 6945TIP3    H142326   6.416   2.128   5.324 -0.0414 -0.0789  0.6290
 6945TIP3    H242327   6.378   1.993   5.265 -1.6787  0.9245 -0.7064
 6946TIP3   OH242328   2.547   4.978  11.228  0.5459  1.2613  0.3184
 6946TIP3    H142329   2.529   4.906  11.167  1.8672  0.6719  0.6042
 6946TIP3    H242330   2.461   5.019  11.241 -0.7405 -1.6331  1.9061
 6947TIP3   OH242331   6.707   5.187   2.875  0.0903  0.1409  0.0565
 6947TIP3    H142332   6.696   5.103   2.830  0.1917 -0.6490  1.4572
 6947TIP3    H242333   6.747   5.244   2.809  0.6853 -1.1173 -0.7051
 6948TIP3   OH242334   3.907   5.233   0.143 -0.1180  0.1731  0.1347
 6948TIP3    H142335   3.910   5.137   0.144  1.6333  0.1858 -0.7164
 6948TIP3    H242336   3.852   5.256   0.218  0.5302 -1.4697  1.1782
 6949TIP3   OH242337   2.400   4.626  10.757 -0.5451 -0.0213  0.5263
 6949TIP3    H142338   2.430   4.618  10.847  0.9770  0.5515  0.1017
 6949TIP3    H242339   2.477   4.653  10.708 -1.0798 -1.3121 -1.1341
 6950TIP3   OH242340   6.061   3.093  12.710  0.3985 -0.1277 -0.0706
 6950TIP3    H142341   5.970   3.075  12.733  0.5944 -2.0591 -0.5902
 6950TIP3    H242342   6.111   3.069  12.788  0.5747 -0.6176 -0.3294
 6951TIP3   OH242343   4.094   3.032  14.720  0.0614 -0.0509 -0.1794
 6951TIP3    H142344   4.068   3.089  14.648 -0.7043 -1.7899 -1.3571
 6951TIP3    H242345   4.142   2.961  14.678  0.4305 -0.6154  1.1489
 6952TIP3   OH242346   2.431   0.388  15.638  0.4553 -0.0054 -0.2261
 6952TIP3    H142347   2.348   0.430  15.614  0.5169  1.4494  1.8828
 6952TIP3    H242348   2.405   0.306  15.679 -0.0375  0.7239  0.9934
 6953TIP3   OH242349   3.297   4.443   2.999 -0.5794  0.3251 -0.6363
 6953TIP3    H142350   3.218   4.405   3.037 -0.0502  0.3371  0.5333
 6953TIP3    H242351   3.281   4.443   2.905 -2.6892  1.9298 -0.3580
 6954TIP3   OH242352   3.334   6.439  12.042  0.7954  0.1649  0.6750
 6954TIP3    H142353   3.326   6.389  11.961  0.7030 -0.8295  1.2802
 6954TIP3    H242354   3.275   6.513  12.031 -0.9248 -1.1466  0.7004
 6955TIP3   OH242355   4.629   3.235   1.189 -0.1084  0.1884  0.1770
 6955TIP3    H142356   4.624   3.322   1.230  0.1180 -0.5566  1.8727
 6955TIP3    H242357   4.537   3.209   1.177 -0.1906  0.2168  0.7012
 6956TIP3   OH242358   4.050   3.119   2.832  1.0634  0.0059  0.3887
 6956TIP3    H142359   4.095   3.143   2.751  1.6479  0.4173  0.8361
 6956TIP3    H242360   3.963   3.157   2.823  0.5603 -1.3027 -0.7484
 6957TIP3   OH242361   6.566   6.059   5.551  0.1625  0.0118  0.2889
 6957TIP3    H142362   6.659   6.048   5.572  0.5358 -0.2596 -1.3532
 6957TIP3    H242363   6.553   6.153   5.551  0.3958  0.0483  0.6700
 6958TIP3   OH242364   3.103   1.604  10.651  0.6920  0.2807  0.0460
 6958TIP3    H142365   3.116   1.698  10.637  0.3215  0.2490 -0.5545
 6958TIP3    H242366   3.042   1.578  10.582  0.3857 -0.2974  0.5248
 6959TIP3   OH242367   3.867   0.805  14.859 -0.2159  0.1854  0.1244
 6959TIP3    H142368   3.900   0.803  14.770  0.6354  0.6589  0.4203
 6959TIP3    H242369   3.843   0.897  14.874 -0.3627  0.1072  0.3806
 6960TIP3   OH242370   4.560   2.756  13.962 -0.1218  0.0632  0.0488
 6960TIP3    H142371   4.624   2.823  13.987 -1.3180  0.8853  1.0106
 6960TIP3    H242372   4.516   2.793  13.885 -0.8762  0.4588  0.6628
 6961TIP3   OH242373   3.342   1.930  12.170  0.2507 -0.3807  0.0530
 6961TIP3    H142374   3.398   1.900  12.241 -0.4610  0.0830  0.8258
 6961TIP3    H242375   3.254   1.905  12.196  0.1403 -1.8294 -1.5256
 6962TIP3   OH242376   4.002   5.558   5.307 -0.0673 -0.4373 -0.3378
 6962TIP3    H142377   4.006   5.472   5.349  1.9086  0.1171  0.7032
 6962TIP3    H242378   3.940   5.608   5.360  1.5404 -0.1130  1.3246
 6963TIP3   OH242379   4.823   6.847  14.981  0.3559  0.0473  0.9869
 6963TIP3    H142380   4.867   6.771  15.019  0.9638  0.3750  0.9670
 6963TIP3    H242381   4.895   6.905  14.954 -0.0175 -0.3268 -0.9948
 6964TIP3   OH242382   2.692   5.104   3.458  0.3352  0.5705 -0.0430
 6964TIP3    H142383   2.715   5.013   3.441 -1.3822  0.4126 -1.9542
 6964TIP3    H242384   2.718   5.151   3.379 -0.7202  1.3295  0.0285
 6965TIP3   OH242385   1.833   4.170   1.106  0.1061  0.0460  0.1044
 6965TIP3    H142386   1.858   4.106   1.039  0.1856  0.1278  0.0559
 6965TIP3    H242387   1.847   4.125   1.189  1.2263  0.3757  0.1118
 6966TIP3   OH242388   5.168   1.752   2.763 -0.3796  0.6217 -0.2651
 6966TIP3    H142389   5.129   1.700   2.834 -0.7612 -0.7647 -1.4458
 6966TIP3    H242390   5.261   1.732   2.767 -0.3372  0.8648  0.0761
 6967TIP3   OH242391   5.047   4.568   6.540  0.5344 -0.3181 -0.0839
 6967TIP3    H142392   4.982   4.564   6.610  1.3468 -1.9025  0.6086
 6967TIP3    H242393   5.068   4.661   6.532  0.4486 -0.1132  1.7937
 6968TIP3   OH242394   5.330   4.325   2.686  0.3702 -0.1357 -0.9119
 6968TIP3    H142395   5.334   4.417   2.658  0.4572  0.2637  0.3499
 6968TIP3    H242396   5.355   4.327   2.778  2.9094 -1.7637 -1.4913
 6969TIP3   OH242397   5.964   6.416   6.364  0.4192 -0.5287 -0.7943
 6969TIP3    H142398   5.893   6.419   6.429  0.6041 -2.5970 -0.4049
 6969TIP3    H242399   6.041   6.393   6.415  1.1590  0.6126 -1.3768
 6970TIP3   OH242400   2.088   4.068  15.305 -0.0278 -0.3782  0.2782
 6970TIP3    H142401   2.161   4.031  15.356  1.0747  0.6899 -0.4602
 6970TIP3    H242402   2.055   3.995  15.254 -0.3411 -1.1817  1.5837
 6971TIP3   OH242403   2.884   1.828  12.501  0.3419 -0.4757  0.0498
 6971TIP3    H142404   2.841   1.884  12.436  1.3559 -1.2587 -1.3584
 6971TIP3    H242405   2.840   1.848  12.583 -1.6666 -0.1401 -1.0379
 6972TIP3   OH242406   3.001   3.246  10.646 -0.1010  0.2317  0.1122
 6972TIP3    H142407   2.950   3.225  10.568  1.4509  1.2751 -1.2600
 6972TIP3    H242408   2.948   3.216  10.719 -1.6720 -0.6543 -1.3426
 6973TIP3   OH242409   2.295   2.249  12.786 -1.0111  0.7899 -0.7692
 6973TIP3    H142410   2.284   2.160  12.752 -0.8531 -0.3761  1.9615
 6973TIP3    H242411   2.210   2.273  12.822 -0.8109  1.3641 -0.6545
 6974TIP3   OH242412   5.309   1.070   0.991 -0.0821 -0.1430  0.0585
 6974TIP3    H142413   5.213   1.066   0.992 -0.0409 -1.8885  0.0437
 6974TIP3    H242414   5.330   1.102   0.903 -0.6491 -2.3255 -0.9433
 6975TIP3   OH242415   1.803   4.888  11.426  0.2639 -1.1321 -0.3245
 6975TIP3    H142416   1.714   4.922  11.431  0.9527  1.0175 -1.3585
 6975TIP3    H242417   1.823   4.859  11.515 -0.8589 -0.0030  0.3280
 6976TIP3   OH242418   3.278   0.278   3.890 -0.3581 -0.0310  0.5285
 6976TIP3    H142419   3.350   0.220   3.916 -0.2570 -0.8566 -1.4072
 6976TIP3    H242420   3.302   0.307   3.802 -3.7161 -2.7255 -1.5123
 6977TIP3   OH242421   2.781   0.449   5.747  0.2388 -0.1676  1.0310
 6977TIP3    H142422   2.747   0.517   5.804  0.1258  1.0518 -0.4376
 6977TIP3    H242423   2.713   0.436   5.681  0.8127 -0.7513  0.5316
 6978TIP3   OH242424   4.202   5.661  12.552  0.2818  0.5330 -0.2187
 6978TIP3    H142425   4.268   5.668  12.621  1.2246  0.4327 -1.0869
 6978TIP3    H242426   4.127   5.710  12.586  0.9299  0.9738  0.6369
 6979TIP3   OH242427   3.532   2.551  13.193  0.5881 -0.4646 -0.9684
 6979TIP3    H142428   3.596   2.490  13.156  0.7694 -1.1598  0.4254
 6979TIP3    H242429   3.528   2.528  13.286  0.5832  1.5820 -0.4104
 6980TIP3   OH242430   2.538   0.935   3.116 -0.0207 -0.9983  0.1196
 6980TIP3    H142431   2.617   0.986   3.132 -0.1334 -0.2651 -1.4461
 6980TIP3    H242432   2.568   0.844   3.112  0.4361 -0.9135  1.3135
 6981TIP3   OH242433   4.584   0.558   6.490 -0.4072  0.1112  0.5649
 6981TIP3    H142434   4.599   0.511   6.407  0.5776 -1.5954  1.6438
 6981TIP3    H242435   4.606   0.649   6.470 -1.3177 -0.0117 -1.3285
 6982TIP3   OH242436   1.198   3.905  14.720 -0.7536 -0.0041 -0.4358
 6982TIP3    H142437   1.113   3.947  14.727 -0.5491  0.3556 -0.0719
 6982TIP3    H242438   1.228   3.926  14.632 -0.5972  0.7251 -0.2138
 6983TIP3   OH242439   3.038   4.236   3.861  0.1712  0.5028  0.1790
 6983TIP3    H142440   2.950   4.228   3.898 -0.3885  0.4848 -1.1155
 6983TIP3    H242441   3.055   4.151   3.820  0.6686  0.6211  0.1290
 6984TIP3   OH242442   2.250   0.838  11.275  0.3781 -0.3292 -0.9426
 6984TIP3    H142443   2.236   0.932  11.267 -0.8665 -0.4469 -0.4470
 6984TIP3    H242444   2.217   0.816  11.362 -0.1872 -1.3464 -1.3866
 6985TIP3   OH242445   2.742   5.174   5.689 -0.3334  0.4082  0.3808
 6985TIP3    H142446   2.689   5.252   5.706  0.6741  1.3173 -0.4615
 6985TIP3    H242447   2.680   5.102   5.690 -1.4965  1.3676 -0.0304
 6986TIP3   OH242448   2.536   1.916  11.180  0.1962  0.3122  0.1539
 6986TIP3    H142449   2.582   1.866  11.248 -0.8676 -1.7104 -0.5299
 6986TIP3    H242450   2.443   1.908  11.204 -0.1909 -0.4182 -1.5030
 6987TIP3   OH242451   4.290   5.105   3.151  0.1474  0.4935  0.8432
 6987TIP3    H142452   4.375   5.126   3.191  1.1256 -1.7582  0.1203
 6987TIP3    H242453   4.274   5.014   3.176 -0.8395  0.0876 -1.0747
 6988TIP3   OH242454   6.368   5.750  14.153 -0.1585 -0.6524  0.6845
 6988TIP3    H142455   6.435   5.684  14.137 -0.8019 -1.0446 -0.5593
 6988TIP3    H242456   6.302   5.734  14.085 -0.2189  1.4222  0.1733
 6989TIP3   OH242457   3.769   3.246  11.336  0.1913  0.0522 -0.2252
 6989TIP3    H142458   3.863   3.232  11.345  0.3669  1.0481 -0.3846
 6989TIP3    H242459   3.760   3.340  11.317 -0.8896  0.1521  0.6582
 6990TIP3   OH242460   5.063   3.483  15.728  0.1590  0.1130 -0.2964
 6990TIP3    H142461   4.997   3.552  15.724  2.2263  2.3305  1.0308
 6990TIP3    H242462   5.027   3.419  15.790 -1.0398  0.8955 -0.1592
 6991TIP3   OH242463   5.222   3.639   2.238 -0.1874 -0.0642 -0.6280
 6991TIP3    H142464   5.192   3.561   2.282  0.6971 -0.3977 -0.5876
 6991TIP3    H242465   5.237   3.612   2.147  0.0264  0.0758 -0.6376
 6992TIP3   OH242466   0.322   6.377   5.899  0.4360  0.0789 -0.2671
 6992TIP3    H142467   0.241   6.421   5.877 -0.3357 -1.6828 -1.1702
 6992TIP3    H242468   0.316   6.360   5.993 -0.1428  0.1583 -0.2891
 6993TIP3   OH242469   1.881   2.503  16.084 -0.5282  0.1951  0.0656
 6993TIP3    H142470   1.822   2.463  16.148 -1.5638  2.1777  0.4074
 6993TIP3    H242471   1.823   2.538  16.016  0.5137 -1.3661 -1.7486
 6994TIP3   OH242472   5.872   4.034   5.093  0.6635 -0.5367  0.0481
 6994TIP3    H142473   5.924   4.096   5.144 -0.2498  0.8650 -0.6511
 6994TIP3    H242474   5.830   3.978   5.158  0.2161  0.6446  0.8159
 6995TIP3   OH242475   5.566   6.496  12.028  0.0734 -0.9439  0.7324
 6995TIP3    H142476   5.545   6.574  12.081  2.1495 -0.5491  1.0501
 6995TIP3    H242477   5.516   6.508  11.948 -1.8446 -0.7174  1.8902
 6996TIP3   OH242478   6.011   3.868  11.955 -0.2528 -0.7671 -0.6271
 6996TIP3    H142479   5.945   3.876  11.886 -1.9048  2.0821  1.0898
 6996TIP3    H242480   5.979   3.797  12.011 -2.1645  0.7754  0.3535
 6997TIP3   OH242481   0.503   5.269  16.825 -0.6850 -0.0840 -0.4529
 6997TIP3    H142482   0.552   5.197  16.786  1.1476  1.0205 -0.3139
 6997TIP3    H242483   0.514   5.258  16.920 -0.8133  0.0881 -0.4159
 6998TIP3   OH242484   3.805   5.286  15.685  0.2023 -0.1187 -0.0436
 6998TIP3    H142485   3.744   5.229  15.733 -1.1918  1.2261 -0.1307
 6998TIP3    H242486   3.796   5.258  15.594  0.2258 -0.3715  0.0295
 6999TIP3   OH242487   1.339   1.757   1.427  0.2375  0.6660  0.5673
 6999TIP3    H142488   1.392   1.692   1.382 -1.6828  0.5162 -1.7043
 6999TIP3    H242489   1.267   1.707   1.466  0.4119  1.1060  1.4633
 7000TIP3   OH242490   1.198   2.279   2.917 -0.1766 -0.4761 -0.0745
 7000TIP3    H142491   1.116   2.328   2.914 -0.1672 -0.3140  1.3910
 7000TIP3    H242492   1.262   2.342   2.952  0.4065 -0.8236 -0.4858
 7001TIP3   OH242493   2.008   2.615   3.761  0.0991 -0.1635  0.0132
 7001TIP3    H142494   1.981   2.571   3.842 -2.4715 -0.0278 -0.6931
 7001TIP3    H242495   1.953   2.693   3.756  0.2907 -0.0954 -1.7936
 7002TIP3   OH242496   2.488   4.456   4.704  0.8028 -0.1972  0.0244
 7002TIP3    H142497   2.402   4.438   4.665  0.6127 -2.2320  1.2322
 7002TIP3    H242498   2.471   4.455   4.799  1.8370  1.3003  0.2559
 7003TIP3   OH242499   5.006   3.844  16.911  0.2346 -0.1260  0.5114
 7003TIP3    H142500   4.962   3.845  16.996 -0.0629  0.7566  0.3594
 7003TIP3    H242501   5.043   3.932  16.902  0.8906 -0.4411  0.0422
 7004TIP3   OH242502   3.576   2.464  13.800 -0.4951 -0.1705 -0.0809
 7004TIP3    H142503   3.596   2.425  13.715  1.7784 -1.3224  0.8911
 7004TIP3    H242504   3.496   2.515  13.785  0.2991  0.3809 -3.0862
 7005TIP3   OH242505   2.267   2.877   1.203 -0.4109 -0.0039  0.0440
 7005TIP3    H142506   2.300   2.791   1.179 -0.6899 -0.0166 -0.2980
 7005TIP3    H242507   2.318   2.902   1.280 -0.7958 -0.7626  0.5524
 7006TIP3   OH242508   3.087   5.664  16.715  0.1529  0.4252 -0.5787
 7006TIP3    H142509   3.134   5.740  16.749 -0.5606  0.1262  1.1943
 7006TIP3    H242510   3.076   5.682  16.622  0.1423  2.4129 -0.2382
 7007TIP3   OH242511   5.450   1.419  15.809  0.2680  0.8722  0.0757
 7007TIP3    H142512   5.441   1.361  15.733  2.3553  0.0181  0.4123
 7007TIP3    H242513   5.361   1.447  15.828 -0.7674 -1.7460 -0.4988
 7008TIP3   OH242514   3.261   0.282   2.055  0.7697  0.4048  0.4112
 7008TIP3    H142515   3.302   0.353   2.104 -1.0245  2.4864 -0.9056
 7008TIP3    H242516   3.168   0.289   2.075  0.1388  0.5286 -2.1730
 7009TIP3   OH242517   5.733   4.975   1.057 -0.0611 -0.2122 -0.1984
 7009TIP3    H142518   5.802   5.030   1.094  0.4691 -0.6171 -0.5666
 7009TIP3    H242519   5.696   5.027   0.986 -1.4875  0.8201  1.2178
 7010TIP3   OH242520   0.837   3.304  17.073 -0.4510 -0.2530  0.3821
 7010TIP3    H142521   0.876   3.222  17.040  0.3203 -0.3930  1.5702
 7010TIP3    H242522   0.903   3.371  17.054 -1.0679  0.1066 -0.5579
 7011TIP3   OH242523   1.515   1.314   2.075 -0.1362  0.1394 -0.2503
 7011TIP3    H142524   1.586   1.366   2.037 -0.7698  0.4593 -1.0322
 7011TIP3    H242525   1.484   1.366   2.148  0.0471  0.2733 -0.2667
 7012TIP3   OH242526   4.796   2.052   2.987 -0.4155  0.4017  0.2265
 7012TIP3    H142527   4.738   1.982   2.956  0.4679 -0.0697 -0.4112
 7012TIP3    H242528   4.878   2.008   3.010 -0.3154  1.0444  1.1902
 7013TIP3   OH242529   0.156   0.668   5.496 -0.5447  0.2052 -0.4545
 7013TIP3    H142530   0.180   0.689   5.406 -1.6884  0.0010 -0.8353
 7013TIP3    H242531   0.180   0.576   5.506  2.9368  1.0937  0.6780
 7014TIP3   OH242532   0.074   3.121   3.554  0.3749 -0.2504 -0.0269
 7014TIP3    H142533   0.102   3.105   3.644 -0.2557  1.0005  0.4053
 7014TIP3    H242534   0.036   3.037   3.526  0.1180 -0.5056  1.0417
 7015TIP3   OH242535   5.285   4.466   0.441 -0.3808 -0.0972 -0.4655
 7015TIP3    H142536   5.285   4.454   0.536 -0.3296 -2.9980 -0.7405
 7015TIP3    H242537   5.378   4.466   0.417 -0.4070  0.1360 -0.5648
 7016TIP3   OH242538   3.258   2.839  16.288  0.6278 -0.5491  0.1565
 7016TIP3    H142539   3.177   2.841  16.236  0.0365 -2.7063  0.8545
 7016TIP3    H242540   3.320   2.792  16.233  0.7946 -0.5982  0.3859
 7017TIP3   OH242541   4.943   4.675   2.735  0.1337  0.1823 -0.3313
 7017TIP3    H142542   5.013   4.697   2.797  0.5191 -1.9577  0.0763
 7017TIP3    H242543   4.862   4.692   2.784  0.4307 -0.8286  0.5570
 7018TIP3   OH242544   3.089   3.236  16.139 -0.0875 -0.1184  0.1485
 7018TIP3    H142545   3.174   3.244  16.181 -0.2360  1.3185  0.2259
 7018TIP3    H242546   3.039   3.311  16.171 -0.6972  0.2090 -1.4411
 7019TIP3   OH242547   1.691   3.320   2.033  1.0198 -0.1794 -0.0537
 7019TIP3    H142548   1.689   3.416   2.032 -0.4227 -0.1250  2.1268
 7019TIP3    H242549   1.625   3.294   1.969 -1.4239  0.4239  2.0634
 7020TIP3   OH242550   6.675   5.685   4.514  0.1190  0.1475  0.1483
 7020TIP3    H142551   6.658   5.778   4.527  0.3044  0.1717  0.2188
 7020TIP3    H242552   6.624   5.642   4.583  0.6429  0.2439  0.6067
 7021TIP3   OH242553   4.999   1.556  16.999 -0.6113  0.1298  0.0220
 7021TIP3    H142554   5.026   1.553  17.091  2.1839  1.8961 -0.6060
 7021TIP3    H242555   4.968   1.645  16.986  2.3826  1.0781 -1.4534
 7022TIP3   OH242556   3.094   6.445   6.440 -0.3111  0.0615  0.7614
 7022TIP3    H142557   3.093   6.440   6.535  1.7697 -0.8818  0.7790
 7022TIP3    H242558   3.092   6.353   6.411  2.7896  0.1251  0.0452
 7023TIP3   OH242559   3.135   6.536  16.055  0.4967 -0.1287 -0.5143
 7023TIP3    H142560   3.188   6.529  15.975  0.6213  1.5966 -0.6198
 7023TIP3    H242561   3.178   6.604  16.106 -0.1471 -0.5315  0.5985
 7024TIP3   OH242562   4.869   6.712  14.699 -0.4474 -0.3618  0.1831
 7024TIP3    H142563   4.892   6.805  14.698  1.0617 -0.7157 -0.3183
 7024TIP3    H242564   4.794   6.707  14.758 -0.7758  1.2177 -0.0529
 7025TIP3   OH242565   4.882   5.128  15.995 -0.2847  0.3663 -0.2025
 7025TIP3    H142566   4.957   5.069  15.995  0.3680  1.1831  0.4097
 7025TIP3    H242567   4.919   5.216  15.994 -1.1971  0.7899  0.6925
 7026TIP3   OH242568   6.317   0.718   2.437  0.0077  0.2769  0.2126
 7026TIP3    H142569   6.306   0.636   2.389 -0.9919 -0.5818  1.8233
 7026TIP3    H242570   6.271   0.783   2.384 -0.2946 -0.4555 -0.4501
 7027TIP3   OH242571   3.985   5.085   1.247  0.2288 -0.1726 -0.2520
 7027TIP3    H142572   3.915   5.078   1.312  0.8121  0.1485  0.4322
 7027TIP3    H242573   4.016   5.175   1.256 -1.0686  0.5684 -2.4713
 7028TIP3   OH242574   0.980   1.485   2.877  0.1456  0.2425  0.2283
 7028TIP3    H142575   0.911   1.508   2.938  0.1878 -0.9177  0.7263
 7028TIP3    H242576   0.982   1.390   2.877 -0.2632  0.1802 -2.0416
 7029TIP3   OH242577   2.943   2.231  12.122  0.3536 -0.6430  0.4548
 7029TIP3    H142578   2.997   2.152  12.120 -0.0140 -0.8937 -1.4262
 7029TIP3    H242579   2.884   2.222  12.047 -0.7594  0.7019  1.1089
 7030TIP3   OH242580   3.336   0.214  16.192  0.4157  0.3999  0.5976
 7030TIP3    H142581   3.408   0.276  16.205 -1.0600  2.1333  0.9264
 7030TIP3    H242582   3.290   0.213  16.276 -0.5134  0.0819  0.0904
 7031TIP3   OH242583   1.219   2.350   4.840 -0.4953 -0.0638  0.1971
 7031TIP3    H142584   1.281   2.343   4.912  0.6624  0.4600 -0.7104
 7031TIP3    H242585   1.160   2.421   4.866 -0.7609 -0.5927  1.0893
 7032TIP3   OH242586   1.480   0.334   0.707 -0.1886  0.5263 -0.2195
 7032TIP3    H142587   1.455   0.387   0.632  1.4068  2.6989  0.7002
 7032TIP3    H242588   1.417   0.261   0.707 -0.4216  0.6054 -3.4285
 7033TIP3   OH242589   1.294   0.981  12.796 -0.9183 -0.0625  0.7327
 7033TIP3    H142590   1.236   0.937  12.857 -0.5916  1.6495  2.3672
 7033TIP3    H242591   1.356   1.029  12.851  0.1239  0.6356 -0.9440
 7034TIP3   OH242592   1.451   1.571   4.100 -0.2939  0.1799 -0.1120
 7034TIP3    H142593   1.383   1.638   4.101 -0.8464 -0.3597 -0.8172
 7034TIP3    H242594   1.466   1.550   4.193  1.8818  3.2310  0.4087
 7035TIP3   OH242595   3.124   4.924   4.219 -0.2311  0.3432 -0.0615
 7035TIP3    H142596   3.106   5.004   4.170  0.4527  0.1985 -0.5598
 7035TIP3    H242597   3.135   4.856   4.153 -0.1920 -0.0368  0.3272
 7036TIP3   OH242598   1.149   4.133  10.646  0.4907  0.0378  0.3356
 7036TIP3    H142599   1.172   4.113  10.736 -0.3052 -1.3604  0.2624
 7036TIP3    H242600   1.053   4.142  10.647  0.5674  1.0145 -0.1855
 7037TIP3   OH242601   0.230   0.772   2.711 -0.4175 -0.1966 -0.3932
 7037TIP3    H142602   0.308   0.825   2.725 -1.0945  1.0747 -1.2483
 7037TIP3    H242603   0.159   0.835   2.702 -1.4791 -1.3089 -0.1309
 7038TIP3   OH242604   1.323   3.092  12.583  0.1298 -0.0179  0.1836
 7038TIP3    H142605   1.335   3.165  12.644  1.3732 -0.9261  1.0767
 7038TIP3    H242606   1.230   3.096  12.560 -0.6627 -0.2265  2.9488
 7039TIP3   OH242607   1.600   6.246   6.323 -0.2600  0.2776  0.5165
 7039TIP3    H142608   1.634   6.191   6.253 -2.7066 -0.8264  0.0991
 7039TIP3    H242609   1.632   6.334   6.302  0.7307 -0.3571 -0.8180
 7040TIP3   OH242610   1.861   6.520  17.037 -0.3200  0.1095 -0.1437
 7040TIP3    H142611   1.783   6.569  17.012 -0.1083  0.2265 -0.5864
 7040TIP3    H242612   1.837   6.428  17.022  0.8557  0.2417 -4.1289
 7041TIP3   OH242613   0.089   2.926   1.122  0.2680 -0.1331  0.3005
 7041TIP3    H142614   0.153   2.875   1.073 -0.9647 -0.2820 -1.2578
 7041TIP3    H242615   0.005   2.883   1.103 -0.4884  0.9745  1.0011
 7042TIP3   OH242616   1.480   4.755  16.977 -0.5475 -0.6457  0.1015
 7042TIP3    H142617   1.510   4.690  16.914 -0.0728 -0.9203  0.6070
 7042TIP3    H242618   1.505   4.839  16.938 -0.7106 -0.7870 -0.3114
 7043TIP3   OH242619   6.304   4.020  12.179 -0.5871  0.1509  0.0041
 7043TIP3    H142620   6.396   4.002  12.159 -0.3736  0.2599  0.8415
 7043TIP3    H242621   6.285   3.964  12.254 -1.1731  0.2196 -0.0902
 7044TIP3   OH242622   6.391   3.810  12.417 -0.6092  0.1911 -0.5207
 7044TIP3    H142623   6.463   3.785  12.359 -0.4900 -0.1661 -0.2230
 7044TIP3    H242624   6.326   3.741  12.404  0.1142 -0.8356  1.0123
 7045TIP3   OH242625   1.673   0.225   1.672 -0.2665 -0.2890 -0.1886
 7045TIP3    H142626   1.737   0.243   1.740 -0.2333  0.7464 -0.4849
 7045TIP3    H242627   1.724   0.199   1.596 -0.0600  1.9470 -0.8819
 7046TIP3   OH242628   1.064   2.924   4.702  0.6801  0.3709  0.1827
 7046TIP3    H142629   1.058   2.898   4.794  0.7962 -0.6753 -0.0941
 7046TIP3    H242630   1.101   2.848   4.657 -0.0297  0.6037 -0.8478
 7047TIP3   OH242631   2.945   4.977   5.659 -0.3586 -0.0098 -0.4817
 7047TIP3    H142632   2.978   5.003   5.573 -0.1277  0.0764 -0.3663
 7047TIP3    H242633   2.862   5.024   5.669 -1.3475 -1.4510 -1.4639
 7048TIP3   OH242634   5.792   2.833   4.278  0.1690 -0.0955  0.0177
 7048TIP3    H142635   5.866   2.774   4.262  0.5246  0.4111 -0.2345
 7048TIP3    H242636   5.752   2.799   4.358  1.2103  0.1446  0.6662
 7049TIP3   OH242637   2.599   0.474   4.085  0.0545  0.7217  0.0975
 7049TIP3    H142638   2.597   0.437   4.173 -0.8282  0.0003 -0.2147
 7049TIP3    H242639   2.639   0.406   4.031 -0.8692  0.5082 -0.3374
 7050TIP3   OH242640   3.858   6.235  11.899 -0.7127 -0.1087 -0.3976
 7050TIP3    H142641   3.855   6.255  11.993 -0.9502  1.1025 -0.6583
 7050TIP3    H242642   3.773   6.195  11.880 -1.0532  0.5581 -0.2949
 7051TIP3   OH242643   2.997   1.012  15.525  0.2340 -0.0307  0.0915
 7051TIP3    H142644   3.004   1.087  15.466  1.2793 -0.4200 -0.3031
 7051TIP3    H242645   2.968   1.049  15.608 -1.6240  0.4832 -0.7263
 7052TIP3   OH242646   5.268   5.771  15.673 -0.3560 -0.4947  0.5359
 7052TIP3    H142647   5.342   5.751  15.730 -0.0351 -2.0963 -0.3786
 7052TIP3    H242648   5.302   5.761  15.584 -1.9722 -2.7140  0.0724
 7053TIP3   OH242649   4.845   4.674  12.121  0.6521  0.5888  0.2676
 7053TIP3    H142650   4.895   4.632  12.051  0.9539 -0.8610  1.2994
 7053TIP3    H242651   4.764   4.702  12.080  1.4667  1.1984 -0.9970
 7054TIP3   OH242652   4.022   3.976  15.541  0.2958  0.9660  0.6749
 7054TIP3    H142653   3.954   3.997  15.605  0.2691  1.0639  0.6136
 7054TIP3    H242654   3.978   3.985  15.456  0.2284  0.4805  0.6552
 7055TIP3   OH242655   0.234   4.580  13.694  0.3056 -0.1295  0.4145
 7055TIP3    H142656   0.197   4.548  13.777  1.8980  0.3279  1.3438
 7055TIP3    H242657   0.162   4.572  13.631 -1.2816  0.4468  2.0575
 7056TIP3   OH242658   4.875   6.463   1.330  0.6844 -0.0201 -0.0731
 7056TIP3    H142659   4.888   6.511   1.248  0.3393  0.4623  0.1461
 7056TIP3    H242660   4.922   6.514   1.396 -0.1130  0.3122  0.2533
 7057TIP3   OH242661   2.259   2.319  11.957 -0.1390  0.3629  0.0393
 7057TIP3    H142662   2.213   2.386  12.007  0.5961 -0.3882  1.8299
 7057TIP3    H242663   2.215   2.237  11.981 -0.0634  0.0224 -0.9349
 7058TIP3   OH242664   5.763   2.744  15.051  0.5588 -0.3269 -0.0260
 7058TIP3    H142665   5.705   2.817  15.030  0.0735 -0.8297 -0.4364
 7058TIP3    H242666   5.851   2.778  15.034  0.2745 -0.2168 -1.3924
 7059TIP3   OH242667   6.011   4.229  10.710  0.5131  0.2545  0.1032
 7059TIP3    H142668   5.936   4.175  10.733  1.3269 -0.9544 -0.0207
 7059TIP3    H242669   6.061   4.238  10.791 -0.0704  1.5796  0.3352
 7060TIP3   OH242670   4.096   4.354  13.749 -0.0355 -0.1033 -0.2796
 7060TIP3    H142671   4.009   4.328  13.781 -0.4242  0.5847 -0.7453
 7060TIP3    H242672   4.134   4.405  13.820 -0.8108  1.2392 -0.7803
 7061TIP3   OH242673   1.906   6.737  12.687  0.0513  0.3795  0.0821
 7061TIP3    H142674   1.998   6.719  12.666 -0.1066 -1.3590  0.6974
 7061TIP3    H242675   1.881   6.807  12.626  0.8891 -1.2872 -2.3380
 7062TIP3   OH242676   2.380   3.639  15.162  0.3554 -0.6174  0.5620
 7062TIP3    H142677   2.374   3.558  15.112  1.1714 -1.1772  1.3349
 7062TIP3    H242678   2.345   3.706  15.104 -3.0299 -1.8953  0.8850
 7063TIP3   OH242679   0.936   6.666   5.214 -0.1905 -0.0234  0.1699
 7063TIP3    H142680   0.877   6.591   5.214 -0.0319 -0.1816 -1.3194
 7063TIP3    H242681   0.878   6.742   5.224 -0.3765 -0.3007  1.3884
 7064TIP3   OH242682   1.363   4.221  16.360  0.4847 -0.1491  0.0310
 7064TIP3    H142683   1.341   4.300  16.310  0.0724  0.0832  0.5624
 7064TIP3    H242684   1.289   4.162  16.346  0.2102  0.0456  0.6171
 7065TIP3   OH242685   3.104   0.978   1.914 -0.2326 -0.4740 -0.0708
 7065TIP3    H142686   3.199   0.978   1.920 -0.2574 -1.3974  0.6212
 7065TIP3    H242687   3.074   1.006   2.001 -0.5906 -0.0298 -0.3346
 7066TIP3   OH242688   1.836   3.712   4.414 -0.1541 -0.9190  0.4630
 7066TIP3    H142689   1.820   3.740   4.324  1.6850 -0.8336  0.1228
 7066TIP3    H242690   1.832   3.793   4.465  0.0850 -0.7821  0.2632
 7067TIP3   OH242691   6.448   1.441  16.597  0.3068 -0.1095  0.4127
 7067TIP3    H142692   6.534   1.474  16.626  0.0077  2.2988 -1.1536
 7067TIP3    H242693   6.469   1.376  16.531  0.9848  0.8504 -0.3570
 7068TIP3   OH242694   5.595   4.379   1.375  0.1491  0.7434 -1.3458
 7068TIP3    H142695   5.594   4.443   1.445  1.1628  0.5119 -1.0904
 7068TIP3    H242696   5.507   4.379   1.339 -0.4752  0.6148  0.1502
 7069TIP3   OH242697   0.100   4.394   3.960 -0.1536 -0.2754 -0.5750
 7069TIP3    H142698   0.122   4.303   3.942 -0.7905 -0.4927 -0.2832
 7069TIP3    H242699   0.028   4.390   4.023  2.0334  0.4165  2.2291
 7070TIP3   OH242700   6.781   1.331  15.081 -0.1187 -0.1084  0.1145
 7070TIP3    H142701   6.849   1.286  15.132 -0.6905  0.4700  1.4172
 7070TIP3    H242702   6.758   1.407  15.134 -2.1610 -0.5687 -0.0560
 7071TIP3   OH242703   3.067   6.189  10.785 -0.5757  0.7382  0.3157
 7071TIP3    H142704   3.012   6.255  10.744  2.0938  1.9707 -1.6115
 7071TIP3    H242705   3.078   6.122  10.717  1.0004  1.0100  0.2654
 7072TIP3   OH242706   1.290   3.474   1.561  0.2319  0.0150 -0.0613
 7072TIP3    H142707   1.234   3.473   1.483 -0.2948 -0.8916  0.3051
 7072TIP3    H242708   1.348   3.549   1.548 -1.4960  1.4152 -0.1692
 7073TIP3   OH242709   3.241   1.712   3.566 -0.1282 -0.3595  0.2947
 7073TIP3    H142710   3.196   1.628   3.568  2.6198 -1.9306  1.4470
 7073TIP3    H242711   3.221   1.752   3.651 -2.1402  0.6696 -0.5796
 7074TIP3   OH242712   5.511   5.155   2.753  0.3359 -0.0140  0.3955
 7074TIP3    H142713   5.576   5.141   2.822  1.6997  1.4454 -0.5088
 7074TIP3    H242714   5.438   5.098   2.776  1.5146 -0.9410  2.0216
 7075TIP3   OH242715   0.055   5.110   3.035  0.9583  0.8471 -0.6332
 7075TIP3    H142716   0.066   5.155   3.119 -0.0519  0.6817 -0.4000
 7075TIP3    H242717  -0.035   5.128   3.010  0.4284 -1.2485 -0.4126
 7076TIP3   OH242718   0.524   5.493   1.429  0.5474 -0.3482 -0.1570
 7076TIP3    H142719   0.460   5.552   1.390  0.7523  0.5164  0.7578
 7076TIP3    H242720   0.479   5.454   1.504  1.5031  1.5001  1.4996
 7077TIP3   OH242721   0.266   3.724   0.547 -0.4279  0.2783  0.5008
 7077TIP3    H142722   0.361   3.712   0.549 -0.0996  2.2390 -0.6776
 7077TIP3    H242723   0.251   3.780   0.471 -2.4873  0.4341  0.9830
 7078TIP3   OH242724   4.076   3.757  15.068 -0.3944 -0.1201 -0.1051
 7078TIP3    H142725   4.102   3.746  15.159 -1.2933  0.7896  0.2764
 7078TIP3    H242726   3.982   3.773  15.071 -0.6341 -1.1473 -1.2861
 7079TIP3   OH242727   3.802   4.648   2.555  0.0841 -0.6924  0.2016
 7079TIP3    H142728   3.887   4.691   2.549 -0.8874  1.4872  0.8820
 7079TIP3    H242729   3.799   4.589   2.480  1.0492  1.3597 -1.5388
 7080TIP3   OH242730   0.838   5.241  13.285 -0.0198 -0.3534  0.4964
 7080TIP3    H142731   0.902   5.243  13.356  0.1271  0.3846  0.3488
 7080TIP3    H242732   0.887   5.272  13.208 -0.3736 -0.4324  0.2336
 7081TIP3   OH242733   5.179   0.676  10.988 -0.0646  0.1417 -0.5606
 7081TIP3    H142734   5.168   0.739  10.917 -2.6624 -1.1828 -1.4591
 7081TIP3    H242735   5.249   0.617  10.958  0.3128  0.8180 -1.0313
 7082TIP3   OH242736   5.086   6.036  13.328  0.5239  0.0267  0.2522
 7082TIP3    H142737   5.112   6.080  13.248  0.9033  0.1425  0.4354
 7082TIP3    H242738   4.991   6.050  13.334  0.5461  0.2891 -0.0054
 7083TIP3   OH242739   1.784   1.370  13.396  0.2463  0.3046  0.1359
 7083TIP3    H142740   1.867   1.341  13.435 -0.4034  0.5654  1.8101
 7083TIP3    H242741   1.766   1.453  13.440 -0.6714  0.4786 -0.5521
 7084TIP3   OH242742   5.969   3.398  16.195  0.2970 -0.0759  0.3202
 7084TIP3    H142743   5.913   3.385  16.272  0.7154  0.4622  0.7316
 7084TIP3    H242744   5.942   3.483  16.160  1.3685  0.5606  0.9845
 7085TIP3   OH242745   0.048   3.065   0.072  0.1289 -0.0771 -0.1354
 7085TIP3    H142746  -0.008   3.024   0.006  0.3683  1.2130 -1.1810
 7085TIP3    H242747   0.053   3.157   0.045  1.2193  0.2191  1.0044
 7086TIP3   OH242748   3.760   3.273  15.992 -0.0548 -0.0436  0.6512
 7086TIP3    H142749   3.789   3.184  16.013 -0.6954 -0.1423  1.1524
 7086TIP3    H242750   3.783   3.324  16.070  2.4805  0.7745 -0.5244
 7087TIP3   OH242751   4.359   2.355   4.965 -0.5059 -0.1820 -0.4423
 7087TIP3    H142752   4.395   2.324   4.882  0.4035  0.3295 -0.2529
 7087TIP3    H242753   4.385   2.447   4.970  2.0451 -0.8976  1.7437
 7088TIP3   OH242754   6.370   4.907  15.625  0.0387  0.3096  0.2083
 7088TIP3    H142755   6.385   4.830  15.681  1.6547  0.5798  0.2004
 7088TIP3    H242756   6.346   4.870  15.540 -0.2558 -0.1614  0.4898
 7089TIP3   OH242757   4.488   5.352  16.457  0.2479 -0.7871 -0.0798
 7089TIP3    H142758   4.505   5.408  16.381 -0.1363 -2.3107 -1.3437
 7089TIP3    H242759   4.572   5.347  16.502  0.1306  1.3294  0.4685
 7090TIP3   OH242760   0.160   5.163  13.311  0.6297 -0.6056 -0.2319
 7090TIP3    H142761   0.099   5.100  13.273  0.1836 -1.0499  1.1401
 7090TIP3    H242762   0.245   5.120  13.304  0.3471 -1.3439  0.5729
 7091TIP3   OH242763   6.345   3.212  13.119  0.4784 -0.0425 -0.1458
 7091TIP3    H142764   6.340   3.220  13.214  1.8057  0.7988 -0.1346
 7091TIP3    H242765   6.437   3.196  13.100  0.3738  0.6395 -1.3429
 7092TIP3   OH242766   1.611   1.357   3.785  0.9339 -0.3263 -0.3712
 7092TIP3    H142767   1.542   1.417   3.758  1.1680  1.3341  2.3265
 7092TIP3    H242768   1.564   1.281   3.820  0.5911 -0.6991 -1.5842
 7093TIP3   OH242769   4.092   5.414   1.052 -0.2421  0.7807  0.5053
 7093TIP3    H142770   4.114   5.418   0.959 -0.6979 -0.9716  0.2866
 7093TIP3    H242771   4.144   5.341   1.087 -1.7778 -0.1111  1.0795
 7094TIP3   OH242772   0.300   4.033   6.440 -0.5167 -0.0535  0.4230
 7094TIP3    H142773   0.349   4.106   6.477 -1.0609 -0.5499  2.1942
 7094TIP3    H242774   0.249   4.072   6.369 -0.1499  1.1184  0.7790
 7095TIP3   OH242775   4.032   0.763   0.062 -0.2885  0.6722  0.2470
 7095TIP3    H142776   3.938   0.769   0.081 -0.4102  0.0125 -0.1284
 7095TIP3    H242777   4.073   0.764   0.149 -0.5651  2.0444  0.3796
 7096TIP3   OH242778   3.594   0.811   4.921 -0.5221 -0.3983 -0.5209
 7096TIP3    H142779   3.666   0.783   4.864 -0.8146 -0.1042 -1.0441
 7096TIP3    H242780   3.635   0.828   5.005  0.3589  1.6347 -1.3154
 7097TIP3   OH242781   2.786   1.504   1.577 -0.0751 -0.4497 -0.2120
 7097TIP3    H142782   2.699   1.545   1.581  0.0855 -0.0100 -1.0047
 7097TIP3    H242783   2.834   1.556   1.512  1.9823  1.5510  2.6392
 7098TIP3   OH242784   2.114   5.661  10.899  0.2598 -0.3629 -0.1913
 7098TIP3    H142785   2.033   5.629  10.860  0.6268 -0.6520 -0.7442
 7098TIP3    H242786   2.105   5.643  10.992 -0.6997  0.4722 -0.1013
 7099TIP3   OH242787   3.902   6.272   0.115  0.0794  0.4873  0.0050
 7099TIP3    H142788   3.966   6.213   0.156  1.4097  1.6972 -0.2741
 7099TIP3    H242789   3.885   6.232   0.029  2.1550  1.2709 -0.8217
 7100TIP3   OH242790   2.058   4.342   0.777  0.1573  0.3892  0.6470
 7100TIP3    H142791   2.085   4.269   0.832  0.9304  0.8237  0.8656
 7100TIP3    H242792   2.101   4.418   0.815 -2.1790  1.3249  1.6287
 7101TIP3   OH242793   1.909   4.149   1.681  0.5947 -0.0208  0.5524
 7101TIP3    H142794   1.975   4.088   1.649  0.3338  0.7336 -1.5821
 7101TIP3    H242795   1.836   4.140   1.619  0.0746  1.5997  0.8788
 7102TIP3   OH242796   4.501   3.364  14.643  0.2493  0.1413  0.0758
 7102TIP3    H142797   4.407   3.382  14.655  0.4842  1.4926  0.1330
 7102TIP3    H242798   4.511   3.272  14.666 -1.3329 -0.4855 -1.4747
 7103TIP3   OH242799   5.054   2.529   4.318 -0.2007  0.1561 -0.8575
 7103TIP3    H142800   5.069   2.436   4.300 -1.6445  0.0716 -1.8537
 7103TIP3    H242801   5.133   2.573   4.285  0.3129 -0.6694 -0.7556
 7104TIP3   OH242802   1.857   6.175   4.687  0.4433  0.3330 -0.2068
 7104TIP3    H142803   1.797   6.246   4.710 -0.9961 -0.8343 -0.2592
 7104TIP3    H242804   1.806   6.117   4.631  1.6746 -0.6253 -0.3878
 7105TIP3   OH242805   5.324   5.732   1.943  0.1565  0.3460 -0.6926
 7105TIP3    H142806   5.334   5.775   1.858 -1.1682  0.4258 -0.8217
 7105TIP3    H242807   5.325   5.639   1.924  5.6635 -0.0487 -0.1701
 7106TIP3   OH242808   2.567   2.021  14.011 -0.4697 -0.1611  0.7801
 7106TIP3    H142809   2.573   1.933  13.974 -1.7553 -0.2482  0.7470
 7106TIP3    H242810   2.622   2.074  13.954  2.9622 -1.4390  2.6009
 7107TIP3   OH242811   4.343   4.649  15.665  0.0902 -0.4489 -0.4528
 7107TIP3    H142812   4.410   4.651  15.596  0.5422 -0.0488 -0.0119
 7107TIP3    H242813   4.363   4.570  15.715  0.3101 -0.2725 -0.2554
 7108TIP3   OH242814   0.862   1.614  12.750  0.1390 -0.1206 -0.2381
 7108TIP3    H142815   0.907   1.595  12.668  2.8359  1.8440  0.6270
 7108TIP3    H242816   0.851   1.709  12.750 -2.8429 -0.3537  0.3156
 7109TIP3   OH242817   0.555   4.588   1.010 -0.0071  0.0115 -0.6027
 7109TIP3    H142818   0.579   4.680   1.022 -0.1344  0.2037 -1.6539
 7109TIP3    H242819   0.630   4.539   1.044 -0.1682  0.4891  0.4542
 7110TIP3   OH242820   1.210   1.592   4.371 -0.4615  0.4450 -0.6630
 7110TIP3    H142821   1.199   1.562   4.461 -0.0389  1.4594 -0.2532
 7110TIP3    H242822   1.171   1.523   4.317  0.6477 -0.9060  0.2089
 7111TIP3   OH242823   3.027   5.883   5.323 -0.3156 -0.3919 -0.2139
 7111TIP3    H142824   3.063   5.926   5.401 -1.3959  1.7069 -0.7978
 7111TIP3    H242825   3.096   5.889   5.258 -0.8039  1.6490 -0.6449
 7112TIP3   OH242826   5.414   1.907  16.980  0.2231  0.3739 -0.6847
 7112TIP3    H142827   5.506   1.883  16.975 -0.2898 -2.1160  0.4512
 7112TIP3    H242828   5.389   1.890  17.071 -1.1408  2.0448 -0.6783
 7113TIP3   OH242829   4.656   0.765  11.866  0.0638  0.4893 -0.0300
 7113TIP3    H142830   4.681   0.742  11.956  0.6477 -1.6200 -0.6747
 7113TIP3    H242831   4.598   0.841  11.876 -1.5991 -0.9614  2.2928
 7114TIP3   OH242832   1.321   2.669  16.355  0.0493  0.2362 -0.3308
 7114TIP3    H142833   1.338   2.757  16.324 -0.0660 -0.1629 -1.5608
 7114TIP3    H242834   1.402   2.642  16.397  1.0329 -0.0439 -2.3117
 7115TIP3   OH242835   0.885   1.299  15.049 -0.1926 -0.2037  0.7035
 7115TIP3    H142836   0.978   1.278  15.053 -0.1022  0.1545  0.5082
 7115TIP3    H242837   0.882   1.394  15.038 -0.6109  0.0368  2.6046
 7116TIP3   OH242838   6.265   2.543   0.886 -0.5288  0.7479 -0.2629
 7116TIP3    H142839   6.343   2.500   0.921 -0.6316  0.5761 -0.2406
 7116TIP3    H242840   6.262   2.514   0.795  0.0795  1.6803 -0.5917
 7117TIP3   OH242841   0.900   0.949   1.047 -0.4138  0.1609  0.5587
 7117TIP3    H142842   0.851   0.895   0.985  0.2305 -0.1919  0.3469
 7117TIP3    H242843   0.938   1.019   0.993  2.6026 -1.7622 -0.0620
 7118TIP3   OH242844   2.197   3.144   0.003  0.0650  0.2628  0.3829
 7118TIP3    H142845   2.149   3.210  -0.047 -0.0607  0.7825  1.1734
 7118TIP3    H242846   2.138   3.119   0.073 -0.1573 -1.2004 -0.2751
 7119TIP3   OH242847   3.081   6.705   3.093 -0.0667  0.4760  0.0352
 7119TIP3    H142848   3.037   6.763   3.155 -1.3945  0.3030 -0.7203
 7119TIP3    H242849   3.010   6.655   3.051  0.9448 -0.8116 -0.2191
 7120TIP3   OH242850   4.137   2.404   0.473  0.6393  0.3280 -0.1756
 7120TIP3    H142851   4.128   2.311   0.493 -0.6592  0.2616 -0.9808
 7120TIP3    H242852   4.088   2.448   0.543 -1.0322  0.2487 -1.2352
 7121TIP3   OH242853   4.051   0.660  10.478  0.6068 -0.0365 -0.4801
 7121TIP3    H142854   4.038   0.572  10.514 -1.5715  0.7605  0.9112
 7121TIP3    H242855   4.097   0.708  10.547 -0.3838  0.5381 -0.1971
 7122TIP3   OH242856   3.091   1.070  16.765 -0.0440  0.0062  0.0431
 7122TIP3    H142857   3.044   0.991  16.789 -0.2024  0.2532  0.5570
 7122TIP3    H242858   3.084   1.127  16.841 -0.9095  0.9766 -0.7369
 7123TIP3   OH242859   4.845   1.492  14.515  0.2659  0.7263 -0.4915
 7123TIP3    H142860   4.890   1.420  14.559 -0.9838  0.0727 -0.2504
 7123TIP3    H242861   4.873   1.485  14.423 -0.2159 -0.3752 -0.5690
 7124TIP3   OH242862   0.796   0.886  13.199 -0.2371 -0.5547  0.0440
 7124TIP3    H142863   0.888   0.861  13.196 -0.4506 -1.3086 -0.6300
 7124TIP3    H242864   0.756   0.822  13.257 -0.4437 -0.5782 -0.1260
 7125TIP3   OH242865   5.408   2.621  11.138  0.2030 -0.1257  0.6300
 7125TIP3    H142866   5.431   2.672  11.060  1.6143  1.0049  1.7145
 7125TIP3    H242867   5.329   2.573  11.114  0.8182 -0.1099 -1.6115
 7126TIP3   OH242868   0.454   4.984   4.261 -0.0485  0.1093 -0.2374
 7126TIP3    H142869   0.387   4.971   4.194  1.2817 -0.1474 -1.5596
 7126TIP3    H242870   0.505   4.903   4.259  0.8128  0.6372  0.1548
 7127TIP3   OH242871   1.055   2.567  15.412  0.2812  0.2299  0.0209
 7127TIP3    H142872   1.008   2.650  15.405  1.2455  0.6796 -2.0464
 7127TIP3    H242873   1.140   2.591  15.448 -0.0093 -0.1307  0.9678
 7128TIP3   OH242874   5.178   3.408  16.633  0.4289  0.7286  0.6186
 7128TIP3    H142875   5.272   3.419  16.648  0.2445  3.5102  0.2848
 7128TIP3    H242876   5.139   3.488  16.667 -1.7675 -0.0606  0.1088
 7129TIP3   OH242877   3.800   5.646  11.452  0.2799 -0.2819 -0.0008
 7129TIP3    H142878   3.777   5.581  11.519  1.9028  1.7340  2.7679
 7129TIP3    H242879   3.895   5.641  11.445  0.1049 -0.9365 -2.8505
 7130TIP3   OH242880   5.775   3.523   2.544 -0.3848  0.2706  0.2411
 7130TIP3    H142881   5.862   3.501   2.511 -0.5793  0.1822 -0.2219
 7130TIP3    H242882   5.785   3.525   2.639 -0.0465 -0.4920  0.2317
 7131TIP3   OH242883   3.921   5.942   5.818 -0.5008  0.5132  0.1389
 7131TIP3    H142884   3.914   5.846   5.813  0.0356  0.4796 -0.0301
 7131TIP3    H242885   4.007   5.961   5.782 -0.6775  1.0789  0.0144
 7132TIP3   OH242886   5.322   3.427   3.866 -0.2495  0.1286 -0.0531
 7132TIP3    H142887   5.401   3.403   3.914 -1.8012 -1.2666  1.9434
 7132TIP3    H242888   5.335   3.519   3.843  1.9809 -0.0966  0.0938
 7133TIP3   OH242889   0.064   1.770   0.099 -0.1144 -0.3069 -0.2460
 7133TIP3    H142890   0.112   1.758   0.181 -0.8144 -1.5999 -0.0032
 7133TIP3    H242891   0.129   1.755   0.030  0.5067  0.9133  0.0462
 7134TIP3   OH242892   2.696   5.203   1.066 -0.0269  0.7263 -0.0337
 7134TIP3    H142893   2.622   5.207   1.126 -0.0318  0.0529  0.0177
 7134TIP3    H242894   2.713   5.294   1.042 -0.5929  0.9226  0.2898
 7135TIP3   OH242895   1.766   5.355  11.021 -0.3305  0.5245  0.2032
 7135TIP3    H142896   1.756   5.313  11.106 -0.4148  0.8128  0.3361
 7135TIP3    H242897   1.735   5.289  10.958  1.4717 -0.4059  0.2314
 7136TIP3   OH242898   5.577   2.777  11.258  0.2871 -0.1537  0.4386
 7136TIP3    H142899   5.537   2.856  11.222  0.9754  0.6967  1.4611
 7136TIP3    H242900   5.510   2.710  11.249 -0.8204  0.8724  0.7400
 7137TIP3   OH242901   3.346   4.558   2.509 -0.0538 -0.1701  0.2752
 7137TIP3    H142902   3.282   4.578   2.440  0.2077  0.9777  0.3502
 7137TIP3    H242903   3.416   4.513   2.463 -1.3172 -2.3396  0.3485
 7138TIP3   OH242904   1.374   6.663   2.229 -0.3160 -0.4746  0.1092
 7138TIP3    H142905   1.307   6.632   2.290 -0.8253 -0.2437 -0.3283
 7138TIP3    H242906   1.325   6.708   2.160  0.1262 -1.8742 -1.1962
 7139TIP3   OH242907   3.379   3.553  13.288 -0.4280  0.3721  0.3638
 7139TIP3    H142908   3.423   3.483  13.337 -0.8280 -1.8705 -2.2368
 7139TIP3    H242909   3.449   3.594  13.236 -0.4420  0.9462  0.7875
 7140TIP3   OH242910   1.037   4.483   3.733 -0.0620  0.3283 -0.4813
 7140TIP3    H142911   1.023   4.578   3.725 -0.6234  0.4472  1.4302
 7140TIP3    H242912   1.089   4.473   3.812  1.6343 -0.8776 -1.6755
 7141TIP3   OH242913   2.281   6.754  15.801 -0.0132  0.1369 -0.4623
 7141TIP3    H142914   2.188   6.758  15.823 -0.2413 -0.7927 -1.1940
 7141TIP3    H242915   2.284   6.756  15.706  0.6662 -0.4397 -0.4684
 7142TIP3   OH242916   1.535   3.383   4.641  0.3706 -0.0825 -0.4568
 7142TIP3    H142917   1.511   3.437   4.716  0.6658 -1.0572  0.3488
 7142TIP3    H242918   1.500   3.296   4.661  0.3623 -0.3344 -1.4916
 7143TIP3   OH242919   0.599   5.009  12.891 -0.1282 -0.2533  0.5334
 7143TIP3    H142920   0.585   5.088  12.840 -0.7762 -0.3906  0.4913
 7143TIP3    H242921   0.679   5.026  12.940 -1.0988  1.0416  1.7169
 7144TIP3   OH242922   0.032   2.379   3.509 -0.1283  0.1528  0.1206
 7144TIP3    H142923  -0.020   2.394   3.431 -1.0562  1.4396  0.9415
 7144TIP3    H242924  -0.018   2.315   3.560 -0.4086  0.6107  0.4330
 7145TIP3   OH242925   0.135   4.299  11.598 -0.5793 -0.3473  0.0048
 7145TIP3    H142926   0.219   4.265  11.566 -1.7486 -1.6598 -1.9316
 7145TIP3    H242927   0.158   4.365  11.662  1.9116 -2.9002  1.9999
 7146TIP3   OH242928   2.970   4.735  11.197 -0.2327  0.8107  0.1439
 7146TIP3    H142929   2.970   4.757  11.104 -0.0946  1.9012  0.3872
 7146TIP3    H242930   2.891   4.682  11.209  0.3409 -0.2915 -0.7889
 7147TIP3   OH242931   0.765   0.745  13.664 -0.3605  0.0116  0.4053
 7147TIP3    H142932   0.731   0.723  13.577 -0.7096  0.5339  0.4026
 7147TIP3    H242933   0.847   0.791  13.646 -0.4551  0.1593  0.3492
 7148TIP3   OH242934   0.069   4.923  11.103 -0.6138 -0.1541 -0.0025
 7148TIP3    H142935   0.020   4.875  11.038 -0.0740  0.7088 -1.0776
 7148TIP3    H242936   0.021   4.909  11.185 -2.1666 -0.0190 -0.8563
 7149TIP3   OH242937   5.922   4.004   2.006 -0.0103  0.1190  0.2085
 7149TIP3    H142938   5.967   4.026   2.088  0.3898 -2.1572  0.6513
 7149TIP3    H242939   5.983   4.031   1.938  1.4920 -1.6605  0.7756
 7150TIP3   OH242940   2.297   1.697   5.380  0.3229 -0.0866  0.0356
 7150TIP3    H142941   2.372   1.686   5.321 -0.3768 -2.0785 -0.5602
 7150TIP3    H242942   2.296   1.791   5.399  0.1985  0.8548 -3.7199
 7151TIP3   OH242943   6.009   1.984   5.276  0.0073  0.2027  0.2092
 7151TIP3    H142944   5.920   1.972   5.243  0.0672 -0.8540  0.4135
 7151TIP3    H242945   6.059   2.014   5.200  0.2370 -2.6206 -0.8390
 7152TIP3   OH242946   0.267   0.522  16.157  0.1773 -0.2341 -0.1939
 7152TIP3    H142947   0.248   0.582  16.229 -1.2540  0.3636 -1.0220
 7152TIP3    H242948   0.300   0.578  16.087 -1.5557 -0.2972 -1.1177
 7153TIP3   OH242949   0.060   3.243   0.633 -0.9456  0.3229 -0.2208
 7153TIP3    H142950   0.052   3.337   0.618  1.4004  0.5094 -0.6475
 7153TIP3    H242951   0.005   3.226   0.710  0.5104  2.5126  1.4284
 7154TIP3   OH242952   3.110   2.660   1.411  0.2144 -0.4290 -0.1277
 7154TIP3    H142953   3.176   2.704   1.465  1.2490  0.8416 -2.2870
 7154TIP3    H242954   3.105   2.713   1.331 -1.7569 -1.8167 -1.0167
 7155TIP3   OH242955   2.763   4.562  14.871  0.0574  0.4435  0.1380
 7155TIP3    H142956   2.792   4.485  14.822  1.8499  2.0255 -1.4723
 7155TIP3    H242957   2.668   4.562  14.862  0.1142 -1.0050 -0.7186
 7156TIP3   OH242958   3.709   5.183   5.446  0.3670  0.2184  0.1934
 7156TIP3    H142959   3.792   5.166   5.490 -0.5082  1.2057  2.3164
 7156TIP3    H242960   3.713   5.128   5.367  3.0796  0.3779  0.1115
 7157TIP3   OH242961   3.906   0.482   2.855  0.1370  0.2697  0.0606
 7157TIP3    H142962   3.829   0.525   2.893  0.7610  1.4445  0.0698
 7157TIP3    H242963   3.980   0.536   2.884  0.7559  0.4756 -1.7650
 7158TIP3   OH242964   6.001   3.905  17.030  0.1511 -0.1359 -0.1641
 7158TIP3    H142965   5.906   3.898  17.038  0.0863 -0.6846 -1.2760
 7158TIP3    H242966   6.016   3.982  16.976  0.4312  1.0668  1.5513
 7159TIP3   OH242967   2.980   0.810   1.594 -0.8260  0.3328 -0.2293
 7159TIP3    H142968   2.960   0.843   1.681 -0.7950 -0.9343  0.2713
 7159TIP3    H242969   2.900   0.766   1.566 -0.1378 -1.1503  0.0708
 7160TIP3   OH242970   5.679   0.436   2.614  0.0826  0.1291 -0.7264
 7160TIP3    H142971   5.740   0.465   2.682 -1.5246  2.4376 -0.1434
 7160TIP3    H242972   5.625   0.369   2.655 -0.3016  0.8818  0.0283
 7161TIP3   OH242973   6.404   4.317  11.217 -0.3116 -0.0684  0.7712
 7161TIP3    H142974   6.455   4.398  11.221  1.6898 -0.9489 -2.8901
 7161TIP3    H242975   6.313   4.346  11.225  0.3801  2.4668  0.3405
 7162TIP3   OH242976   4.513   1.359   0.050 -0.6864  0.3119  0.2449
 7162TIP3    H142977   4.435   1.408   0.026 -1.8264 -0.4866  2.0594
 7162TIP3    H242978   4.498   1.271   0.014 -0.1691  0.4092 -0.2194
 7163TIP3   OH242979   6.396   0.344   0.547  0.0175 -0.5301 -0.6066
 7163TIP3    H142980   6.461   0.366   0.480  0.1095 -3.4498 -1.5917
 7163TIP3    H242981   6.324   0.406   0.531  1.8187  1.7482 -0.4755
 7164TIP3   OH242982   1.855   1.118  13.938  0.0768 -0.5241  0.3463
 7164TIP3    H142983   1.807   1.086  13.862  1.1577  0.2566 -0.7047
 7164TIP3    H242984   1.929   1.167  13.901 -0.4647  1.5986  1.8672
 7165TIP3   OH242985   6.199   4.979   5.196 -0.0886 -0.1523  0.1251
 7165TIP3    H142986   6.236   4.892   5.182 -0.2622 -0.3480  0.8548
 7165TIP3    H242987   6.211   5.024   5.112 -1.0124 -1.2443 -0.6207
 7166TIP3   OH242988   3.936   3.438   6.185  0.3293 -0.1505 -0.4388
 7166TIP3    H142989   3.849   3.418   6.217 -0.2091  0.1686 -1.6523
 7166TIP3    H242990   3.928   3.525   6.145  1.2410 -0.0377 -0.4120
 7167TIP3   OH242991   3.567   6.560  12.134  0.2964  0.2441  0.5609
 7167TIP3    H142992   3.490   6.507  12.116  1.3779 -1.1099 -0.3700
 7167TIP3    H242993   3.614   6.564  12.050  1.1939  1.0868  1.0745
 7168TIP3   OH242994   3.963   2.481  16.370  0.3718 -0.2649 -0.4980
 7168TIP3    H142995   3.954   2.456  16.462  0.0769  0.8779 -0.1955
 7168TIP3    H242996   3.873   2.498  16.341  0.4966 -0.2533 -0.8835
 7169TIP3   OH242997   5.533   6.383   4.644  0.1297  0.5096  0.0445
 7169TIP3    H142998   5.491   6.414   4.564 -2.2522 -0.9155  0.6570
 7169TIP3    H242999   5.477   6.416   4.715  0.4064 -0.8697  0.9379
 7170TIP3   OH243000   4.734   2.917   0.071 -0.3594 -0.2799  0.2608
 7170TIP3    H143001   4.720   2.984   0.004 -1.8158  0.8781  1.6321
 7170TIP3    H243002   4.773   2.964   0.144  3.4391 -1.9531 -0.4763
 7171TIP3   OH243003   4.509   0.458   0.925  0.0807 -0.1438  0.0620
 7171TIP3    H143004   4.425   0.433   0.886 -0.1862  0.2244  0.3904
 7171TIP3    H243005   4.572   0.399   0.886 -0.6430 -1.9585  1.4877
 7172TIP3   OH243006   4.851   1.225   4.594 -0.2420 -0.1558  0.4576
 7172TIP3    H143007   4.781   1.223   4.529  0.3986 -2.3427 -0.2659
 7172TIP3    H243008   4.923   1.270   4.551  0.1232 -1.4531 -0.3390
 7173TIP3   OH243009   2.566   0.556  14.355 -0.3119 -0.1783 -0.3177
 7173TIP3    H143010   2.651   0.578  14.395  0.2068 -1.8045 -0.4388
 7173TIP3    H243011   2.584   0.554  14.261 -0.0074 -2.1618 -0.2693
 7174TIP3   OH243012   6.419   1.610  11.809 -0.3979  0.1927  0.3217
 7174TIP3    H143013   6.362   1.677  11.772  0.1515  0.0163 -0.8866
 7174TIP3    H243014   6.363   1.563  11.871 -0.4450  2.5804  2.2611
 7175TIP3   OH243015   0.741   5.719  16.277 -0.1397  0.1753  0.1181
 7175TIP3    H143016   0.696   5.638  16.253 -1.0595 -0.0206  2.2549
 7175TIP3    H243017   0.822   5.690  16.320 -0.6167  0.3572  1.1613
 7176TIP3   OH243018   0.771   4.042   3.693  0.4199  0.1600 -0.2659
 7176TIP3    H143019   0.775   4.136   3.678 -1.0293  0.3060  0.1745
 7176TIP3    H243020   0.725   4.007   3.616 -0.1310 -0.0324  0.1466
 7177TIP3   OH243021   3.606   6.430   2.097 -0.3630 -0.1960 -0.3256
 7177TIP3    H143022   3.527   6.448   2.147 -1.4349 -1.2894 -1.5611
 7177TIP3    H243023   3.661   6.508   2.111 -0.7697 -0.2513  2.1330
 7178TIP3   OH243024   2.030   1.806  16.737  0.2875 -0.2849  0.1132
 7178TIP3    H143025   1.946   1.826  16.780  0.3559 -1.1858  0.6797
 7178TIP3    H243026   2.075   1.890  16.734 -0.2559  0.0375  0.6372
 7179TIP3   OH243027   4.715   0.541  13.237 -0.5623 -0.1655  0.0655
 7179TIP3    H143028   4.653   0.469  13.250  0.1059 -0.8345 -0.3638
 7179TIP3    H243029   4.773   0.536  13.313 -1.3194  0.7759  0.7254
 7180TIP3   OH243030   6.813   4.778   1.137  0.0558  0.7466 -0.2367
 7180TIP3    H143031   6.801   4.705   1.075  1.6225  0.4083 -0.1884
 7180TIP3    H243032   6.749   4.761   1.207  1.1419 -1.2501  0.3501
 7181TIP3   OH243033   2.253   2.916   3.248  0.3565  0.6377  0.7040
 7181TIP3    H143034   2.237   2.973   3.324 -0.3034  2.8302 -0.9597
 7181TIP3    H243035   2.171   2.918   3.199  1.3524  0.8726 -1.0460
 7182TIP3   OH243036   1.341   2.976   6.302 -0.1051  0.4439 -0.1674
 7182TIP3    H143037   1.437   2.976   6.307 -0.1515  1.8810  2.1968
 7182TIP3    H243038   1.315   2.894   6.343  0.1069  0.5166  0.1202
 7183TIP3   OH243039   6.778   4.801  15.535  0.0274 -0.5063  0.4797
 7183TIP3    H143040   6.867   4.832  15.515 -0.2753  0.5838  0.7301
 7183TIP3    H243041   6.724   4.839  15.465 -0.2713 -1.0246  0.4241
 7184TIP3   OH243042   2.762   2.364   0.409  0.2191  0.0895  0.7177
 7184TIP3    H143043   2.749   2.454   0.380 -1.1599  0.2814  1.8348
 7184TIP3    H243044   2.848   2.340   0.374 -0.3524  1.0414 -1.5329
 7185TIP3   OH243045   5.490   0.842  14.629 -0.1554  0.2830  0.5244
 7185TIP3    H143046   5.419   0.799  14.677 -1.1185  1.1071 -0.1329
 7185TIP3    H243047   5.554   0.865  14.696 -0.0854 -1.2437  1.0184
 7186TIP3   OH243048   1.445   3.495  10.924  0.0571  0.3409  0.6286
 7186TIP3    H143049   1.443   3.571  10.866 -0.0086  1.3223  1.8555
 7186TIP3    H243050   1.377   3.514  10.990 -1.5898 -1.8517 -0.2933
 7187TIP3   OH243051   1.759   2.029  12.532 -0.2106  0.2155  0.2688
 7187TIP3    H143052   1.793   2.060  12.448 -1.6109 -1.2480 -0.8825
 7187TIP3    H243053   1.723   2.108  12.573  2.6087  1.4410  0.6672
 7188TIP3   OH243054   4.869   3.793   4.095  0.4482 -0.0731 -0.7587
 7188TIP3    H143055   4.819   3.738   4.034  0.3010 -1.2317  0.3491
 7188TIP3    H243056   4.820   3.788   4.177  1.6412 -0.1095 -0.0258
 7189TIP3   OH243057   2.038   1.305  11.022  0.9428  0.4516 -0.0828
 7189TIP3    H143058   1.984   1.227  11.039  1.4412 -0.5647 -2.6230
 7189TIP3    H243059   2.108   1.301  11.087 -0.5818  0.3829  1.6305
 7190TIP3   OH243060   2.064   6.217  15.764  0.5316 -0.3100 -0.6766
 7190TIP3    H143061   2.018   6.289  15.806 -1.1404 -2.1470  0.8239
 7190TIP3    H243062   2.150   6.214  15.807  0.5013  0.5389 -0.5402
 7191TIP3   OH243063   1.975   1.170   2.178 -0.5770 -0.2986 -0.2944
 7191TIP3    H143064   1.924   1.233   2.128 -0.0853 -0.3798 -0.9095
 7191TIP3    H243065   1.909   1.117   2.223 -0.9925  1.0896  0.8188
 7192TIP3   OH243066   5.967   6.055  17.072 -0.3020  0.3931 -0.3348
 7192TIP3    H143067   6.000   6.135  17.031  1.4536 -0.3321 -0.3980
 7192TIP3    H243068   5.982   6.068  17.166  0.2711  0.0303 -0.3712
 7193TIP3   OH243069   3.924   2.761  16.228  0.0490 -0.9226 -0.4300
 7193TIP3    H143070   3.941   2.746  16.320  0.0047 -0.0882 -0.2738
 7193TIP3    H243071   3.994   2.819  16.199 -0.7219 -0.0271 -0.5623
 7194TIP3   OH243072   2.994   6.648   3.761  0.0404 -0.1337 -0.4317
 7194TIP3    H143073   3.075   6.597   3.760 -0.2191 -0.5546 -0.4890
 7194TIP3    H243074   2.993   6.689   3.847  0.4474  0.0940 -0.5334
 7195TIP3   OH243075   2.283   2.408  16.731  0.8137  0.6053  0.1683
 7195TIP3    H143076   2.317   2.475  16.790 -0.5543 -1.6067  3.7949
 7195TIP3    H243077   2.326   2.327  16.759 -0.8162 -0.7690 -1.0464
 7196TIP3   OH243078   5.419   0.410  12.920 -0.3223 -0.2010 -0.3990
 7196TIP3    H143079   5.382   0.327  12.951  0.7708 -0.9469 -1.0286
 7196TIP3    H243080   5.372   0.429  12.839 -2.3075  1.1127  0.9541
 7197TIP3   OH243081   4.412   2.153  13.398  0.1573  0.4708 -0.0265
 7197TIP3    H143082   4.425   2.240  13.435  2.5303  1.0990 -2.0807
 7197TIP3    H243083   4.489   2.103  13.423 -0.4111 -0.5396 -0.2166
 7198TIP3   OH243084   1.859   1.121   2.460  0.4915  0.1908 -0.7917
 7198TIP3    H143085   1.791   1.187   2.468  0.7669  0.4167 -0.2801
 7198TIP3    H243086   1.825   1.046   2.509  1.7697  1.2494  1.9559
 7199TIP3   OH243087   1.324   4.997   1.197  0.2055  0.0107 -0.1970
 7199TIP3    H143088   1.270   4.948   1.135  0.3611  1.3479 -1.4648
 7199TIP3    H243089   1.273   4.997   1.278 -0.0332 -1.7299 -0.3141
 7200TIP3   OH243090   5.686   6.698  13.088  0.6564 -0.3053  0.4566
 7200TIP3    H143091   5.763   6.661  13.044  0.5633 -0.5098  0.4622
 7200TIP3    H243092   5.632   6.622  13.110  1.2251 -0.3222  1.9458
 7201TIP3   OH243093   5.761   1.730  15.446  0.7978  0.2198  0.2789
 7201TIP3    H143094   5.853   1.704  15.454  0.8539  0.7875  2.0474
 7201TIP3    H243095   5.757   1.815  15.491 -0.7584 -0.2574  1.1192
 7202TIP3   OH243096   5.093   5.335  14.561  0.7746 -0.5221 -0.0116
 7202TIP3    H143097   5.103   5.289  14.644 -0.1455  1.3616  1.2142
 7202TIP3    H243098   5.009   5.382  14.569  0.7022 -0.2167 -1.9649
 7203TIP3   OH243099   2.813   3.700  16.475  1.1223  0.2302  0.4179
 7203TIP3    H143100   2.904   3.684  16.452  0.7548 -0.9333 -0.3089
 7203TIP3    H243101   2.775   3.740  16.396  0.5734 -1.0347  0.0046
 7204TIP3   OH243102   3.578   0.684  15.788 -0.0935  0.0090  0.2469
 7204TIP3    H143103   3.640   0.669  15.717 -0.1811 -0.4380  0.2572
 7204TIP3    H243104   3.631   0.683  15.868  0.3311  2.6387  0.0702
 7205TIP3   OH243105   6.324   3.521  13.135 -0.2037 -0.5203 -0.1575
 7205TIP3    H143106   6.325   3.425  13.143  3.4281 -0.9124 -2.8249
 7205TIP3    H243107   6.267   3.537  13.059 -0.5951 -0.5746  0.1224
 7206TIP3   OH243108   2.479   3.634  16.330  0.3605 -0.0012  0.2088
 7206TIP3    H143109   2.549   3.580  16.368  1.4852  0.5432 -1.0014
 7206TIP3    H243110   2.495   3.721  16.368  0.5397  0.1930 -0.3080
 7207TIP3   OH243111   1.264   1.516   0.241 -0.4426 -0.3253  0.0849
 7207TIP3    H143112   1.350   1.489   0.272  0.4317  1.7807 -0.3510
 7207TIP3    H243113   1.258   1.609   0.262 -2.7865 -0.4759  0.4432
 7208TIP3   OH243114   1.066   0.937  14.800  0.3568  0.4730  0.0712
 7208TIP3    H143115   1.094   0.972  14.715  0.4976  0.8042  0.2479
 7208TIP3    H243116   1.131   0.971  14.862 -1.3234  2.6970  0.7760
 7209TIP3   OH243117   4.090   2.938   3.167  0.3346  0.2336 -0.7795
 7209TIP3    H143118   4.015   2.954   3.109 -2.2764 -2.3912  1.6033
 7209TIP3    H243119   4.122   2.852   3.141  0.8896  0.2259 -0.0913
 7210TIP3   OH243120   6.846   3.343   0.040  0.1189 -0.2085  0.2762
 7210TIP3    H143121   6.869   3.360   0.131 -1.8495 -1.5567  1.1254
 7210TIP3    H243122   6.808   3.425   0.009  1.5024  0.5009  0.3908
 7211TIP3   OH243123   1.752   1.004   1.823  0.5629 -0.1749 -0.0313
 7211TIP3    H143124   1.693   0.930   1.819  1.1954 -0.6406 -2.6287
 7211TIP3    H243125   1.707   1.074   1.776  0.7851  0.4792  0.7009
 7212TIP3   OH243126   3.347   3.418  12.706  0.1092  0.0003  0.2856
 7212TIP3    H143127   3.437   3.451  12.709 -0.3007  1.2517 -0.3173
 7212TIP3    H243128   3.326   3.414  12.612 -0.5688  0.0345  0.4308
 7213TIP3   OH243129   3.026   6.562   0.901 -0.6051  0.2403 -0.3750
 7213TIP3    H143130   2.945   6.595   0.864 -0.2721 -0.1611 -1.4978
 7213TIP3    H243131   3.042   6.479   0.855  0.1040 -0.0018  0.2835
 7214TIP3   OH243132   5.346   2.903  16.786  0.2366  0.2822  0.2113
 7214TIP3    H143133   5.360   2.991  16.750 -1.7498  1.3240  1.7875
 7214TIP3    H243134   5.355   2.914  16.880  0.8303 -1.4109  0.3701
 7215TIP3   OH243135   0.318   5.672  16.491 -1.0280 -0.3772 -0.1624
 7215TIP3    H143136   0.378   5.615  16.540 -0.8418 -0.6280 -0.6789
 7215TIP3    H243137   0.344   5.761  16.516 -0.3162 -0.4762 -0.5190
 7216TIP3   OH243138   2.995   0.353   2.184 -0.0735 -0.0396 -0.4002
 7216TIP3    H143139   2.926   0.411   2.152 -1.4172 -0.7803  1.0126
 7216TIP3    H243140   2.954   0.266   2.188  0.5713 -0.3039  1.5075
 7217TIP3   OH243141   5.299   6.479  12.434 -0.1804  0.2685 -0.2147
 7217TIP3    H143142   5.312   6.389  12.404  0.4788  0.8219 -1.6744
 7217TIP3    H243143   5.359   6.489  12.508 -0.1388 -0.4311 -0.1449
 7218TIP3   OH243144   2.716   0.561   2.574 -0.2044 -0.1817 -0.2445
 7218TIP3    H143145   2.675   0.599   2.652  0.3882  0.2197 -0.1163
 7218TIP3    H243146   2.805   0.598   2.573 -0.1382 -0.3341 -1.0036
 7219TIP3   OH243147   0.263   5.458   6.103  0.2868 -0.3647  0.0269
 7219TIP3    H143148   0.281   5.552   6.105  0.3102 -0.3643  2.3056
 7219TIP3    H243149   0.331   5.418   6.157  1.5759 -2.0192 -2.5893
 7220TIP3   OH243150   4.615   1.891   0.403 -0.2637  0.1020 -0.1677
 7220TIP3    H143151   4.534   1.873   0.356 -0.0841 -0.4763 -0.2623
 7220TIP3    H243152   4.589   1.950   0.474 -0.7798 -0.1376 -0.1536
 7221TIP3   OH243153   1.281   2.743   2.218 -0.2899  0.6903  0.0910
 7221TIP3    H143154   1.368   2.772   2.191 -0.0432  0.3835  0.5349
 7221TIP3    H243155   1.232   2.733   2.137  0.6618 -0.9659 -0.3272
 7222TIP3   OH243156   4.537   1.581  14.773 -0.1580  0.1554 -0.6550
 7222TIP3    H143157   4.545   1.486  14.780 -2.7083 -0.3223 -2.7688
 7222TIP3    H243158   4.458   1.602  14.823 -0.1581  1.0394 -1.0169
 7223TIP3   OH243159   2.611   3.280  16.834 -0.0958  0.2103  0.1428
 7223TIP3    H143160   2.535   3.249  16.884 -0.6612 -0.9215 -1.3548
 7223TIP3    H243161   2.619   3.372  16.859 -1.6406  0.2176  0.7467
 7224TIP3   OH243162   3.824   5.754  10.221 -0.4090  0.7054  0.3049
 7224TIP3    H143163   3.892   5.712  10.272 -0.8931 -1.2209 -0.5461
 7224TIP3    H243164   3.742   5.715  10.252 -0.7565 -0.1501 -1.5326
 7225TIP3   OH243165   2.562   5.883  12.135 -0.0853 -0.3872 -0.1713
 7225TIP3    H143166   2.549   5.960  12.080  0.1432  0.1469  0.5063
 7225TIP3    H243167   2.485   5.828  12.118 -0.5107  0.2314 -0.2702
 7226TIP3   OH243168   3.864   0.022  15.814  0.0291 -0.3055  0.0010
 7226TIP3    H143169   3.899   0.090  15.872  0.9788  1.7730 -2.8024
 7226TIP3    H243170   3.922  -0.053  15.827 -0.6386 -0.4784  2.6690
 7227TIP3   OH243171   1.253   4.254  14.871 -0.4340 -0.0966  0.3003
 7227TIP3    H143172   1.314   4.300  14.814 -1.9656  1.3597 -0.2401
 7227TIP3    H243173   1.190   4.214  14.811 -1.0470 -0.0360  0.8887
 7228TIP3   OH243174   0.845   4.403  17.060  0.2382  0.0237 -0.1990
 7228TIP3    H143175   0.865   4.316  17.094 -0.1400 -1.2305 -2.9585
 7228TIP3    H243176   0.759   4.423  17.096  0.5714 -0.4581  0.9214
 7229TIP3   OH243177   3.202   1.362   6.286  0.3355  0.0822  0.1455
 7229TIP3    H143178   3.152   1.293   6.243  0.6972 -0.8589  1.2108
 7229TIP3    H243179   3.167   1.443   6.248 -0.2398 -0.6567 -0.9661
 7230TIP3   OH243180   5.379   6.347  16.663 -0.5178 -0.1838 -0.4733
 7230TIP3    H143181   5.440   6.340  16.736  0.9616  2.2790 -1.3642
 7230TIP3    H243182   5.386   6.263  16.617  0.6422 -0.6944  0.5924
 7231TIP3   OH243183   2.199   2.293   4.964  0.3685 -0.1945 -0.0647
 7231TIP3    H143184   2.278   2.279   4.911  0.2370 -0.5991 -0.1558
 7231TIP3    H243185   2.180   2.207   5.002  0.2973  0.0317  0.4112
 7232TIP3   OH243186   3.163   1.413   0.752  0.3890  0.2775 -0.3093
 7232TIP3    H143187   3.081   1.456   0.726 -0.0986  0.3595  1.2435
 7232TIP3    H243188   3.186   1.454   0.836  1.2875 -0.6979 -0.0566
 7233TIP3   OH243189   4.362   1.992   0.236  0.6319 -0.0487  0.3700
 7233TIP3    H143190   4.352   2.078   0.276 -0.6112  1.3946 -2.7535
 7233TIP3    H243191   4.436   2.002   0.176  0.2762 -1.0721 -0.2678
 7234TIP3   OH243192   3.208   2.376   5.479  0.1246  0.2171  0.0536
 7234TIP3    H143193   3.276   2.423   5.526 -1.4430 -1.6605  4.8403
 7234TIP3    H243194   3.141   2.443   5.462  0.7723  0.9854  0.4233
 7235TIP3   OH243195   6.351   3.892   5.616 -0.3279  0.8371 -0.7208
 7235TIP3    H143196   6.269   3.900   5.567 -1.7445 -1.4592  1.0791
 7235TIP3    H243197   6.326   3.905   5.707  0.7614 -2.2715  0.1308
 7236TIP3   OH243198   5.686   1.005  16.593 -0.0006  0.1506  0.1295
 7236TIP3    H143199   5.717   1.088  16.629 -0.2472 -0.7658  2.6978
 7236TIP3    H243200   5.591   1.006  16.609 -0.2665  0.0275 -1.3084
 7237TIP3   OH243201   4.676   1.167   1.935  0.1071  0.0003  0.4035
 7237TIP3    H143202   4.730   1.189   1.859 -0.7807 -1.0414 -0.5850
 7237TIP3    H243203   4.642   1.250   1.966 -0.3966  0.3707 -1.0548
 7238TIP3   OH243204   0.086   5.513  11.041  0.2196  0.4134 -0.1964
 7238TIP3    H143205   0.122   5.508  10.953 -0.5411 -0.5179 -0.4707
 7238TIP3    H243206   0.098   5.425  11.078  0.5728  0.8028  0.6525
 7239TIP3   OH243207   1.328   5.065  16.521 -0.0321  0.0369 -0.2636
 7239TIP3    H143208   1.243   5.055  16.479  0.0818 -1.8890 -0.1640
 7239TIP3    H243209   1.311   5.119  16.598 -0.9184  0.6852 -0.9080
 7240TIP3   OH243210   2.557   5.154  12.162 -0.1181  0.3348 -0.0652
 7240TIP3    H143211   2.520   5.223  12.217 -1.5485 -0.1288 -0.4149
 7240TIP3    H243212   2.593   5.200  12.086  1.7247  0.9637  1.1134
 7241TIP3   OH243213   3.122   4.724   3.990 -0.5174  0.0410  0.0706
 7241TIP3    H143214   3.104   4.753   3.901 -2.5272 -2.1030 -0.3224
 7241TIP3    H243215   3.166   4.640   3.980 -0.7610 -0.2263  1.1132
 7242TIP3   OH243216   1.668   1.454  14.012  0.4547  0.0087  0.1660
 7242TIP3    H143217   1.661   1.396  14.088 -0.5261 -1.3281 -0.8885
 7242TIP3    H243218   1.610   1.528  14.032 -1.8278 -1.5511 -0.2755
 7243TIP3   OH243219   5.220   6.658   0.179 -0.9726 -0.3339 -0.0738
 7243TIP3    H143220   5.184   6.674   0.092 -0.3859 -1.0850 -0.4632
 7243TIP3    H243221   5.258   6.570   0.175 -0.4161 -0.1538  0.7595
 7244TIP3   OH243222   0.426   2.019  13.162  0.3063  0.1385  0.4377
 7244TIP3    H143223   0.385   1.955  13.104 -1.7441  1.8136 -0.0709
 7244TIP3    H243224   0.455   1.968  13.238 -0.0886 -1.5695 -0.5208
 7245TIP3   OH243225   0.924   5.474   5.875  0.2662 -0.8755  0.0541
 7245TIP3    H143226   0.847   5.460   5.931 -0.8595  2.1737 -0.5553
 7245TIP3    H243227   0.901   5.432   5.792 -0.5177 -0.4567  0.0529
 7246TIP3   OH243228   6.432   1.109  14.207 -0.8036  0.0935  0.1173
 7246TIP3    H143229   6.469   1.021  14.210 -0.0805  0.4141  2.8353
 7246TIP3    H243230   6.488   1.156  14.144  0.3974 -0.7235  0.5337
 7247TIP3   OH243231   2.093   1.043  13.119 -0.5635 -0.5400  0.0125
 7247TIP3    H143232   2.036   1.014  13.048 -1.7538  0.5744  0.4801
 7247TIP3    H243233   2.085   1.139  13.119  1.5085 -0.3146 -0.0568
 7248TIP3   OH243234   6.524   0.398  11.817 -0.0354 -0.1282 -0.5630
 7248TIP3    H143235   6.532   0.492  11.834 -0.6956 -0.0933 -0.4172
 7248TIP3    H243236   6.446   0.390  11.761 -0.5671 -0.6759  0.2371
 7249TIP3   OH243237   3.011   3.491  12.118 -0.5304  0.1488 -0.1258
 7249TIP3    H143238   3.070   3.416  12.110 -1.7718 -1.3710  2.9420
 7249TIP3    H243239   3.059   3.555  12.170 -0.5807  0.1005 -0.0187
 7250TIP3   OH243240   4.597   6.800   4.620  0.2550  0.0738  0.4189
 7250TIP3    H143241   4.540   6.777   4.693  0.4953 -0.4207  0.4580
 7250TIP3    H243242   4.666   6.854   4.660 -0.1166  0.5704  0.3911
 7251TIP3   OH243243   4.409   5.826  14.812 -0.6933 -0.0504 -0.1735
 7251TIP3    H143244   4.426   5.899  14.751 -1.8314  1.0603  0.7820
 7251TIP3    H243245   4.419   5.865  14.899  0.7646 -1.5774  0.3975
 7252TIP3   OH243246   6.292   2.355  15.527 -0.0681 -0.5449  0.2256
 7252TIP3    H143247   6.273   2.449  15.523  0.4915 -0.3901  1.0004
 7252TIP3    H243248   6.233   2.316  15.462 -0.8190  0.2563  0.4048
 7253TIP3   OH243249   3.891   5.715   0.292 -0.3835 -0.3755 -0.7428
 7253TIP3    H143250   3.956   5.644   0.289  0.4826  0.4149 -1.2666
 7253TIP3    H243251   3.807   5.670   0.303  0.1434 -1.4871 -1.0666
 7254TIP3   OH243252   0.027   2.762  14.381  0.0983 -0.3037  0.4992
 7254TIP3    H143253   0.031   2.670  14.354 -0.9643  0.5135 -2.8555
 7254TIP3    H243254  -0.058   2.771  14.424  0.0104 -0.7906  0.4316
 7255TIP3   OH243255   3.888   2.089  16.525 -0.0208 -0.4428  0.0876
 7255TIP3    H143256   3.872   2.063  16.435 -1.4366  1.2518 -0.1967
 7255TIP3    H243257   3.812   2.057  16.574 -0.6005  0.9888  0.1597
 7256TIP3   OH243258   4.318   0.311  13.451  0.0162  0.3689  0.0812
 7256TIP3    H143259   4.242   0.253  13.439 -0.2930  0.2164  2.3627
 7256TIP3    H243260   4.297   0.388  13.399 -0.0298 -1.0932 -2.2012
 7257TIP3   OH243261   2.442   6.293  11.864  0.2214  0.2600  0.3916
 7257TIP3    H143262   2.439   6.381  11.902  0.6622  0.2666  0.4186
 7257TIP3    H243263   2.380   6.242  11.916 -0.1210  0.5808  0.3022
 7258TIP3   OH243264   2.042   5.982  10.895  0.1338  0.4426 -0.6561
 7258TIP3    H143265   2.129   5.954  10.925 -0.0126 -0.5538 -1.1223
 7258TIP3    H243266   2.019   6.054  10.953  0.4187 -0.5818  0.7933
 7259TIP3   OH243267   2.301   6.516  13.104 -0.6019  0.2354 -0.3728
 7259TIP3    H143268   2.367   6.568  13.059 -1.4258  1.4645 -0.2060
 7259TIP3    H243269   2.263   6.461  13.036  1.0667 -1.0470 -0.3343
 7260TIP3   OH243270   4.694   3.221  13.509 -0.0393  1.0526 -0.0047
 7260TIP3    H143271   4.755   3.285  13.473  1.2032  0.6390  1.2817
 7260TIP3    H243272   4.709   3.224  13.604  0.4428 -1.4831  0.0704
 7261TIP3   OH243273   5.064   3.827  15.223  0.6172  0.3571  0.0584
 7261TIP3    H143274   5.050   3.783  15.140 -1.2518  0.4027  0.2999
 7261TIP3    H243275   5.150   3.868  15.215  0.9544 -0.5799 -1.3996
 7262TIP3   OH243276   1.490   3.694  11.270 -0.2323 -0.5745  0.5299
 7262TIP3    H143277   1.422   3.708  11.336 -1.1159 -1.5390 -0.1612
 7262TIP3    H243278   1.547   3.628  11.308  1.1629  1.1823  1.6972
 7263TIP3   OH243279   5.154   5.871  10.327 -0.6444  0.0321 -0.0165
 7263TIP3    H143280   5.122   5.922  10.402 -0.1304 -0.5710  0.6303
 7263TIP3    H243281   5.102   5.790  10.329  0.9755 -1.0387  1.1530
 7264TIP3   OH243282   2.570   6.464  15.056  0.4729  0.0032  0.0910
 7264TIP3    H143283   2.491   6.427  15.016  1.3286 -2.1769  0.2812
 7264TIP3    H243284   2.642   6.434  14.999  1.1227  3.5559 -1.2236
 7265TIP3   OH243285   3.449   1.992  12.832 -0.3233  0.0544  0.0630
 7265TIP3    H143286   3.396   2.061  12.872 -0.9533  0.1103 -0.8280
 7265TIP3    H243287   3.537   2.029  12.826 -0.2354  0.0753  1.2831
 7266TIP3   OH243288   5.508   4.841   3.525 -0.5239  0.3555 -0.2309
 7266TIP3    H143289   5.545   4.926   3.548  0.5956 -0.7018  2.2781
 7266TIP3    H243290   5.414   4.858   3.515 -0.3046  1.8972  0.0389
 7267TIP3   OH243291   4.773   0.724  12.148 -0.1787 -0.0669 -0.0399
 7267TIP3    H143292   4.756   0.714  12.241  0.9496  0.9202  0.2957
 7267TIP3    H243293   4.828   0.648  12.126 -1.5338 -1.0262 -0.2239
 7268TIP3   OH243294   0.704   2.017   5.646  0.0791 -0.0603  0.1132
 7268TIP3    H143295   0.767   2.027   5.718 -0.0440 -1.1385  0.3880
 7268TIP3    H243296   0.619   2.038   5.685  0.0965  0.0273  0.1044
 7269TIP3   OH243297   5.608   4.089   2.902  0.1594 -0.4286  0.2256
 7269TIP3    H143298   5.658   4.119   2.977 -0.5540 -0.2541  0.6473
 7269TIP3    H243299   5.662   4.023   2.861  1.0776  0.3242  0.2013
 7270TIP3   OH243300   2.887   6.230  11.760  0.2450  0.9282  0.4931
 7270TIP3    H143301   2.873   6.136  11.774 -0.6145  0.8042 -1.0504
 7270TIP3    H243302   2.917   6.262  11.846  0.5141 -0.7291  1.0644
 7271TIP3   OH243303   3.370   6.510   2.235 -0.0972 -0.1162 -0.3653
 7271TIP3    H143304   3.385   6.597   2.272 -0.9568 -0.0356 -0.1704
 7271TIP3    H243305   3.280   6.513   2.202  0.8165  0.0311 -3.1044
 7272TIP3   OH243306   1.048   3.492  13.490 -0.0161 -0.1601 -0.3962
 7272TIP3    H143307   1.105   3.424  13.455  0.5253 -0.3287  0.7819
 7272TIP3    H243308   1.085   3.574  13.457 -0.3523 -0.3808 -1.3678
 7273TIP3   OH243309   6.326   3.635   2.039  0.3136  0.0656 -0.6078
 7273TIP3    H143310   6.369   3.618   1.955  1.0248  1.2308 -0.5017
 7273TIP3    H243311   6.385   3.596   2.104 -0.9499 -2.1398 -0.6864
 7274TIP3   OH243312   2.745   2.947  11.193  0.2777 -1.1622  0.2425
 7274TIP3    H143313   2.668   2.994  11.226  0.2984 -2.4707  2.3678
 7274TIP3    H243314   2.728   2.936  11.100 -1.0910  0.4334  0.2566
 7275TIP3   OH243315   1.165   3.337  15.203 -0.7721 -0.3138 -0.2875
 7275TIP3    H143316   1.242   3.371  15.249 -0.0791 -1.4131 -0.5845
 7275TIP3    H243317   1.168   3.242  15.220 -0.5073 -0.7486 -2.5277
 7276TIP3   OH243318   3.783   6.756   2.915 -0.4991  0.3210 -0.1797
 7276TIP3    H143319   3.809   6.733   2.825  1.8024  0.4211  0.3957
 7276TIP3    H243320   3.735   6.679   2.946  1.4621 -1.1033 -0.4693
 7277TIP3   OH243321   3.681   6.434   4.798  0.4426  0.0594  0.3577
 7277TIP3    H143322   3.663   6.340   4.798  0.1141  0.1189  0.5876
 7277TIP3    H243323   3.713   6.453   4.710 -1.2476  0.0494 -0.2918
 7278TIP3   OH243324   3.542   3.240  11.522 -0.4436 -0.0570 -0.2693
 7278TIP3    H143325   3.621   3.236  11.469 -0.2488  1.0532 -0.0753
 7278TIP3    H243326   3.574   3.253  11.612 -0.7895 -1.3067  0.0609
 7279TIP3   OH243327   1.121   6.354   2.791  0.3035 -1.0099 -0.4120
 7279TIP3    H143328   1.184   6.321   2.728  0.9839 -3.8757  1.5630
 7279TIP3    H243329   1.039   6.311   2.767  0.4490 -1.7051  0.2822
 7280TIP3   OH243330   1.803   4.025   2.995  0.1747  0.0341  0.5949
 7280TIP3    H143331   1.814   4.094   2.929 -0.9879  1.1095  1.4690
 7280TIP3    H243332   1.713   4.036   3.026 -0.4401 -2.5991 -0.0060
 7281TIP3   OH243333   3.717   3.586   3.983  0.2500  0.5413 -0.1301
 7281TIP3    H143334   3.721   3.511   4.042 -1.9520 -0.5973 -1.3088
 7281TIP3    H243335   3.685   3.658   4.038  1.4204  0.3833  0.7876
 7282TIP3   OH243336   2.341   0.351  15.102  0.3768 -0.1989  0.8444
 7282TIP3    H143337   2.251   0.322  15.086  0.5497 -0.6085  0.5743
 7282TIP3    H243338   2.395   0.278  15.070  0.7946 -0.0889  1.2872
 7283TIP3   OH243339   4.028   1.135  13.305 -0.1580 -0.6948 -0.2181
 7283TIP3    H143340   3.949   1.099  13.263 -0.4288 -0.6190  0.2226
 7283TIP3    H243341   4.028   1.227  13.280 -0.4052 -0.6145  0.0780
 7284TIP3   OH243342   2.412   0.044  16.534  0.3668  0.2696  0.0258
 7284TIP3    H143343   2.343   0.110  16.529  0.1718  0.3786  2.7921
 7284TIP3    H243344   2.372  -0.034  16.495 -0.3320  1.0481 -0.8687
 7285TIP3   OH243345   4.399   0.061   2.222 -0.5632 -0.2611 -0.1674
 7285TIP3    H143346   4.437  -0.026   2.234  1.2249  0.2657 -1.5687
 7285TIP3    H243347   4.343   0.052   2.144 -0.4042 -0.1678 -0.2928
 7286TIP3   OH243348   1.955   3.743  16.127  0.1808  0.3759 -0.0909
 7286TIP3    H143349   1.866   3.708  16.132  0.7850 -1.1317  0.8505
 7286TIP3    H243350   1.980   3.757  16.219 -0.5384  4.8562 -0.3566
 7287TIP3   OH243351   2.836   5.671   4.397 -0.3772  0.3034  0.0880
 7287TIP3    H143352   2.754   5.630   4.425 -0.8542  1.8038  1.0336
 7287TIP3    H243353   2.838   5.754   4.445  0.5797  1.3390 -1.6728
 7288TIP3   OH243354   0.208   5.744   5.763 -0.4356  0.3141  0.2786
 7288TIP3    H143355   0.178   5.656   5.740 -0.1039  0.3949 -0.4813
 7288TIP3    H243356   0.248   5.734   5.849  3.2626 -1.1506 -1.3781
 7289TIP3   OH243357   4.004   6.158  12.688  0.5346  0.2238  0.0905
 7289TIP3    H143358   3.928   6.149  12.629  0.2810  1.9729  0.1000
 7289TIP3    H243359   3.972   6.127  12.773  0.2512 -0.3078 -0.2009
 7290TIP3   OH243360   2.536   3.935  15.257 -0.5649  0.0321  0.1770
 7290TIP3    H143361   2.590   3.862  15.284  0.5678 -0.0514 -2.0441
 7290TIP3    H243362   2.465   3.939  15.321 -0.5306 -2.8531  0.4901
 7291TIP3   OH243363   1.490   3.722   2.992  0.2654  0.1574  0.4270
 7291TIP3    H143364   1.436   3.689   3.064  0.2785 -0.2930  0.2388
 7291TIP3    H243365   1.546   3.648   2.968 -0.4869 -0.0689 -0.7546
 7292TIP3   OH243366   0.186   4.420  12.403 -0.0236  0.8108  0.1445
 7292TIP3    H143367   0.249   4.450  12.467  0.0066  2.8074 -0.7345
 7292TIP3    H243368   0.238   4.403  12.324 -0.2189 -0.4597  0.2638
 7293TIP3   OH243369   6.381   4.944  14.568  0.2831  0.4464 -0.1824
 7293TIP3    H143370   6.375   4.870  14.629  1.0700 -0.6695 -1.3941
 7293TIP3    H243371   6.330   5.014  14.609  1.3257 -0.0368  2.0318
 7294TIP3   OH243372   2.874   3.052  11.663 -0.4964  0.0096  0.5298
 7294TIP3    H143373   2.968   3.033  11.662 -0.5891 -0.4770 -0.6287
 7294TIP3    H243374   2.861   3.110  11.587 -1.3351 -1.0239 -0.1373
 7295TIP3   OH243375   2.665   2.450   3.350  0.4499  0.3536  0.5425
 7295TIP3    H143376   2.667   2.360   3.319  0.8296  0.2057  0.9919
 7295TIP3    H243377   2.699   2.502   3.278 -0.7190  0.2542 -0.1043
 7296TIP3   OH243378   3.843   1.239   2.401  0.5678 -0.5856 -0.1658
 7296TIP3    H143379   3.798   1.307   2.452 -0.3406 -0.4333 -1.1186
 7296TIP3    H243380   3.896   1.288   2.338 -0.3737 -0.7164 -1.1028
 7297TIP3   OH243381   4.754   1.408  12.547  0.3389 -0.6191  0.0296
 7297TIP3    H143382   4.801   1.401  12.630  2.8215  1.4055 -1.0398
 7297TIP3    H243383   4.768   1.324  12.503  2.0043 -0.5015  0.2718
 7298TIP3   OH243384   4.577   1.631   2.856  0.5130 -0.4958  0.0866
 7298TIP3    H143385   4.521   1.564   2.815  1.0122 -0.5720 -0.4830
 7298TIP3    H243386   4.664   1.591   2.860  0.3657 -0.7237  1.8030
 7299TIP3   OH243387   0.262   0.889   1.716  0.1441 -0.2750 -0.3964
 7299TIP3    H143388   0.324   0.942   1.666 -0.1637  0.3085 -0.1684
 7299TIP3    H243389   0.304   0.878   1.802 -0.4768  0.9685  0.1058
 7300TIP3   OH243390   0.452   2.195  15.719  0.0925  0.2382  0.0158
 7300TIP3    H143391   0.452   2.117  15.775 -0.7148 -0.2534 -0.6475
 7300TIP3    H243392   0.369   2.191  15.673  0.9308  0.3731 -1.5723
 7301TIP3   OH243393   0.082   2.139   5.130 -0.4318  0.0994 -0.3379
 7301TIP3    H143394   0.035   2.133   5.213  0.7356  2.0962  0.5581
 7301TIP3    H243395   0.082   2.233   5.109  1.4771 -0.0416 -1.2581
 7302TIP3   OH243396   2.230   6.163   3.146  1.1971 -0.4566 -0.3493
 7302TIP3    H143397   2.308   6.180   3.198  1.5214 -1.5657 -0.4673
 7302TIP3    H243398   2.248   6.082   3.100 -0.2284 -1.0135  0.0151
 7303TIP3   OH243399   0.945   5.731   6.039 -0.0751 -0.9489  0.0915
 7303TIP3    H143400   0.933   5.696   5.951 -0.3422  0.3667 -0.4199
 7303TIP3    H243401   0.973   5.822   6.025 -4.1595  0.7126  1.2835
 7304TIP3   OH243402   0.417   5.141   3.546 -0.4185 -0.2914  0.6701
 7304TIP3    H143403   0.505   5.128   3.508  0.5496 -1.3667  3.0772
 7304TIP3    H243404   0.359   5.090   3.489  0.9980 -1.9937  0.6647
 7305TIP3   OH243405   5.553   1.203   0.123 -0.1643 -0.0530  0.7008
 7305TIP3    H143406   5.581   1.143   0.192  0.3477  0.5053  0.9855
 7305TIP3    H243407   5.458   1.192   0.120 -0.3042  0.5359  2.0960
 7306TIP3   OH243408   4.594   5.901   2.930  0.6514 -0.1813  0.2931
 7306TIP3    H143409   4.510   5.945   2.945  0.4132 -0.6769  0.4201
 7306TIP3    H243410   4.571   5.823   2.879  0.8597 -1.0279  1.4752
 7307TIP3   OH243411   4.845   0.865   0.923 -0.1360 -0.0305  0.2774
 7307TIP3    H143412   4.936   0.894   0.932  0.0537  0.0524 -1.4820
 7307TIP3    H243413   4.819   0.895   0.836 -1.5457 -0.8652  0.3839
 7308TIP3   OH243414   3.197   5.142  14.333 -0.4031  0.0377 -0.4762
 7308TIP3    H143415   3.126   5.133  14.396  0.2470 -2.8403 -0.0450
 7308TIP3    H243416   3.154   5.146  14.248 -1.1332  0.5531 -0.0950
 7309TIP3   OH243417   5.649   5.208   5.495  0.5446 -0.0372 -0.0246
 7309TIP3    H143418   5.712   5.246   5.433  0.0484  0.7854 -0.0384
 7309TIP3    H243419   5.566   5.208   5.447  0.3613 -0.3498  0.2875
 7310TIP3   OH243420   5.409   0.297  16.960 -0.0052 -0.0678 -0.0807
 7310TIP3    H143421   5.361   0.260  16.886  0.3948 -0.3633 -0.1923
 7310TIP3    H243422   5.364   0.380  16.979  1.0314  0.9615 -1.8816
 7311TIP3   OH243423   6.139   3.610  14.286 -0.0683  0.9153  0.0197
 7311TIP3    H143424   6.150   3.587  14.193  0.6697  0.5698  0.1881
 7311TIP3    H243425   6.097   3.696  14.284  1.0982  1.5092 -0.6658
 7312TIP3   OH243426   2.695   3.220   2.919 -0.4699 -0.2925 -0.2419
 7312TIP3    H143427   2.731   3.159   2.984 -1.4677 -0.5183  0.1177
 7312TIP3    H243428   2.695   3.170   2.837  1.9529  0.3902 -0.7574
 7313TIP3   OH243429   5.907   6.320   0.262  0.0403  0.0481  0.4112
 7313TIP3    H143430   5.842   6.251   0.248 -0.6223  0.6045  0.7011
 7313TIP3    H243431   5.974   6.304   0.196 -0.3145 -0.6258  0.2073
 7314TIP3   OH243432   4.520   0.057   4.994 -0.1620 -0.0780 -0.3047
 7314TIP3    H143433   4.569   0.139   4.991  0.5007 -0.4870 -1.0319
 7314TIP3    H243434   4.457   0.062   4.922  1.5116 -1.1706 -1.9467
 7315TIP3   OH243435   4.774   1.624  12.118 -0.4746  0.4403  0.3122
 7315TIP3    H143436   4.782   1.621  12.213  0.6547  2.5668  0.3295
 7315TIP3    H243437   4.857   1.589  12.086 -1.8775 -2.9834 -0.0436
 7316TIP3   OH243438   0.742   2.710  13.293 -0.0675 -0.1889 -0.2274
 7316TIP3    H143439   0.779   2.650  13.358  1.4541 -0.7542 -1.5605
 7316TIP3    H243440   0.747   2.796  13.335  0.3885 -0.6072  0.6051
 7317TIP3   OH243441   3.752   2.708   0.001  0.2781 -0.4101 -0.0071
 7317TIP3    H143442   3.755   2.647   0.075 -0.2495  0.8832  1.1335
 7317TIP3    H243443   3.712   2.787   0.037  0.9416  0.6235 -1.4242
 7318TIP3   OH243444   6.719   4.822   2.393  0.0434 -0.4402 -0.2868
 7318TIP3    H143445   6.727   4.740   2.441  0.6169 -1.4145 -1.9486
 7318TIP3    H243446   6.644   4.809   2.335 -0.2354  0.4471 -0.1411
 7319TIP3   OH243447   6.285   3.971  10.380  0.1798  0.1097  0.1180
 7319TIP3    H143448   6.319   3.911  10.447  0.4806 -0.6144 -0.6629
 7319TIP3    H243449   6.359   4.027  10.357  0.8697 -1.3630 -1.4678
 7320TIP3   OH243450   5.369   2.555   4.348  0.3371 -0.5712  0.2847
 7320TIP3    H143451   5.440   2.492   4.334  0.3702 -1.1801  2.7295
 7320TIP3    H243452   5.360   2.560   4.443 -1.4368  1.1713  0.0851
 7321TIP3   OH243453   6.441   4.138  10.863 -0.3387 -0.5691  0.6724
 7321TIP3    H143454   6.519   4.171  10.817  0.3311 -1.1614  1.3545
 7321TIP3    H243455   6.428   4.050  10.828 -0.2336 -0.7621  1.1093
 7322TIP3   OH243456   1.278   0.834  14.256 -0.4129 -0.1271 -0.4744
 7322TIP3    H143457   1.203   0.841  14.197 -0.8100 -0.9382 -0.0854
 7322TIP3    H243458   1.241   0.802  14.338  0.5286 -1.8799 -0.6815
 7323TIP3   OH243459   0.134   2.433   5.049 -0.2062 -0.6584 -0.5153
 7323TIP3    H143460   0.068   2.498   5.072 -0.3271 -1.2590  0.9096
 7323TIP3    H243461   0.190   2.478   4.985  0.5369  1.3361  1.4262
 7324TIP3   OH243462   3.371   4.861   0.951  0.0549  0.0226  0.0952
 7324TIP3    H143463   3.323   4.804   1.011 -1.0743 -0.7143 -1.4389
 7324TIP3    H243464   3.363   4.818   0.866  4.7106 -0.9781 -0.1141
 7325TIP3   OH243465   1.897   5.598  11.249 -0.4199  0.0477 -0.2706
 7325TIP3    H143466   1.807   5.586  11.276 -0.2318 -1.2906 -0.1965
 7325TIP3    H243467   1.928   5.674  11.299 -1.6736  0.9366 -0.7859
 7326TIP3   OH243468   5.706   6.361   3.262  0.2765  0.3118  0.0482
 7326TIP3    H143469   5.738   6.402   3.181  1.3930 -0.9435 -0.1926
 7326TIP3    H243470   5.622   6.323   3.237 -0.4001  1.7584  0.0720
 7327TIP3   OH243471   0.888   1.959   0.444 -0.2433  0.2404  0.8542
 7327TIP3    H143472   0.917   1.921   0.528  1.5202  0.8971  0.5885
 7327TIP3    H243473   0.969   1.976   0.397 -1.1875 -2.5201 -2.1287
 7328TIP3   OH243474   6.640   1.324   4.922  0.1098  0.4917  0.6110
 7328TIP3    H143475   6.591   1.369   4.992  0.0590 -2.1320  2.4192
 7328TIP3    H243476   6.573   1.304   4.856  0.0845  2.6826 -0.1048
 7329TIP3   OH243477   0.687   4.362   5.922  0.4170 -0.8076 -0.1977
 7329TIP3    H143478   0.639   4.425   5.976  1.4523 -1.6614  1.8438
 7329TIP3    H243479   0.774   4.358   5.961  1.1520 -1.6701 -1.8183
 7330TIP3   OH243480   2.197   0.136   0.115  0.6333 -0.0580 -0.3130
 7330TIP3    H143481   2.255   0.168   0.046  0.4787  0.4281 -0.2190
 7330TIP3    H243482   2.178   0.213   0.169 -0.2698 -0.1658 -0.4580
 7331TIP3   OH243483   4.899   2.758  13.670  0.4401 -0.2986 -0.0919
 7331TIP3    H143484   4.896   2.800  13.756  1.1646 -0.3909 -0.0211
 7331TIP3    H243485   4.946   2.820  13.614 -0.3972 -0.0462 -0.5395
 7332TIP3   OH243486   4.546   5.999   5.450 -0.2160 -0.5441 -0.0451
 7332TIP3    H143487   4.510   6.067   5.507 -1.1601 -0.5824 -0.5706
 7332TIP3    H243488   4.518   6.024   5.362  0.3821 -1.0140 -0.3775
 7333TIP3   OH243489   5.895   2.180   4.197 -0.5093 -0.2697 -0.3259
 7333TIP3    H143490   5.914   2.148   4.108  1.0551 -1.6211  0.4400
 7333TIP3    H243491   5.832   2.117   4.232 -0.0116 -0.5834  0.0156
 7334TIP3   OH243492   4.427   2.214   0.393  0.3776 -0.0279  0.5340
 7334TIP3    H143493   4.360   2.229   0.460 -0.4667 -1.9701  0.1814
 7334TIP3    H243494   4.400   2.270   0.320 -0.6271 -0.4324  0.5713
 7335TIP3   OH243495   0.809   2.535   2.298  0.3036  0.6545 -0.1227
 7335TIP3    H143496   0.784   2.443   2.305  2.3873 -0.2324 -2.6214
 7335TIP3    H243497   0.750   2.571   2.232  1.7323  0.0710 -1.8017
 7336TIP3   OH243498   0.644   0.045  16.921  0.2146  0.7574 -0.4929
 7336TIP3    H143499   0.591   0.099  16.862 -0.9334  1.9386  1.5246
 7336TIP3    H243500   0.580  -0.003  16.974  1.2205 -0.4586 -0.3354
 7337TIP3   OH243501   4.326   3.645   3.117  0.1898  0.5696 -0.2029
 7337TIP3    H143502   4.377   3.609   3.190  0.4797 -0.2882 -0.8084
 7337TIP3    H243503   4.264   3.705   3.158  0.7874  0.5993  0.6811
 7338TIP3   OH243504   4.913   6.579   4.477 -0.4723 -0.5016  0.0494
 7338TIP3    H143505   4.933   6.670   4.456 -0.7632 -1.0156 -2.9046
 7338TIP3    H243506   4.846   6.554   4.413 -2.0590 -2.1871  2.2030
 7339TIP3   OH243507   4.350   4.278  12.158 -0.3280  0.8239 -0.0987
 7339TIP3    H143508   4.350   4.213  12.087 -2.9668 -2.5039  2.5948
 7339TIP3    H243509   4.281   4.340  12.134 -0.7767  0.1070 -0.7061
 7340TIP3   OH243510   5.114   3.134   2.522  0.3759 -0.4785 -0.1893
 7340TIP3    H143511   5.208   3.118   2.537  0.3017 -3.3422 -2.1557
 7340TIP3    H243512   5.096   3.213   2.573  3.8125  0.1204  0.3842
 7341TIP3   OH243513   0.266   3.765   1.167 -0.2692  0.1292 -0.7116
 7341TIP3    H143514   0.219   3.710   1.105  0.3157 -0.6364 -0.4951
 7341TIP3    H243515   0.359   3.746   1.152 -0.1044  0.1552  0.1755
 7342TIP3   OH243516   2.282   1.638  15.181  0.2921  0.1961 -0.7586
 7342TIP3    H143517   2.265   1.612  15.091  1.2224 -1.4735 -0.5022
 7342TIP3    H243518   2.300   1.555  15.227  0.9456  1.1007  0.6984
 7343TIP3   OH243519   4.995   6.352  11.896  0.0399  0.8089  0.2088
 7343TIP3    H143520   5.035   6.265  11.899  0.0700  0.8015 -0.3279
 7343TIP3    H243521   5.030   6.397  11.973  1.1913  0.8592 -0.3369
 7344TIP3   OH243522   5.689   3.816  14.201 -0.2573 -0.0842  0.1491
 7344TIP3    H143523   5.711   3.749  14.136  0.4964 -2.4493  2.6639
 7344TIP3    H243524   5.764   3.877  14.198 -0.8317  0.6236 -1.9908
 7345TIP3   OH243525   3.624   0.062  16.565  0.1209 -0.1912 -0.0504
 7345TIP3    H143526   3.670   0.095  16.488 -0.9185 -2.9603 -1.9957
 7345TIP3    H243527   3.694   0.038  16.626  1.0691 -0.3315 -1.1642
 7346TIP3   OH243528   0.306   5.236   0.442  0.1277  0.3214  0.2338
 7346TIP3    H143529   0.286   5.147   0.469  0.0375  0.7049  1.4903
 7346TIP3    H243530   0.220   5.278   0.432 -0.0927 -0.6475 -3.9374
 7347TIP3   OH243531   3.510   1.327  15.721  0.2020  0.3181 -1.1503
 7347TIP3    H143532   3.489   1.307  15.812  1.9379  2.1271 -0.2772
 7347TIP3    H243533   3.450   1.272  15.670 -3.9510  2.3285  1.0137
 7348TIP3   OH243534   4.491   6.281  14.893 -0.1397  0.2393  0.3073
 7348TIP3    H143535   4.444   6.277  14.976 -0.1361 -0.1112  0.2939
 7348TIP3    H243536   4.434   6.236  14.831  0.0883  0.0545  0.2317
 7349TIP3   OH243537   2.655   5.771   3.531  0.3762 -0.2919  0.2293
 7349TIP3    H143538   2.574   5.821   3.541 -0.2013 -1.1948  0.1354
 7349TIP3    H243539   2.656   5.713   3.607  0.6407 -0.6930 -0.0799
 7350TIP3   OH243540   2.856   1.499   4.262  0.7751  0.0751  0.2118
 7350TIP3    H143541   2.865   1.592   4.244  0.6278 -0.1658 -1.1612
 7350TIP3    H243542   2.854   1.493   4.358  2.4275  1.3150  0.3478
 7351TIP3   OH243543   5.029   2.406   3.377  0.3671  0.0198  0.1420
 7351TIP3    H143544   4.965   2.338   3.396 -0.5855  1.1106  0.8865
 7351TIP3    H243545   4.981   2.488   3.383  1.6431  0.8214 -0.1166
 7352TIP3   OH243546   6.682   2.085   1.098 -0.0341  0.7773  0.3841
 7352TIP3    H143547   6.721   2.165   1.063  1.1130 -0.2409 -0.7492
 7352TIP3    H243548   6.630   2.049   1.026  0.0409  0.1344  0.6384
 7353TIP3   OH243549   5.661   4.125   0.838 -0.0785  0.0393  0.6567
 7353TIP3    H143550   5.611   4.203   0.862  1.7145  1.5265 -0.1723
 7353TIP3    H243551   5.695   4.091   0.921 -1.9857 -0.7053  1.1705
 7354TIP3   OH243552   4.656   6.630   2.934  0.5986  0.0076 -0.1533
 7354TIP3    H143553   4.593   6.558   2.945  1.7723 -0.8320  1.4480
 7354TIP3    H243554   4.638   6.689   3.007  1.4871 -0.1147  0.1765
 7355TIP3   OH243555   4.815   0.641  12.484 -0.2237  0.6117 -0.3710
 7355TIP3    H143556   4.809   0.669  12.576  1.2987  1.4323 -0.4910
 7355TIP3    H243557   4.733   0.593  12.468 -0.0171 -0.5793  1.7566
 7356TIP3   OH243558   2.703   0.566   0.742  0.1125  0.0023 -0.7978
 7356TIP3    H143559   2.645   0.638   0.718  1.3705  0.5602 -2.3230
 7356TIP3    H243560   2.737   0.534   0.659  0.2808 -1.7916 -0.0808
 7357TIP3   OH243561   4.446   0.507  10.766 -0.4459 -0.3280  0.5625
 7357TIP3    H143562   4.413   0.426  10.804 -0.6606  0.3960  2.0129
 7357TIP3    H243563   4.416   0.575  10.826 -0.5188  0.8600 -0.7796
 7358TIP3   OH243564   2.013   4.872   0.890 -0.3759  0.2597 -0.0739
 7358TIP3    H143565   2.104   4.885   0.864 -0.3978  1.3719  0.3862
 7358TIP3    H243566   1.962   4.901   0.815 -0.4116  2.5715  0.7736
 7359TIP3   OH243567   2.691   3.618  11.132 -0.2822 -0.2035 -0.2608
 7359TIP3    H143568   2.718   3.692  11.078 -0.2074  0.0200  0.0804
 7359TIP3    H243569   2.621   3.576  11.082 -0.3803  0.1482 -0.4188
 7360TIP3   OH243570   6.467   2.763   1.527 -0.4927 -0.7835  0.1361
 7360TIP3    H143571   6.557   2.735   1.541 -0.1504  0.3565  0.3672
 7360TIP3    H243572   6.446   2.732   1.439  1.4017  1.8907 -1.4539
 7361TIP3   OH243573   2.608   1.530   3.411  0.3369  0.1874 -0.1120
 7361TIP3    H143574   2.595   1.585   3.488  2.6780  1.5779 -0.6034
 7361TIP3    H243575   2.542   1.560   3.348 -1.3891 -0.7483  1.1737
 7362TIP3   OH243576   0.050   3.151   4.785  0.1470  0.0915 -0.3963
 7362TIP3    H143577   0.114   3.089   4.749  0.3838 -0.6756  1.2504
 7362TIP3    H243578  -0.034   3.107   4.774  0.5316 -2.0171  3.3484
 7363TIP3   OH243579   0.548   0.814  12.939 -0.4753 -0.7758  0.9162
 7363TIP3    H143580   0.621   0.800  12.999  0.8480  1.0071 -0.1819
 7363TIP3    H243581   0.559   0.747  12.871 -0.6718 -1.3680  1.4591
 7364TIP3   OH243582   3.131   5.133  16.159 -0.3938  0.4510 -0.1981
 7364TIP3    H143583   3.212   5.166  16.199 -0.6803 -0.1825  0.9341
 7364TIP3    H243584   3.071   5.207  16.161 -0.9553 -0.0041  2.1085
 7365TIP3   OH243585   6.728   0.699  13.026  0.3091  0.0423  0.0233
 7365TIP3    H143586   6.706   0.746  13.106  1.0942 -1.6534  1.3104
 7365TIP3    H243587   6.822   0.679  13.035  0.9086  1.4430 -2.2343
 7366TIP3   OH243588   1.476   2.428  14.236 -0.4895 -1.0391 -0.4609
 7366TIP3    H143589   1.495   2.501  14.177  1.3245 -1.6133 -0.6401
 7366TIP3    H243590   1.540   2.361  14.213 -1.7167 -2.4731  0.1220
 7367TIP3   OH243591   0.542   3.746   0.514 -0.0171  0.3663 -0.7927
 7367TIP3    H143592   0.560   3.728   0.422 -0.3986 -0.1864 -0.7653
 7367TIP3    H243593   0.562   3.664   0.559 -0.4737  0.4234 -0.4741
 7368TIP3   OH243594   3.299   5.249  11.601  0.0792  0.0077 -0.7214
 7368TIP3    H143595   3.365   5.302  11.558  0.2917  1.6140  1.4402
 7368TIP3    H243596   3.341   5.217  11.681 -0.9808 -1.0231 -0.5330
 7369TIP3   OH243597   1.341   5.716  12.285  0.6163 -0.0919 -0.1047
 7369TIP3    H143598   1.319   5.742  12.196 -2.3707  1.4939  0.9507
 7369TIP3    H243599   1.258   5.686  12.323  2.1688 -2.6757  1.5994
 7370TIP3   OH243600   0.797   2.631   0.074  0.1159  0.4176  0.0628
 7370TIP3    H143601   0.771   2.575   0.148 -1.3003  1.1961  0.1731
 7370TIP3    H243602   0.847   2.572   0.017 -1.1493 -0.9393  0.2815
 7371TIP3   OH243603   6.306   6.577   2.313  0.3157 -0.0910  0.4871
 7371TIP3    H143604   6.238   6.594   2.379 -0.2777 -0.2293 -0.0796
 7371TIP3    H243605   6.358   6.506   2.351 -1.3897 -1.7598 -0.1497
 7372TIP3   OH243606   5.645   3.488   4.056  0.4292  0.1183 -0.5874
 7372TIP3    H143607   5.714   3.555   4.051  0.9582 -0.1532  1.7774
 7372TIP3    H243608   5.567   3.536   4.085  0.4233 -0.0582 -0.3134
 7373TIP3   OH243609   0.268   1.291  13.901 -0.4614  0.1641  0.4567
 7373TIP3    H143610   0.265   1.242  13.819 -1.9166  0.8467  0.0601
 7373TIP3    H243611   0.361   1.299  13.921 -0.0056  0.7718 -1.6257
 7374TIP3   OH243612   2.736   1.508   5.487 -0.8586  0.3974 -0.3933
 7374TIP3    H143613   2.692   1.492   5.404 -1.6319 -0.6496  0.2000
 7374TIP3    H243614   2.700   1.443   5.547  1.2660 -0.3193  0.2129
 7375TIP3   OH243615   4.352   6.038   2.962  0.1522 -0.2661 -0.0062
 7375TIP3    H143616   4.325   6.036   3.054 -0.6143 -0.9996 -0.2337
 7375TIP3    H243617   4.271   6.024   2.913  0.5147  0.3715 -0.8085
 7376TIP3   OH243618   6.265   3.739   4.222  0.2129 -0.5414  0.3526
 7376TIP3    H143619   6.231   3.651   4.205  4.3906 -2.0268 -1.6550
 7376TIP3    H243620   6.341   3.725   4.278  0.1869  1.9869  1.1242
 7377TIP3   OH243621   3.568   3.302  17.101 -0.4061  0.0161 -0.5333
 7377TIP3    H143622   3.644   3.358  17.082 -0.1892 -0.0356  0.1471
 7377TIP3    H243623   3.584   3.223  17.049  0.0535 -0.0281 -0.3319
 7378TIP3   OH243624   0.658   0.189   4.384 -0.3761 -0.1076 -0.7686
 7378TIP3    H143625   0.568   0.164   4.402 -0.0126 -0.5390  0.5890
 7378TIP3    H243626   0.660   0.208   4.290 -1.7194 -0.7298 -0.9382
 7379TIP3   OH243627   2.435   3.877   0.656  0.6328 -0.0594 -0.0170
 7379TIP3    H143628   2.445   3.927   0.575  1.9362  0.1409  0.2505
 7379TIP3    H243629   2.418   3.787   0.627 -0.6561  0.3185 -0.4940
 7380TIP3   OH243630   5.130   0.326   2.754  0.3781  0.6182  0.4420
 7380TIP3    H143631   5.134   0.279   2.670 -2.8553 -2.5172  1.8150
 7380TIP3    H243632   5.083   0.407   2.734 -1.2672 -0.5539 -0.6318
 7381TIP3   OH243633   4.383   4.038  16.648  0.1304  0.2089 -0.4369
 7381TIP3    H143634   4.293   4.049  16.618  0.1749 -0.2015 -0.7311
 7381TIP3    H243635   4.404   3.947  16.628  0.2023 -0.0527  0.7485
 7382TIP3   OH243636   0.717   6.841   5.189 -0.6781 -0.2703  0.1143
 7382TIP3    H143637   0.670   6.839   5.106  1.3686  1.4115 -1.2156
 7382TIP3    H243638   0.728   6.935   5.207 -1.6329 -0.5749  2.6767
 7383TIP3   OH243639   1.745   0.030   5.440 -0.5587  0.0545 -0.3722
 7383TIP3    H143640   1.672   0.040   5.501 -1.2263  1.7008 -1.3653
 7383TIP3    H243641   1.713  -0.032   5.374  0.1970 -1.7949  0.9411
 7384TIP3   OH243642   5.786   2.645  15.325 -0.4223  0.2970 -0.7003
 7384TIP3    H143643   5.779   2.636  15.230 -0.4886 -2.1079 -0.5242
 7384TIP3    H243644   5.752   2.563  15.359  2.8628 -0.3884  1.2838
 7385TIP3   OH243645   3.165   0.535   2.336  0.4448  0.1349 -0.0662
 7385TIP3    H143646   3.230   0.473   2.370  0.2543 -0.1975 -0.3098
 7385TIP3    H243647   3.096   0.481   2.300  0.6499  0.4860 -1.0085
 7386TIP3   OH243648   5.174   0.490  11.408 -0.0324  0.4413  0.3991
 7386TIP3    H143649   5.176   0.583  11.386  0.1011  0.3803  0.1437
 7386TIP3    H243650   5.083   0.464  11.395 -0.7296  1.1756  3.2298
 7387TIP3   OH243651   5.353   4.266   4.047 -0.1911 -0.2854  0.8523
 7387TIP3    H143652   5.392   4.285   3.962 -0.3229 -0.7216  0.6921
 7387TIP3    H243653   5.426   4.273   4.109 -0.2547  0.8349  0.8197
 7388TIP3   OH243654   2.543   0.037  13.818  0.6858 -0.0735  0.0973
 7388TIP3    H143655   2.493   0.094  13.878  0.8885  0.2754 -0.0653
 7388TIP3    H243656   2.481   0.016  13.749  0.6470  0.0511  0.0936
 7389TIP3   OH243657   3.244   0.175  14.455 -0.4293  0.2192  0.1750
 7389TIP3    H143658   3.257   0.137  14.368 -2.2025  0.3698 -0.1884
 7389TIP3    H243659   3.213   0.103  14.509 -0.0781  0.3012  0.4918
 7390TIP3   OH243660   1.186   1.328   0.524 -0.1350 -0.1381  0.4624
 7390TIP3    H143661   1.262   1.372   0.562  0.0080  0.0526 -0.0303
 7390TIP3    H243662   1.178   1.247   0.574  2.5764 -1.9268 -1.6738
 7391TIP3   OH243663   0.412   3.638  16.393  0.1246 -0.1408  0.1312
 7391TIP3    H143664   0.352   3.684  16.335  0.3935  0.3475  0.2368
 7391TIP3    H243665   0.362   3.627  16.474  0.8127  2.0474  0.9329
 7392TIP3   OH243666   5.423   4.054  14.070  0.0556 -0.0256  0.0264
 7392TIP3    H143667   5.424   4.004  14.152 -1.2632  1.2208  0.8765
 7392TIP3    H243668   5.416   4.146  14.099 -1.5655  0.3706 -1.4640
 7393TIP3   OH243669   2.631   0.850  13.589 -0.3394 -0.6514 -0.1695
 7393TIP3    H143670   2.693   0.920  13.569 -1.3871  0.0790 -0.9743
 7393TIP3    H243671   2.547   0.894  13.599 -1.0806 -1.8289 -0.9514
 7394TIP3   OH243672   4.245   2.516   2.343  0.3968  0.0197  0.5022
 7394TIP3    H143673   4.161   2.544   2.379 -0.1376  0.2922 -0.9068
 7394TIP3    H243674   4.269   2.584   2.281  1.3609 -0.3679  0.4232
 7395TIP3   OH243675   1.084   3.474   4.317  0.2320  0.1495  0.0058
 7395TIP3    H143676   1.060   3.536   4.248 -0.4176 -0.0112  0.0738
 7395TIP3    H243677   1.113   3.529   4.390 -0.1355  0.3722 -0.0128
 7396TIP3   OH243678   4.849   0.874  13.516  0.1127  0.0103 -0.6260
 7396TIP3    H143679   4.810   0.791  13.546  0.8317  0.2558  1.0901
 7396TIP3    H243680   4.859   0.926  13.595 -0.8698  2.0163 -1.7476
 7397TIP3   OH243681   2.555   6.359   5.333 -0.3222 -0.6666 -0.4912
 7397TIP3    H143682   2.639   6.369   5.378  0.4765 -4.3731 -0.8948
 7397TIP3    H243683   2.490   6.386   5.398  1.0088 -1.4985  1.2889
 7398TIP3   OH243684   1.063   1.905   5.719  0.0665  0.5635  0.3854
 7398TIP3    H143685   1.098   1.822   5.751  1.2347  0.8355 -0.1580
 7398TIP3    H243686   0.980   1.881   5.678  0.4635 -0.3562  0.0983
 7399TIP3   OH243687   2.040   3.567   1.881 -0.1839 -0.8165 -0.2622
 7399TIP3    H143688   2.110   3.556   1.816  1.5106  0.1951  1.3135
 7399TIP3    H243689   2.000   3.651   1.859  1.0428  0.0090  0.5378
 7400TIP3   OH243690   1.443   6.069  13.222  0.4733  0.1011 -0.1890
 7400TIP3    H143691   1.433   5.987  13.175 -1.3121  0.0373  0.2265
 7400TIP3    H243692   1.436   6.044  13.315  0.3300  0.6589 -0.0459
 7401TIP3   OH243693   6.271   0.680  17.093 -0.6018  0.1663 -0.4787
 7401TIP3    H143694   6.283   0.585  17.088 -1.3820  0.1144 -1.4605
 7401TIP3    H243695   6.359   0.716  17.084 -0.0122 -0.4947  1.8382
 7402TIP3   OH243696   1.784   5.319   5.325  0.0816 -1.0604 -0.6281
 7402TIP3    H143697   1.835   5.393   5.359  0.7422 -1.9286  0.3368
 7402TIP3    H243698   1.741   5.353   5.246  0.9704  0.1243 -0.6230
 7403TIP3   OH243699   1.096   2.422  10.550 -0.1045 -0.1139 -0.0159
 7403TIP3    H143700   1.039   2.492  10.582  0.6498  0.5970 -0.1694
 7403TIP3    H243701   1.057   2.342  10.583  1.1768  0.5727  3.7504
 7404TIP3   OH243702   3.515   6.447  11.460 -0.4876 -0.8559  0.2070
 7404TIP3    H143703   3.559   6.365  11.436 -0.7962 -1.2881  1.0658
 7404TIP3    H243704   3.515   6.499  11.380  0.8640 -1.1767 -0.0190
 7405TIP3   OH243705   4.464   6.018  14.363 -1.0527  0.7631  0.3336
 7405TIP3    H143706   4.555   6.021  14.393 -1.0804 -0.1120  0.5223
 7405TIP3    H243707   4.465   5.959  14.288 -1.5528  0.3265  0.6655
 7406TIP3   OH243708   4.014   4.296   4.752 -0.0395 -0.2670 -0.4643
 7406TIP3    H143709   4.007   4.233   4.681  1.5073  0.7132 -1.5511
 7406TIP3    H243710   4.003   4.381   4.709 -4.8332  0.2924  1.2992
 7407TIP3   OH243711   6.332   6.333  11.841 -0.5724  0.4607  0.4437
 7407TIP3    H143712   6.374   6.416  11.819 -1.3104  0.7640  0.1243
 7407TIP3    H243713   6.371   6.270  11.781 -0.2995  0.6634  0.4066
 7408TIP3   OH243714   3.703   2.171   3.237 -0.4226  0.0309 -0.5315
 7408TIP3    H143715   3.660   2.088   3.219 -0.7172  0.6604 -3.1112
 7408TIP3    H243716   3.753   2.190   3.157  1.7959  1.0556  0.9956
 7409TIP3   OH243717   4.982   2.523  10.499  0.0994 -0.0479 -0.2566
 7409TIP3    H143718   4.986   2.616  10.475 -0.9959 -0.1131 -0.7530
 7409TIP3    H243719   5.017   2.477  10.422 -0.0854 -0.0847 -0.3186
 7410TIP3   OH243720   5.911   2.048   0.158 -0.2537 -0.5634  0.1496
 7410TIP3    H143721   5.974   2.049   0.085 -1.6887 -0.0321 -1.1449
 7410TIP3    H243722   5.861   1.967   0.146 -3.0034  1.2230 -1.8249
 7411TIP3   OH243723   1.533   0.165   0.314  0.6754  0.3856  0.0515
 7411TIP3    H143724   1.578   0.120   0.243  0.9501  0.2763  0.2930
 7411TIP3    H243725   1.506   0.249   0.277 -1.4388 -0.6538 -0.9662
 7412TIP3   OH243726   5.762   1.318   3.363 -0.0936 -0.0279  0.1047
 7412TIP3    H143727   5.724   1.323   3.450 -1.3153 -0.8216 -0.3641
 7412TIP3    H243728   5.697   1.358   3.306  1.0565  1.2371 -0.3580
 7413TIP3   OH243729   0.951   6.702  14.455  0.4402 -0.3626  0.0274
 7413TIP3    H143730   0.929   6.711  14.362 -0.9578 -1.8724  0.1786
 7413TIP3    H243731   0.870   6.675  14.497  1.6935 -2.4562  1.2497
 7414TIP3   OH243732   3.528   6.440  14.084 -0.7094 -0.6216 -0.2940
 7414TIP3    H143733   3.536   6.402  13.996  0.0294 -0.3397 -0.3554
 7414TIP3    H243734   3.509   6.366  14.141 -0.8908 -0.8508 -0.6471
 7415TIP3   OH243735   4.337   0.868  14.977  0.0107 -0.7054  0.6108
 7415TIP3    H143736   4.400   0.877  14.907  0.9367  0.3117  1.5376
 7415TIP3    H243737   4.273   0.938  14.962 -1.3706 -2.1565 -0.7268
 7416TIP3   OH243738   1.382   1.126  11.983 -0.3954  0.0506  0.0510
 7416TIP3    H143739   1.325   1.091  11.914  0.8943  0.5271 -1.2971
 7416TIP3    H243740   1.459   1.069  11.982  0.1012  0.7059  0.3638
 7417TIP3   OH243741   2.270   4.286   4.173  0.7119  0.7483  0.4660
 7417TIP3    H143742   2.213   4.273   4.097  2.4694  0.0817 -0.8316
 7417TIP3    H243743   2.236   4.364   4.216 -0.5988  0.9002 -0.7637
 7418TIP3   OH243744   4.698   6.189   0.340  0.6561  0.6281  0.0130
 7418TIP3    H143745   4.629   6.198   0.274  1.1106 -2.1701 -1.0060
 7418TIP3    H243746   4.657   6.138   0.410  1.4095 -0.2649 -0.1854
 7419TIP3   OH243747   1.707   4.055  14.630  0.1512 -0.7670  0.0503
 7419TIP3    H143748   1.777   4.000  14.665  0.3910 -0.1986  0.4951
 7419TIP3    H243749   1.634   4.041  14.690  0.7194  0.5899  1.1505
 7420TIP3   OH243750   6.754   3.995  11.177 -0.1872  0.4223 -0.0688
 7420TIP3    H143751   6.744   3.926  11.243  1.1316  0.3631  0.0865
 7420TIP3    H243752   6.814   4.058  11.216 -0.0048  0.7768 -0.9066
 7421TIP3   OH243753   5.381   3.126   2.601  0.0136 -0.1087 -0.1018
 7421TIP3    H143754   5.387   3.032   2.584  1.4692 -0.2602  1.0217
 7421TIP3    H243755   5.472   3.155   2.606 -0.3823  0.9976  1.3444
 7422TIP3   OH243756   3.909   4.254  13.393  0.3886  0.2153 -0.0072
 7422TIP3    H143757   3.917   4.160  13.379 -2.3264  0.2089 -2.3336
 7422TIP3    H243758   3.923   4.293  13.307  0.1846  1.8219  0.6559
 7423TIP3   OH243759   2.782   5.171   3.192  0.5658  0.1325 -0.3741
 7423TIP3    H143760   2.865   5.143   3.230  0.5844  1.0697  0.3077
 7423TIP3    H243761   2.740   5.090   3.163  0.7736 -0.5719  1.2111
 7424TIP3   OH243762   3.440   3.016  16.379  0.4085 -0.0160  0.2805
 7424TIP3    H143763   3.365   2.961  16.358 -1.4921  2.5401 -0.2227
 7424TIP3    H243764   3.516   2.965  16.353 -1.3195 -1.5254 -2.2124
 7425TIP3   OH243765   0.756   1.520   3.031  0.0524  0.5484 -0.0774
 7425TIP3    H143766   0.793   1.587   3.089  0.2404  0.9918 -0.6986
 7425TIP3    H243767   0.666   1.509   3.061  0.0404  1.0316  0.0776
 7426TIP3   OH243768   4.302   0.789  13.319 -0.0515 -0.7184 -0.9892
 7426TIP3    H143769   4.229   0.829  13.367  0.0052  2.2419 -3.1147
 7426TIP3    H243770   4.380   0.833  13.354  0.2991 -0.9586 -1.4625
 7427TIP3   OH243771   1.625   2.669   3.587 -0.8048  0.2499 -0.0352
 7427TIP3    H143772   1.583   2.711   3.512 -2.1042 -0.1961  0.4130
 7427TIP3    H243773   1.709   2.637   3.554 -1.0606  0.6657 -1.1078
 7428TIP3   OH243774   1.137   2.104   2.025  0.3700 -0.0226  0.4647
 7428TIP3    H143775   1.043   2.101   2.044  0.1517  2.0613 -0.0799
 7428TIP3    H243776   1.179   2.074   2.105 -0.7477 -2.3376  0.2763
 7429TIP3   OH243777   6.135   2.364   2.171 -0.1101  0.1886  0.4676
 7429TIP3    H143778   6.055   2.327   2.134 -0.8023 -0.0558  2.1321
 7429TIP3    H243779   6.196   2.366   2.098 -1.2960 -0.6129 -0.5878
 7430TIP3   OH243780   3.717   3.423  14.490  0.7069 -0.2484 -0.2213
 7430TIP3    H143781   3.726   3.399  14.582 -0.5352 -1.3791 -0.3573
 7430TIP3    H243782   3.785   3.374  14.445  0.7227 -0.4101 -0.0214
 7431TIP3   OH243783   1.026   1.103  16.702  0.0003  0.0000 -0.3129
 7431TIP3    H143784   0.994   1.187  16.736 -0.3288 -0.1939 -0.1418
 7431TIP3    H243785   1.111   1.091  16.744  1.0075  1.2318 -1.8887
 7432TIP3   OH243786   3.608   1.594   1.955 -0.1454 -0.6520 -0.0060
 7432TIP3    H143787   3.545   1.625   2.019 -1.0640  0.9653 -1.6037
 7432TIP3    H243788   3.606   1.660   1.885  2.4647 -1.1441 -0.6606
 7433TIP3   OH243789   0.746   0.516   3.191  0.1450 -0.4614 -0.6701
 7433TIP3    H143790   0.729   0.436   3.240  0.1198 -0.6061 -0.9199
 7433TIP3    H243791   0.700   0.584   3.240  0.4739 -0.5365 -0.2473
 7434TIP3   OH243792   4.344   5.541  11.434 -0.2580  0.3220  0.9828
 7434TIP3    H143793   4.437   5.560  11.428 -0.2948  0.7678  1.7107
 7434TIP3    H243794   4.338   5.468  11.495 -0.2474 -1.0643 -0.5898
 7435TIP3   OH243795   4.777   4.135   2.755 -0.6250 -0.3358  0.0306
 7435TIP3    H143796   4.806   4.045   2.770 -0.2692 -0.4561 -1.2264
 7435TIP3    H243797   4.857   4.182   2.731 -0.9209  0.1576  0.0118
 7436TIP3   OH243798   5.209   2.608  15.048  0.7088  0.1334 -0.4026
 7436TIP3    H143799   5.282   2.594  15.108 -1.4863 -0.6292  2.3217
 7436TIP3    H243800   5.207   2.703  15.032 -0.4464  0.9264  3.4660
 7437TIP3   OH243801   0.864   3.076   5.777 -0.5080  0.5947  0.1736
 7437TIP3    H143802   0.816   2.992   5.774  0.9275 -0.2525  0.1213
 7437TIP3    H243803   0.798   3.140   5.803 -1.9141 -0.3502 -0.8998
 7438TIP3   OH243804   4.370   6.732  13.516 -0.6137  0.1114 -0.2946
 7438TIP3    H143805   4.455   6.705  13.481 -1.4685 -1.1912 -1.4569
 7438TIP3    H243806   4.389   6.763  13.605  1.0645 -0.1717 -0.5350
 7439TIP3   OH243807   1.474   5.562  12.022  0.0565 -0.2782  0.2507
 7439TIP3    H143808   1.441   5.523  12.103  1.9548  0.7595  1.6223
 7439TIP3    H243809   1.401   5.614  11.989 -0.5028 -0.0389  1.7693
 7440TIP3   OH243810   5.697   6.156   0.280 -0.3666  0.2870  0.1186
 7440TIP3    H143811   5.685   6.074   0.232  1.0187  0.6980 -0.9846
 7440TIP3    H243812   5.663   6.137   0.367 -0.1941 -1.4193 -0.1451
 7441TIP3   OH243813   5.561   0.749  11.797 -0.5054  1.1298  0.3784
 7441TIP3    H143814   5.537   0.838  11.824 -1.8557  0.4889  1.4436
 7441TIP3    H243815   5.598   0.709  11.876 -2.2340 -0.0075  0.6760
 7442TIP3   OH243816   2.975   0.092  16.929 -0.0803  0.1684  0.4361
 7442TIP3    H143817   2.937   0.017  16.883 -4.4816  1.1694  1.9002
 7442TIP3    H243818   3.025   0.138  16.863 -0.8523 -1.7785 -1.6371
 7443TIP3   OH243819   3.988   2.630  11.006 -0.9461 -0.1194 -0.2986
 7443TIP3    H143820   4.041   2.553  10.989  0.1601  0.3124  0.9704
 7443TIP3    H243821   3.960   2.661  10.920 -0.8725 -1.5479 -0.8523
 7444TIP3   OH243822   0.041   4.488   2.388  0.8024 -0.0834  0.3375
 7444TIP3    H143823  -0.039   4.522   2.429 -0.3130  1.1724 -2.6096
 7444TIP3    H243824   0.108   4.495   2.457 -1.3861 -0.3913  2.6493
 7445TIP3   OH243825   5.917   6.836   4.290 -0.0130 -0.0137  0.7421
 7445TIP3    H143826   5.842   6.777   4.293 -0.2156  0.1086 -0.8366
 7445TIP3    H243827   5.880   6.923   4.308 -0.6956  0.3617 -2.0090
 7446TIP3   OH243828   5.224   2.229   4.647  0.0010 -0.2294  0.3764
 7446TIP3    H143829   5.216   2.194   4.736  0.7639 -0.4054  0.3778
 7446TIP3    H243830   5.139   2.212   4.607 -0.4156  0.0185  1.1354
 7447TIP3   OH243831   1.591   4.630  16.384 -0.3415  0.2246  0.0851
 7447TIP3    H143832   1.547   4.708  16.350 -0.0131  0.5046  0.2927
 7447TIP3    H243833   1.587   4.567  16.312  0.8413  1.0078 -0.7053
 7448TIP3   OH243834   1.408   5.328  13.411 -0.0791 -0.2412 -0.1817
 7448TIP3    H143835   1.412   5.407  13.357 -0.3349 -1.0246 -1.4087
 7448TIP3    H243836   1.352   5.268  13.361 -1.7725 -0.4305  1.7771
 7449TIP3   OH243837   2.054   1.856  11.685 -0.0016 -0.0414 -0.0486
 7449TIP3    H143838   2.097   1.939  11.663 -0.3450 -0.0911 -0.9612
 7449TIP3    H243839   2.079   1.797  11.614 -0.7244 -0.3697 -0.0366
 7450TIP3   OH243840   1.677   2.126  13.708 -0.2134 -0.5346  0.2894
 7450TIP3    H143841   1.771   2.111  13.705 -0.1946 -0.7524  1.4327
 7450TIP3    H243842   1.668   2.218  13.733 -0.2728 -0.9655  1.9659
 7451TIP3   OH243843   1.882   4.309   0.357  0.7348  0.5031  0.3718
 7451TIP3    H143844   1.877   4.266   0.272  0.1966  0.4751  0.4096
 7451TIP3    H243845   1.928   4.391   0.340  0.4242  0.6045  0.0100
 7452TIP3   OH243846   5.717   4.009   4.681 -0.5413  0.0083  0.4153
 7452TIP3    H143847   5.709   4.032   4.588  0.8633  0.5815  0.4024
 7452TIP3    H243848   5.801   3.964   4.686 -0.3038  0.5566  1.5077
 7453TIP3   OH243849   0.039   5.136   4.419 -0.5738 -0.0225  0.1198
 7453TIP3    H143850   0.035   5.232   4.425 -0.2828  0.0115 -0.2334
 7453TIP3    H243851  -0.041   5.106   4.463 -1.3789  0.4249 -0.9924
 7454TIP3   OH243852   4.089   3.139   5.527 -0.0026  0.7331 -0.0022
 7454TIP3    H143853   4.013   3.190   5.557  0.8162  2.3280 -0.5509
 7454TIP3    H243854   4.153   3.148   5.598  0.6536  1.6279 -0.6939
 7455TIP3   OH243855   4.914   0.213   5.449  0.0838  0.8301 -0.3618
 7455TIP3    H143856   4.861   0.230   5.372  2.6822 -0.1804 -2.5395
 7455TIP3    H243857   4.937   0.120   5.442  1.2663  0.9735  1.0423
 7456TIP3   OH243858   1.520   5.655   3.240 -0.0738 -0.4782 -0.5466
 7456TIP3    H143859   1.541   5.686   3.152  2.0421  0.1357  0.0931
 7456TIP3    H243860   1.536   5.730   3.296 -1.7633 -0.7469  0.3611
 7457TIP3   OH243861   1.027   0.353   0.932  0.5500  0.2940  0.2347
 7457TIP3    H143862   0.999   0.444   0.922  1.4282  0.5905  0.4015
 7457TIP3    H243863   1.095   0.341   0.865 -0.2544 -0.5429 -0.4595
 7458TIP3   OH243864   0.096   2.530  14.243  0.1578 -0.2867  0.8640
 7458TIP3    H143865   0.132   2.455  14.291  1.3394  0.4118  1.1002
 7458TIP3    H243866   0.165   2.553  14.180  0.2198  1.2025  1.4509
 7459TIP3   OH243867   1.871   4.955  15.911 -0.1905  0.0948  0.3801
 7459TIP3    H143868   1.857   4.922  15.822  0.7309 -2.0489  0.9595
 7459TIP3    H243869   1.858   5.049  15.904  1.1002  0.1614 -2.2833
 7460TIP3   OH243870   5.315   6.131   4.890  0.1574 -0.1728 -0.2724
 7460TIP3    H143871   5.317   6.201   4.826 -1.7718 -1.1521 -1.4967
 7460TIP3    H243872   5.234   6.145   4.939 -0.5792 -1.8369 -0.9447
 7461TIP3   OH243873   5.912   4.426  15.108 -0.4074  0.0821 -0.2926
 7461TIP3    H143874   5.896   4.374  15.187 -0.1755  0.7120  0.1758
 7461TIP3    H243875   5.836   4.409  15.053 -1.5322  1.0817  0.8667
 7462TIP3   OH243876   5.120   6.606   4.004 -0.2086  0.7069 -0.5220
 7462TIP3    H143877   5.193   6.614   4.065 -1.6759  1.5714  1.2055
 7462TIP3    H243878   5.102   6.512   4.002  1.0244  0.4680 -1.0835
 7463TIP3   OH243879   4.254   1.077   5.752 -0.7311 -0.0441 -0.2176
 7463TIP3    H143880   4.218   1.141   5.814  0.5609 -0.1085  0.6315
 7463TIP3    H243881   4.295   1.131   5.684  1.3748  0.1191  1.0873
 7464TIP3   OH243882   1.569   0.649   1.369  0.3727 -0.0693  0.3637
 7464TIP3    H143883   1.589   0.731   1.413  0.4518  0.5606 -0.8016
 7464TIP3    H243884   1.475   0.635   1.384  0.4544 -0.0051  0.9397
 7465TIP3   OH243885   5.458   0.384  14.965  0.1456  0.4754 -0.4086
 7465TIP3    H143886   5.531   0.347  14.915 -0.3217  1.9076 -2.2639
 7465TIP3    H243887   5.498   0.446  15.026  0.4864  2.0143 -2.1146
 7466TIP3   OH243888   5.218   4.114   0.343 -0.6343 -0.6369  0.4183
 7466TIP3    H143889   5.177   4.029   0.327  0.4733 -0.9633 -0.8027
 7466TIP3    H243890   5.151   4.177   0.316 -0.3193 -1.1653 -1.7958
 7467TIP3   OH243891   3.939   1.747   3.695  0.6472 -0.5557 -0.0042
 7467TIP3    H143892   3.967   1.719   3.608  1.3148  0.6801 -0.2042
 7467TIP3    H243893   4.017   1.786   3.734  0.1652 -0.4461  0.8835
 7468TIP3   OH243894   0.646   3.399  14.583  0.3527 -0.3742  0.5113
 7468TIP3    H143895   0.660   3.480  14.534 -0.1538 -0.6903 -0.1828
 7468TIP3    H243896   0.713   3.400  14.652  0.0044  0.8880  0.8497
 7469TIP3   OH243897   1.817   5.166   2.360 -0.0217 -0.0429  0.0668
 7469TIP3    H143898   1.879   5.181   2.431 -0.7318 -0.8202  0.8826
 7469TIP3    H243899   1.853   5.091   2.313  1.3924  1.5520 -1.5358
 7470TIP3   OH243900   4.374   5.475   2.182  0.1194 -0.1787 -0.1820
 7470TIP3    H143901   4.419   5.394   2.205 -1.4200 -1.3290 -1.0146
 7470TIP3    H243902   4.284   5.448   2.165 -0.0570  1.4438 -2.1660
 7471TIP3   OH243903   5.651   1.543   5.873 -0.0897 -0.4305  0.2933
 7471TIP3    H143904   5.596   1.465   5.869  0.1608 -0.5709 -0.7233
 7471TIP3    H243905   5.714   1.532   5.801  0.9475 -0.0399  1.1010
 7472TIP3   OH243906   5.660   4.051  15.453 -0.0560 -0.4409 -0.0425
 7472TIP3    H143907   5.658   4.078  15.545  1.8224 -1.0860  0.2217
 7472TIP3    H243908   5.621   3.963  15.454  0.3134 -0.6069  0.2171
 7473TIP3   OH243909   4.802   1.938  12.872 -0.5867 -0.3725  0.1401
 7473TIP3    H143910   4.836   1.993  12.943  0.7275  1.1726 -1.6096
 7473TIP3    H243911   4.874   1.932  12.810 -2.1190 -0.5875 -1.6958
 7474TIP3   OH243912   4.494   1.295   1.320 -0.6573  0.5754  0.2807
 7474TIP3    H143913   4.532   1.269   1.404 -0.0208  0.2711 -0.0924
 7474TIP3    H243914   4.452   1.379   1.338 -1.3809  0.0482  1.1314
 7475TIP3   OH243915   2.782   3.836  11.005 -0.0490  1.2353  0.1846
 7475TIP3    H143916   2.833   3.868  10.930 -0.3100 -0.2073 -0.6440
 7475TIP3    H243917   2.711   3.900  11.015 -0.4207  1.0853 -1.2713
 7476TIP3   OH243918   1.585   0.804   4.720 -0.3852 -0.0400 -0.1174
 7476TIP3    H143919   1.586   0.849   4.635  1.3042  1.1094  0.4556
 7476TIP3    H243920   1.601   0.874   4.783  0.4404 -1.1744  0.9737
 7477TIP3   OH243921   2.578   5.283  14.088 -0.2930 -0.5468  0.2950
 7477TIP3    H143922   2.549   5.369  14.118  0.6969 -0.6127  1.4892
 7477TIP3    H243923   2.512   5.258  14.023 -0.2622  1.3680 -0.5531
 7478TIP3   OH243924   5.897   1.256  14.166  0.1680 -0.6251  0.2106
 7478TIP3    H143925   5.892   1.293  14.254  1.2040 -1.3418  0.5913
 7478TIP3    H243926   5.990   1.236  14.154 -0.2905 -2.7426 -0.1211
 7479TIP3   OH243927   0.382   4.786   0.174 -0.6220 -0.5182  0.3128
 7479TIP3    H143928   0.473   4.762   0.163 -0.6773  0.0856 -2.1305
 7479TIP3    H243929   0.384   4.865   0.228  0.1191 -1.4697  1.7398
 7480TIP3   OH243930   5.357   5.481   3.022 -0.3447  0.0895  0.1098
 7480TIP3    H143931   5.306   5.532   3.085 -0.9770 -1.5394  0.9648
 7480TIP3    H243932   5.411   5.423   3.076  2.3708  1.6542 -0.7777
 7481TIP3   OH243933   1.826   0.632  11.194  0.3140 -0.6863  0.1701
 7481TIP3    H143934   1.918   0.633  11.168 -0.2592 -0.4297 -1.9917
 7481TIP3    H243935   1.780   0.678  11.124 -1.3240  0.4646  1.8764
 7482TIP3   OH243936   6.356   2.445   4.641 -0.5013  0.1905 -0.3119
 7482TIP3    H143937   6.419   2.507   4.679  0.3105 -1.4860  1.2707
 7482TIP3    H243938   6.409   2.388   4.586 -0.8114 -0.5432  0.1396
 7483TIP3   OH243939   5.714   3.639   4.703 -0.6155 -0.4242  0.0408
 7483TIP3    H143940   5.696   3.701   4.774  3.5152  1.6212 -0.3508
 7483TIP3    H243941   5.678   3.680   4.625  1.0127  1.0523 -0.0159
 7484TIP3   OH243942   2.511   5.814  15.756  0.6463  0.5959 -0.1069
 7484TIP3    H143943   2.587   5.873  15.757  1.1660 -0.0559  0.5912
 7484TIP3    H243944   2.455   5.849  15.687  1.2979  1.4499 -0.2349
 7485TIP3   OH243945   6.434   3.659  14.877  0.1931 -0.1926 -0.2724
 7485TIP3    H143946   6.503   3.723  14.861  0.8976 -0.9790 -0.4761
 7485TIP3    H243947   6.427   3.611  14.794 -0.2300 -0.4686 -0.0809
 7486TIP3   OH243948   6.508   4.561   4.713 -0.0954  0.6346 -0.4370
 7486TIP3    H143949   6.451   4.485   4.723  1.2180 -0.2847  0.3574
 7486TIP3    H243950   6.449   4.636   4.721 -1.7875 -0.2122 -3.3237
 7487TIP3   OH243951   4.262   5.445   3.889 -0.1486 -0.0856  0.1789
 7487TIP3    H143952   4.205   5.496   3.831  0.6156  1.0174  0.3512
 7487TIP3    H243953   4.343   5.496   3.893  0.3422 -0.9005  1.0493
 7488TIP3   OH243954   5.157   6.098   0.871  0.6060  0.3351  0.2371
 7488TIP3    H143955   5.185   6.010   0.850 -1.5001 -0.2065 -0.5643
 7488TIP3    H243956   5.169   6.106   0.966  0.1573 -1.0814  0.4265
 7489TIP3   OH243957   3.620   6.735  11.474  0.1436 -0.3528 -0.6622
 7489TIP3    H143958   3.528   6.707  11.477 -0.2221  0.7549 -1.0107
 7489TIP3    H243959   3.643   6.734  11.381  0.3508 -0.2261 -0.6134
 7490TIP3   OH243960   0.610   5.467   0.118  0.2332  0.2054  0.5636
 7490TIP3    H143961   0.700   5.453   0.146  0.0288 -1.2311  0.5764
 7490TIP3    H243962   0.558   5.457   0.198  0.0941  1.6059  0.6676
 7491TIP3   OH243963   3.980   0.192  13.200  0.2644  0.7350 -0.2527
 7491TIP3    H143964   3.909   0.215  13.260  0.3924 -0.2672  0.3075
 7491TIP3    H243965   4.057   0.182  13.257  0.7729  1.4240 -0.8038
 7492TIP3   OH243966   1.697   1.142   1.378  0.1255  0.2711 -0.2913
 7492TIP3    H143967   1.730   1.080   1.314  0.2186  1.0438 -1.0142
 7492TIP3    H243968   1.648   1.206   1.326 -3.7579 -1.4989  0.7892
 7493TIP3   OH243969   1.362   2.678  12.031 -0.0144 -0.4216  0.8138
 7493TIP3    H143970   1.434   2.626  11.995  0.6525  1.0735 -0.1072
 7493TIP3    H243971   1.316   2.618  12.089 -0.3102 -2.5429 -1.4599
 7494TIP3   OH243972   3.868   0.030  11.502  0.1190 -0.2191 -0.1315
 7494TIP3    H143973   3.778   0.003  11.483  0.2865  0.8583 -2.8684
 7494TIP3    H243974   3.873   0.120  11.470  1.7621  0.3107  1.4798
 7495TIP3   OH243975   5.958   4.206   2.787 -0.1570  0.1610 -0.6459
 7495TIP3    H143976   5.913   4.125   2.810  0.8060  0.1611  1.4099
 7495TIP3    H243977   6.042   4.178   2.752  1.5848  0.1594  3.0701
 7496TIP3   OH243978   2.996   2.865  14.143  0.2774 -0.0881 -0.8843
 7496TIP3    H143979   2.910   2.887  14.107  0.3594 -0.8993 -1.6094
 7496TIP3    H243980   3.047   2.946  14.134 -0.6178  0.6454  0.2742
 7497TIP3   OH243981   6.436   3.498   5.301  0.3181 -0.0648  0.6341
 7497TIP3    H143982   6.520   3.506   5.346  0.4996  1.6435  0.0449
 7497TIP3    H243983   6.391   3.580   5.319 -0.5106 -0.2529 -0.4886
 7498TIP3   OH243984   3.356   0.493  11.744  0.4172  0.5272  0.7978
 7498TIP3    H143985   3.409   0.528  11.672  0.3076 -1.1198 -0.1346
 7498TIP3    H243986   3.397   0.409  11.764  0.5971  1.0493  2.8678
 7499TIP3   OH243987   1.056   3.521   1.154 -0.4656  0.2471 -0.2307
 7499TIP3    H143988   0.962   3.533   1.169 -0.1893  2.3896  0.0448
 7499TIP3    H243989   1.061   3.473   1.071 -1.8125  3.8254 -2.6000
 7500TIP3   OH243990   6.655   1.707   2.025 -0.3315  0.2719  0.2730
 7500TIP3    H143991   6.636   1.794   2.060  0.3425  0.0681  1.1702
 7500TIP3    H243992   6.730   1.720   1.967  0.0465  0.2232  0.7459
 7501TIP3   OH243993   6.357   2.420   6.465  0.2690  0.4704 -0.8670
 7501TIP3    H143994   6.443   2.439   6.428  1.8359 -0.2754  2.0501
 7501TIP3    H243995   6.376   2.386   6.553 -3.0387  0.6059  0.0322
 7502TIP3   OH243996   0.150   3.342   5.527 -0.1384 -0.0942 -0.2308
 7502TIP3    H143997   0.124   3.258   5.488 -2.3214 -0.8924  2.6204
 7502TIP3    H243998   0.215   3.319   5.593 -0.0292  0.6187 -0.0782
 7503TIP3   OH243999   0.635   2.029   1.390 -0.4855 -0.9317  0.0269
 7503TIP3    H144000   0.717   2.077   1.405 -0.6482  0.1751 -2.1784
 7503TIP3    H244001   0.569   2.097   1.378 -1.8795 -1.8029  2.1146
 7504TIP3   OH244002   1.232   2.110   4.099  0.4940  0.0639 -0.4304
 7504TIP3    H144003   1.231   2.193   4.051  2.0682  1.0772  1.1775
 7504TIP3    H244004   1.225   2.135   4.191  0.8364 -1.6086  0.0853
 7505TIP3   OH244005   0.219   3.693  11.619 -0.0488  0.1037  0.4412
 7505TIP3    H144006   0.244   3.759  11.683  2.0877  0.7268 -0.9166
 7505TIP3    H244007   0.246   3.609  11.658  1.6683  0.5177  0.2500
 7506TIP3   OH244008   1.153   0.896   2.056  0.0360 -0.8763 -0.2967
 7506TIP3    H144009   1.116   0.981   2.080 -3.1226 -2.1046 -0.2348
 7506TIP3    H244010   1.193   0.911   1.971 -1.1923  0.5497 -0.6765
 7507TIP3   OH244011   2.537   4.358   1.680  0.1201  0.1307  0.5742
 7507TIP3    H144012   2.541   4.367   1.584  0.3715 -0.0508  0.5685
 7507TIP3    H244013   2.581   4.275   1.698  1.2542  0.7958  0.9619
 7508TIP3   OH244014   5.457   6.533  12.668 -0.2889 -0.0991  0.7384
 7508TIP3    H144015   5.436   6.498  12.755  0.0897 -0.5284  0.6581
 7508TIP3    H244016   5.403   6.612  12.661 -3.1955 -1.9831 -0.1063
 7509TIP3   OH244017   2.899   2.665  15.749  0.3608  0.1161 -0.5683
 7509TIP3    H144018   2.969   2.609  15.717  0.0898 -2.1353  2.3443
 7509TIP3    H244019   2.878   2.722  15.675  3.3177 -0.9849 -2.4324
 7510TIP3   OH244020   3.625   2.163  11.931  0.3391  0.3330  0.1278
 7510TIP3    H144021   3.617   2.249  11.889 -1.3379  0.4988  0.7229
 7510TIP3    H244022   3.626   2.182  12.025 -2.1707 -0.3816  0.3497
 7511TIP3   OH244023   2.154   6.583   0.891  0.5054  0.2887 -0.2841
 7511TIP3    H144024   2.153   6.676   0.867 -1.1712  0.7053  1.2031
 7511TIP3    H244025   2.068   6.550   0.866  0.8321 -0.6967 -0.1604
 7512TIP3   OH244026   0.178   0.501   5.090 -0.0086  0.3737  0.4755
 7512TIP3    H144027   0.214   0.454   5.015 -2.8790 -0.4352 -0.5288
 7512TIP3    H244028   0.172   0.436   5.160 -0.3666  0.2597  0.3404
 7513TIP3   OH244029   1.294   4.823  14.463  0.1370  0.1576  0.1057
 7513TIP3    H144030   1.267   4.812  14.554  0.9131 -1.1208  0.2129
 7513TIP3    H244031   1.216   4.804  14.412  0.3320 -1.7550  0.4558
 7514TIP3   OH244032   3.735   1.304  11.244  0.0634  0.0289  0.0695
 7514TIP3    H144033   3.812   1.253  11.268 -1.5246 -1.2513  2.9182
 7514TIP3    H244034   3.673   1.239  11.210 -0.9321  0.4510  0.9987
 7515TIP3   OH244035   4.904   1.276  11.640 -0.1456  0.1245  0.4216
 7515TIP3    H144036   4.959   1.349  11.668 -1.0799  1.4084 -0.9379
 7515TIP3    H244037   4.881   1.231  11.721  0.3643  1.4170  1.3125
 7516TIP3   OH244038   2.336   5.716   2.502 -0.1171  0.1362  0.2903
 7516TIP3    H144039   2.272   5.657   2.462 -0.4358  0.1177  0.8159
 7516TIP3    H244040   2.397   5.736   2.432 -0.0173 -0.8091  0.0973
 7517TIP3   OH244041   4.985   4.960   4.694 -0.7710 -0.4704 -0.1081
 7517TIP3    H144042   4.959   5.032   4.753 -0.5077  0.0607 -0.6310
 7517TIP3    H244043   4.976   4.881   4.748 -1.6013 -0.1059  0.3045
 7518TIP3   OH244044   2.204   5.935  12.774 -0.1488  0.3750 -0.3411
 7518TIP3    H144045   2.186   5.966  12.863  1.9111  1.3426 -0.1981
 7518TIP3    H244046   2.162   5.999  12.717  0.0282  0.7587 -0.0491
 7519TIP3   OH244047   0.012   2.915  13.962 -0.0887  0.1074  0.0760
 7519TIP3    H144048  -0.001   2.957  13.877  1.3924  0.8848  0.1956
 7519TIP3    H244049   0.024   2.988  14.023  3.9762 -0.3008  0.0709
 7520TIP3   OH244050   3.528   1.709  15.339  0.2224  0.3742 -0.6887
 7520TIP3    H144051   3.579   1.720  15.259  0.1156  1.1915 -0.6431
 7520TIP3    H244052   3.594   1.703  15.409  0.2827  0.7583 -0.7107
 7521TIP3   OH244053   5.312   3.397   2.081  0.0953 -0.6844  0.0934
 7521TIP3    H144054   5.396   3.441   2.088 -0.1946 -0.1922  0.5751
 7521TIP3    H244055   5.260   3.450   2.021 -0.1514 -0.5311  0.4380
 7522TIP3   OH244056   1.224   5.548   0.007 -0.0405 -0.2744 -0.1550
 7522TIP3    H144057   1.315   5.518  -0.000 -0.0157 -0.3632  0.4979
 7522TIP3    H244058   1.197   5.523   0.095  0.2430  2.3633  0.7688
 7523TIP3   OH244059   0.521   1.597  14.746  0.0836  0.0315 -0.5017
 7523TIP3    H144060   0.535   1.692  14.752 -0.7673  0.1246  0.1749
 7523TIP3    H244061   0.601   1.560  14.784 -0.4743  0.5286  1.3100
 7524TIP3   OH244062   4.887   6.675   3.339  0.3869 -0.0027 -0.5449
 7524TIP3    H144063   4.867   6.646   3.250  0.0936  1.4582 -0.9812
 7524TIP3    H244064   4.809   6.722   3.367  1.5600  2.0999 -0.6507
 7525TIP3   OH244065   4.278   6.363   1.000  0.3532 -0.5893  0.2601
 7525TIP3    H144066   4.366   6.327   1.006  1.8099  2.7522  1.3784
 7525TIP3    H244067   4.291   6.456   0.985 -3.0593 -0.0972 -0.6366
 7526TIP3   OH244068   0.516   5.664   5.947 -0.0372  0.1620 -0.0207
 7526TIP3    H144069   0.447   5.716   5.988 -2.4383  0.3570 -3.8357
 7526TIP3    H244070   0.568   5.728   5.898 -0.2706 -0.4992 -1.1671
 7527TIP3   OH244071   2.855   3.214   5.675 -0.7235  0.6358 -0.0199
 7527TIP3    H144072   2.859   3.248   5.586  2.4243  1.5621  0.3630
 7527TIP3    H244073   2.896   3.281   5.729  1.1962 -1.6125  1.5006
 7528TIP3   OH244074   2.425   2.678  15.177 -0.2870  0.0557  0.0277
 7528TIP3    H144075   2.431   2.746  15.110 -1.0994 -0.9058 -1.0787
 7528TIP3    H244076   2.500   2.621  15.160  0.1475  0.4250  0.6760
 7529TIP3   OH244077   1.057   1.113  15.924 -0.6282 -0.9880  0.4607
 7529TIP3    H144078   1.092   1.057  15.993 -0.0924  0.2574  1.2403
 7529TIP3    H244079   1.108   1.194  15.930 -2.3695  0.1878  0.3985
 7530TIP3   OH244080   3.439   6.016   0.967  0.1471  0.0433 -0.1728
 7530TIP3    H144081   3.385   5.937   0.977 -1.1016  0.8480 -0.2802
 7530TIP3    H244082   3.440   6.056   1.053  1.1919 -0.3274 -0.0012
 7531TIP3   OH244083   5.402   5.134  16.269 -0.4522  0.1427 -0.1241
 7531TIP3    H144084   5.473   5.196  16.252  0.3015 -0.7082 -0.1690
 7531TIP3    H244085   5.446   5.054  16.297 -1.4351 -0.1920  0.5279
 7532TIP3   OH244086   2.162   5.972   6.007  0.1448  0.2428 -0.2536
 7532TIP3    H144087   2.249   6.002   6.034 -0.6783  2.0030  0.6119
 7532TIP3    H244088   2.164   5.878   6.020  1.1301  0.5364  2.1457
 7533TIP3   OH244089   6.597   0.052   0.109  0.5837 -0.3435  0.7107
 7533TIP3    H144090   6.565   0.071   0.197 -2.0411 -0.6716 -0.0971
 7533TIP3    H244091   6.566  -0.036   0.090 -0.9904  0.5731 -1.3835
 7534TIP3   OH244092   5.520   0.054   4.625  0.4700 -0.0969 -0.4246
 7534TIP3    H144093   5.615   0.052   4.633  0.5258  0.4859 -0.9055
 7534TIP3    H244094   5.489   0.007   4.703  1.1207  0.9942  0.5240
 7535TIP3   OH244095   3.297   3.738  11.964 -0.2161  0.4223 -0.0639
 7535TIP3    H144096   3.345   3.797  12.022 -1.9527  0.5825  1.2703
 7535TIP3    H244097   3.208   3.773  11.961 -0.4306 -0.1501 -2.0708
 7536TIP3   OH244098   1.911   1.882  11.072  0.4537  0.3806  0.3821
 7536TIP3    H144099   1.850   1.948  11.104 -0.5058 -0.2983  0.0242
 7536TIP3    H244100   1.919   1.819  11.144  1.7712  1.1260  0.9202
 7537TIP3   OH244101   1.604   2.708   3.849 -0.3793  0.2405 -0.1557
 7537TIP3    H144102   1.591   2.719   3.755  1.4443  0.1308 -0.4575
 7537TIP3    H244103   1.516   2.700   3.885 -1.2361  2.2895 -1.5994
 7538TIP3   OH244104   2.081   5.785   6.322 -0.0792  0.7143 -0.4896
 7538TIP3    H144105   2.092   5.868   6.369 -2.1335  0.7131  0.0865
 7538TIP3    H244106   2.050   5.724   6.389  1.5683 -0.6140 -0.8600
 7539TIP3   OH244107   0.491   2.095   1.029 -0.4525 -0.0097 -0.2907
 7539TIP3    H144108   0.427   2.102   0.959 -0.8648  1.2002  0.1867
 7539TIP3    H244109   0.460   2.154   1.097  0.2189 -0.7642  0.7040
 7540TIP3   OH244110   3.248   5.887   5.162 -0.0295 -0.1518 -0.0723
 7540TIP3    H144111   3.295   5.851   5.086  0.4220 -1.0652  0.6283
 7540TIP3    H244112   3.243   5.981   5.143  0.0348 -0.3652 -1.2553
 7541TIP3   OH244113   1.432   5.169   3.612  0.1435  0.2806 -0.0750
 7541TIP3    H144114   1.515   5.194   3.572  1.6688 -0.6769  2.2624
 7541TIP3    H244115   1.455   5.105   3.679 -2.5707 -0.4631  0.2983
 7542TIP3   OH244116   4.955   2.489  13.595 -0.8486 -0.3889  0.4430
 7542TIP3    H144117   5.043   2.475  13.560 -0.9970 -1.4104  0.4466
 7542TIP3    H244118   4.960   2.573  13.640  0.4360 -0.9595  1.4193
 7543TIP3   OH244119   3.497   6.669  14.881 -0.0424  0.6906 -0.2663
 7543TIP3    H144120   3.450   6.729  14.939  0.7683  0.0605  1.0815
 7543TIP3    H244121   3.525   6.597  14.938  1.3183  0.3420 -1.3164
 7544TIP3   OH244122   0.129   4.122  10.656  0.0130 -0.2098 -0.0190
 7544TIP3    H144123   0.147   4.209  10.621  0.2844 -0.3772 -0.3012
 7544TIP3    H244124   0.215   4.081  10.664 -0.2185 -1.0830 -1.5560
 7545TIP3   OH244125   1.079   5.499  15.201  0.0200  0.4862 -0.4207
 7545TIP3    H144126   1.129   5.423  15.229 -1.6662 -0.0223  1.4812
 7545TIP3    H244127   0.987   5.471  15.207 -0.5970  1.9488 -1.9452
 7546TIP3   OH244128   4.114   2.532   5.736  0.8761 -0.1658 -0.1857
 7546TIP3    H144129   4.058   2.460   5.765 -1.1348  0.4843 -2.1578
 7546TIP3    H244130   4.171   2.492   5.670  0.1830 -0.0851 -0.8384
 7547TIP3   OH244131   3.425   4.712  16.113  0.1609  0.0265 -0.5756
 7547TIP3    H144132   3.463   4.680  16.195 -1.5027 -0.4107  0.0537
 7547TIP3    H244133   3.340   4.668  16.107  0.0606  0.4015 -2.3146
 7548TIP3   OH244134   4.453   6.439   4.121 -0.0266 -0.2840 -0.1862
 7548TIP3    H144135   4.484   6.528   4.101  1.9416 -0.4967  1.5766
 7548TIP3    H244136   4.439   6.439   4.216  1.1456 -2.1413  0.0358
 7549TIP3   OH244137   1.959   2.729  11.505 -0.6531  0.2545  0.1351
 7549TIP3    H144138   1.929   2.758  11.592  0.0796  0.2815  0.3834
 7549TIP3    H244139   1.954   2.808  11.451 -3.6686 -0.3057 -0.5904
 7550TIP3   OH244140   1.190   6.060  13.752  0.4577 -0.0497  0.0829
 7550TIP3    H144141   1.243   6.130  13.792  1.1672  0.2312 -1.2975
 7550TIP3    H244142   1.200   5.986  13.812  1.2262  0.4518  0.5997
 7551TIP3   OH244143   0.537   6.132  15.716 -0.1136 -0.4321 -0.6581
 7551TIP3    H144144   0.617   6.169  15.753 -1.0714  1.6658 -0.5749
 7551TIP3    H244145   0.491   6.095  15.792  0.3961 -0.9935 -0.6054
 7552TIP3   OH244146   1.888   5.101   5.640 -0.0208  0.2752  0.1849
 7552TIP3    H144147   1.924   5.186   5.613 -0.1920  0.2996  0.0345
 7552TIP3    H244148   1.960   5.058   5.686 -0.5773  1.4397  2.3087
 7553TIP3   OH244149   4.426   4.541   3.635 -0.2372  0.2214 -0.5296
 7553TIP3    H144150   4.436   4.634   3.616 -0.1764  0.0992 -1.0905
 7553TIP3    H244151   4.412   4.538   3.730 -2.5765  0.9937 -0.7907
 7554TIP3   OH244152   0.974   4.198  15.574  0.0775  0.0913 -0.2730
 7554TIP3    H144153   1.011   4.256  15.641 -0.6283  0.6102 -0.3179
 7554TIP3    H244154   0.977   4.249  15.493 -0.2979 -0.0266 -0.3678
 7555TIP3   OH244155   4.376   2.254  12.805 -0.1967  0.2009  0.3018
 7555TIP3    H144156   4.280   2.258  12.813 -0.3126  0.2921 -1.0133
 7555TIP3    H244157   4.400   2.175  12.853 -0.8382  0.6189  1.3585
 7556TIP3   OH244158   0.533   1.476  16.487  0.0179  0.3826  0.0785
 7556TIP3    H144159   0.513   1.408  16.551  2.3500 -0.7886 -0.3322
 7556TIP3    H244160   0.453   1.528  16.482 -0.9429 -0.7177  2.3821
 7557TIP3   OH244161   2.662   0.205  14.534 -0.3725 -0.3846 -0.1205
 7557TIP3    H144162   2.633   0.157  14.610 -0.8180  0.1476  0.0518
 7557TIP3    H244163   2.742   0.160  14.506  0.6206  0.2648  1.5202
 7558TIP3   OH244164   4.327   0.292   4.928  0.7133  0.3802 -0.3182
 7558TIP3    H144165   4.343   0.313   4.836 -1.2282  1.5027 -0.4419
 7558TIP3    H244166   4.366   0.364   4.976 -1.0205  1.4460 -0.4545
 7559TIP3   OH244167   3.871   1.243   6.387  0.9432  0.0078 -0.0830
 7559TIP3    H144168   3.919   1.272   6.465 -0.1946 -0.1339  0.7114
 7559TIP3    H244169   3.779   1.250   6.413  0.5338  0.1319 -1.4954
 7560TIP3   OH244170   1.834   5.364  16.093  0.3536  0.1945  0.1869
 7560TIP3    H144171   1.919   5.337  16.059  0.3666  0.1526  0.2522
 7560TIP3    H244172   1.796   5.418  16.024  0.2112 -0.2105 -0.0548
 7561TIP3   OH244173   4.772   6.277   5.773 -0.6498  0.4523  0.1146
 7561TIP3    H144174   4.729   6.327   5.843 -0.5024 -0.7067  1.0734
 7561TIP3    H244175   4.757   6.185   5.797  1.3358  0.0143 -0.1711
 7562TIP3   OH244176   2.434   0.290  13.916 -0.5329  0.0026 -0.0931
 7562TIP3    H144177   2.408   0.362  13.973 -0.1561 -0.7723  1.0990
 7562TIP3    H244178   2.418   0.323  13.827  2.0943  2.6047  0.2244
 7563TIP3   OH244179   1.216   5.999   2.450  0.1943 -0.4621 -0.7469
 7563TIP3    H144180   1.274   6.059   2.404  0.4222  0.2453  0.4177
 7563TIP3    H244181   1.248   6.000   2.540 -1.4059 -0.3301 -0.1514
 7564TIP3   OH244182   1.814   4.918  13.795 -0.1109 -0.3230  0.0384
 7564TIP3    H144183   1.757   4.988  13.763 -1.5249 -1.5659 -0.2780
 7564TIP3    H244184   1.885   4.913  13.731  0.0787  0.8707  0.1304
 7565TIP3   OH244185   3.796   2.272  15.437 -0.0236 -0.2296  0.0392
 7565TIP3    H144186   3.822   2.201  15.496  0.7432 -0.3914 -0.4763
 7565TIP3    H244187   3.726   2.235  15.383 -0.3274 -0.2652  0.4592
 7566TIP3   OH244188   1.778   1.128   0.589  0.4341 -0.3703 -0.6804
 7566TIP3    H144189   1.740   1.215   0.596  2.3312  0.5240 -1.0322
 7566TIP3    H244190   1.712   1.077   0.541 -1.4644  0.3426  1.0273
 7567TIP3   OH244191   6.626   5.813   6.194 -0.7183 -0.0190  0.8105
 7567TIP3    H144192   6.533   5.821   6.173 -0.7461 -1.6407  0.2258
 7567TIP3    H244193   6.661   5.756   6.125  0.5109 -0.2148  1.5768
 7568TIP3   OH244194   5.101   5.512  15.278  0.2881  0.3930  0.2576
 7568TIP3    H144195   5.098   5.604  15.250 -0.9443  0.9845  2.1420
 7568TIP3    H244196   5.015   5.496  15.316  0.8829 -1.2039  1.0007
 7569TIP3   OH244197   0.478   3.794   3.090 -0.0605 -0.2293 -0.5979
 7569TIP3    H144198   0.462   3.845   3.170  0.6794 -2.4907  1.0673
 7569TIP3    H244199   0.392   3.756   3.069  0.2975 -1.9407  0.8439
 7570TIP3   OH244200   0.883   1.687   3.209 -0.5488 -0.1353 -0.5994
 7570TIP3    H144201   0.803   1.731   3.238  0.1141  0.5412  0.2664
 7570TIP3    H244202   0.945   1.700   3.280  0.5419 -0.0805 -1.5255
 7571TIP3   OH244203   0.898   0.868   5.943  0.0390 -0.0108 -0.2711
 7571TIP3    H144204   0.959   0.900   5.876 -0.1426 -0.3973 -0.6257
 7571TIP3    H244205   0.813   0.866   5.899  0.2780 -2.4795 -0.7864
 7572TIP3   OH244206   2.153   1.597  14.913 -0.0962 -0.1127  0.5336
 7572TIP3    H144207   2.079   1.605  14.974 -2.3676  0.6754 -2.1289
 7572TIP3    H244208   2.144   1.510  14.875 -1.9709  1.1909 -2.3683
 7573TIP3   OH244209   3.392   3.851   0.404 -0.2352  0.1595  0.2337
 7573TIP3    H144210   3.430   3.765   0.421 -2.4745 -1.0853 -0.6077
 7573TIP3    H244211   3.399   3.862   0.309 -2.5006 -0.4471 -0.0551
 7574TIP3   OH244212   6.693   0.925   2.976  0.0183  0.2590  0.3516
 7574TIP3    H144213   6.610   0.926   2.928 -0.2081  0.2050  0.7358
 7574TIP3    H244214   6.686   0.849   3.033 -0.2602  1.0469  1.4007
 7575TIP3   OH244215   0.796   5.651  11.113  0.2219  0.2222  0.4413
 7575TIP3    H144216   0.889   5.632  11.125  0.2428 -0.5516 -0.7075
 7575TIP3    H244217   0.794   5.733  11.064  0.2815  0.5247  0.9431
 7576TIP3   OH244218   4.039   3.716   2.282  0.2488 -0.2645  0.1241
 7576TIP3    H144219   4.008   3.805   2.272 -0.2835 -0.0367  2.9774
 7576TIP3    H244220   3.961   3.665   2.304  0.6210 -1.3613 -0.9710
 7577TIP3   OH244221   0.930   1.198   1.649 -0.3509  0.4213  0.3541
 7577TIP3    H144222   0.847   1.182   1.603 -0.4317  2.0879 -0.1535
 7577TIP3    H244223   0.913   1.167   1.739 -1.6954  1.1506  0.3834
 7578TIP3   OH244224   4.522   5.994   1.671 -0.1518  0.5766  0.5042
 7578TIP3    H144225   4.537   5.974   1.579  0.4523  1.0189  0.4964
 7578TIP3    H244226   4.441   5.947   1.694 -1.2240  1.7524 -0.6832
 7579TIP3   OH244227   2.596   3.427   5.840  0.3141 -0.0721  0.1156
 7579TIP3    H144228   2.518   3.482   5.849  0.8097  0.7975 -0.6611
 7579TIP3    H244229   2.563   3.339   5.826 -0.5117  0.1061  0.8212
 7580TIP3   OH244230   3.760   1.350  15.812 -0.5590 -0.1383  0.5444
 7580TIP3    H144231   3.687   1.391  15.765  2.1185  1.7945 -2.3259
 7580TIP3    H244232   3.804   1.296  15.746  1.6027  0.1532  1.6478
 7581TIP3   OH244233   5.775   1.626   2.655 -0.3559 -0.2472  0.2609
 7581TIP3    H144234   5.814   1.709   2.628 -0.8400  0.0533  0.4675
 7581TIP3    H244235   5.848   1.574   2.688 -0.2542  0.7012  1.6373
 7582TIP3   OH244236   1.374   1.514  10.383 -0.6845 -0.4668 -0.2814
 7582TIP3    H144237   1.440   1.444  10.385  0.5435  0.6302 -1.0860
 7582TIP3    H244238   1.294   1.472  10.416  0.5189 -1.7042  1.2340
 7583TIP3   OH244239   2.426   1.629   3.236  0.4727 -0.2574 -0.4686
 7583TIP3    H144240   2.365   1.688   3.279  1.6978  0.0868  0.8906
 7583TIP3    H244241   2.371   1.574   3.180 -0.9716  0.5167  0.1288
 7584TIP3   OH244242   3.849   1.653   1.381 -0.3546  0.0448 -0.0089
 7584TIP3    H144243   3.863   1.586   1.449  1.7160  0.6220  0.2175
 7584TIP3    H244244   3.878   1.734   1.422 -0.0299  0.5802 -1.2636
 7585TIP3   OH244245   6.809   4.516  15.579 -0.3283 -0.1619 -0.3487
 7585TIP3    H144246   6.719   4.500  15.608 -0.2493  0.8432  0.4928
 7585TIP3    H244247   6.808   4.607  15.548  0.7722  0.4317  1.2537
 7586TIP3   OH244248   6.219   2.126   0.287  0.5191  0.2705  0.1079
 7586TIP3    H144249   6.310   2.098   0.296  0.7408  0.5498 -1.0632
 7586TIP3    H244250   6.224   2.209   0.239 -0.3530  0.1697 -0.1772
 7587TIP3   OH244251   0.751   1.413   3.843  0.5860  0.0383 -0.0706
 7587TIP3    H144252   0.801   1.338   3.875  0.2881 -0.1060  0.0613
 7587TIP3    H244253   0.700   1.378   3.770  1.9732  0.5766 -1.3565
 7588TIP3   OH244254   4.209   0.412  11.057  0.3518  0.0245  0.7475
 7588TIP3    H144255   4.245   0.368  10.979 -0.1877 -0.8812  0.9986
 7588TIP3    H244256   4.250   0.499  11.056  0.0744  0.1678 -0.7520
 7589TIP3   OH244257   3.704   5.373   3.190  0.4883 -0.0136 -0.0186
 7589TIP3    H144258   3.779   5.333   3.236  0.1462  1.1289  1.6096
 7589TIP3    H244259   3.649   5.407   3.260 -0.5874  0.9054 -1.2764
 7590TIP3   OH244260   2.731   3.776  16.731  0.1432  0.2825 -0.5219
 7590TIP3    H144261   2.699   3.862  16.703  0.3772  0.1964 -1.0622
 7590TIP3    H244262   2.785   3.746  16.658  0.5983 -0.0345 -0.0622
 7591TIP3   OH244263   5.672   6.814  16.513 -0.1251  0.0223  0.1405
 7591TIP3    H144264   5.695   6.799  16.604 -1.5234  2.4480  0.9783
 7591TIP3    H244265   5.656   6.726  16.477  2.5582 -1.1707  1.5446
 7592TIP3   OH244266   5.900   0.920   2.110  0.1674 -0.3330 -0.3289
 7592TIP3    H144267   5.816   0.947   2.148 -0.6187  0.7045 -2.6131
 7592TIP3    H244268   5.876   0.850   2.049  1.1505 -0.8486 -0.1378
 7593TIP3   OH244269   5.651   5.209   3.748  0.2575  0.8422 -0.0059
 7593TIP3    H144270   5.616   5.173   3.667 -1.1426  1.9923  0.0416
 7593TIP3    H244271   5.708   5.140   3.783  0.2112  0.0071 -1.5245
 7594TIP3   OH244272   4.677   4.970  15.905 -0.1992  0.5070 -0.7262
 7594TIP3    H144273   4.745   5.031  15.934 -1.0837 -0.2070  3.7279
 7594TIP3    H244274   4.710   4.884  15.930 -1.4438 -0.1690 -1.3210
 7595TIP3   OH244275   5.250   4.778  14.579 -0.0143  0.6083 -0.2990
 7595TIP3    H144276   5.201   4.780  14.497 -0.1192 -1.5208 -0.3433
 7595TIP3    H244277   5.189   4.743  14.644  0.0841  2.2066  0.7120
 7596TIP3   OH244278   6.377   3.161  14.538  0.1961  0.3980  0.0906
 7596TIP3    H144279   6.451   3.207  14.578 -1.5378  2.2840  1.3438
 7596TIP3    H244280   6.321   3.231  14.505 -1.2376 -0.9494 -0.4427
 7597TIP3   OH244281   3.645   4.864  10.678  0.3149  0.3346 -0.1194
 7597TIP3    H144282   3.713   4.917  10.636  0.0934  0.5565 -0.2038
 7597TIP3    H244283   3.684   4.778  10.687  1.9458  1.2528  3.0075
 7598TIP3   OH244284   2.610   2.497  15.127  0.4630 -0.0773  0.0848
 7598TIP3    H144285   2.560   2.424  15.091  0.9582 -0.6365  0.5074
 7598TIP3    H244286   2.683   2.509  15.066 -0.7971  1.5288 -1.2006
 7599TIP3   OH244287   1.645   5.587  10.699  0.0162  0.0390 -0.4316
 7599TIP3    H144288   1.641   5.499  10.663  0.7431  0.8967 -2.8071
 7599TIP3    H244289   1.557   5.623  10.685  0.4584  0.5771 -2.0576
 7600TIP3   OH244290   6.105   6.550  11.597  0.0905 -0.3646 -0.2101
 7600TIP3    H144291   6.035   6.559  11.662 -0.1261  0.8189 -0.5721
 7600TIP3    H244292   6.139   6.462  11.610 -0.6952 -0.5456  0.7543
 7601TIP3   OH244293   6.073   2.795  12.279  0.2247  0.2099 -0.2295
 7601TIP3    H144294   6.125   2.798  12.198 -0.5907  1.2504 -0.7386
 7601TIP3    H244295   6.128   2.746  12.340  1.6392  0.9385 -0.8605
 7602TIP3   OH244296   3.854   2.347   1.638  0.5857  0.1024  0.3676
 7602TIP3    H144297   3.884   2.436   1.619  0.8173 -0.0211  0.1397
 7602TIP3    H244298   3.909   2.291   1.582 -2.1620  0.0449 -2.5539
 7603TIP3   OH244299   3.790   1.119   4.408 -0.1440  0.4442 -0.5180
 7603TIP3    H144300   3.750   1.055   4.349 -1.7008  0.5920  0.3274
 7603TIP3    H244301   3.801   1.073   4.491 -0.1757  0.9227 -0.2441
 7604TIP3   OH244302   3.226   5.901   1.593 -0.1234  0.2498 -0.2519
 7604TIP3    H144303   3.261   5.850   1.666 -1.4495 -0.1271  0.1524
 7604TIP3    H244304   3.209   5.835   1.525 -1.2771  0.2227  0.0511
 7605TIP3   OH244305   6.474   0.197  13.012 -0.0624 -0.2855 -0.1087
 7605TIP3    H144306   6.554   0.145  13.009  0.4489  0.5342 -0.9993
 7605TIP3    H244307   6.493   0.275  12.961 -2.5950 -1.7260 -3.7632
 7606TIP3   OH244308   3.731   5.858   4.501  0.0901 -0.4485  0.0275
 7606TIP3    H144309   3.705   5.769   4.523  0.3794 -0.5188  0.0951
 7606TIP3    H244310   3.827   5.855   4.500  0.1231  0.0374  0.7791
 7607TIP3   OH244311   4.348   0.355  14.130 -0.3459 -0.3145  0.8989
 7607TIP3    H144312   4.330   0.391  14.217 -1.1184 -0.8045  0.9497
 7607TIP3    H244313   4.308   0.268  14.131  1.3752 -1.1576  0.7365
 7608TIP3   OH244314   4.456   5.037  12.680  0.2795  0.6765 -0.1077
 7608TIP3    H144315   4.489   4.996  12.760  1.0025  0.8916 -0.2804
 7608TIP3    H244316   4.515   5.006  12.611 -2.1707 -2.0440 -1.1825
 7609TIP3   OH244317   5.000   0.059   2.187 -0.5959  0.0852 -0.2783
 7609TIP3    H144318   4.905   0.067   2.183 -0.6481  1.8759  2.2368
 7609TIP3    H244319   5.032   0.139   2.144 -0.3144  0.5740  0.8112
 7610TIP3   OH244320   1.521   4.268  13.453  0.7827 -0.1519 -0.0920
 7610TIP3    H144321   1.580   4.318  13.509  0.1084 -0.4340  0.9088
 7610TIP3    H244322   1.438   4.316  13.458 -0.0264 -1.6072  1.3154
 7611TIP3   OH244323   5.854   2.227   4.858  0.3109 -0.2283 -0.0361
 7611TIP3    H144324   5.788   2.158   4.864 -0.6987  0.5649 -1.3238
 7611TIP3    H244325   5.891   2.218   4.770  0.8163  0.3001  0.1117
 7612TIP3   OH244326   6.002   0.933   0.930 -0.0203 -0.4246 -0.4790
 7612TIP3    H144327   6.060   0.857   0.934  2.0606  0.9422 -2.1705
 7612TIP3    H244328   6.015   0.979   1.013 -0.4876 -1.3233  0.1075
 7613TIP3   OH244329   1.310   0.179   2.041 -0.2860  0.0590  0.3938
 7613TIP3    H144330   1.287   0.191   1.949  1.1012  1.0792  0.1471
 7613TIP3    H244331   1.231   0.203   2.089 -1.1762 -0.9325 -0.5196
 7614TIP3   OH244332   5.255   3.316  11.876 -0.4391 -0.0642 -0.4824
 7614TIP3    H144333   5.279   3.267  11.797  1.2812  0.8267 -0.5545
 7614TIP3    H244334   5.242   3.406  11.846 -0.6929  0.1034  0.1112
 7615TIP3   OH244335   6.781   1.991   4.020  0.4963  0.6423  0.2445
 7615TIP3    H144336   6.702   2.000   4.073  0.3434 -1.1627  0.3770
 7615TIP3    H244337   6.848   2.037   4.070 -0.2855  1.5336  0.5089
 7616TIP3   OH244338   4.933   6.062   0.294 -0.4388  0.2072  0.1070
 7616TIP3    H144339   4.949   6.035   0.384 -1.0519  0.8194  0.4116
 7616TIP3    H244340   4.857   6.121   0.299  1.1219  2.4316 -0.4263
 7617TIP3   OH244341   1.174   3.814  11.934  0.0228  0.2569 -0.2292
 7617TIP3    H144342   1.132   3.879  11.877 -2.1762 -0.2425  0.7253
 7617TIP3    H244343   1.146   3.838  12.022  0.1345 -1.2697  0.2443
 7618TIP3   OH244344   0.625   4.632   2.329 -0.7544  0.2191  0.6007
 7618TIP3    H144345   0.580   4.551   2.307  0.7878 -0.2604 -1.0073
 7618TIP3    H244346   0.579   4.699   2.278 -1.0057  0.0970  0.6641
 7619TIP3   OH244347   3.195   6.263  14.657  0.3567  0.5964 -0.0729
 7619TIP3    H144348   3.154   6.349  14.666  1.0086  0.8812  0.2196
 7619TIP3    H244349   3.286   6.278  14.680  0.0260 -0.6430  2.2630
 7620TIP3   OH244350   5.902   6.341  15.874  0.2804 -0.0061 -0.1708
 7620TIP3    H144351   5.929   6.270  15.933 -0.0391 -0.8694 -1.0330
 7620TIP3    H244352   5.816   6.314  15.842  0.9269 -0.1597 -1.9220
 7621TIP3   OH244353   5.769   1.267  15.026 -0.8566  0.1795 -0.6498
 7621TIP3    H144354   5.734   1.218  14.951  0.2413  1.0201 -1.7675
 7621TIP3    H244355   5.781   1.356  14.992  0.5065  0.3615  0.2565
 7622TIP3   OH244356   6.742   0.488   3.543  1.1063  0.5844  0.1291
 7622TIP3    H144357   6.770   0.443   3.463 -3.0734  0.3587 -1.4331
 7622TIP3    H244358   6.713   0.418   3.601  1.4260  0.9238  0.7079
 7623TIP3   OH244359   6.241   6.329   3.788  0.1926 -0.2323 -0.0318
 7623TIP3    H144360   6.324   6.357   3.750  0.1699  0.0511  0.1202
 7623TIP3    H244361   6.260   6.244   3.828  0.9053  0.6457  1.6184
 7624TIP3   OH244362   6.585   4.204  12.601 -0.5761  0.1088 -0.3599
 7624TIP3    H144363   6.638   4.249  12.534 -1.2345  1.7058  0.1520
 7624TIP3    H244364   6.643   4.198  12.677 -0.3500 -0.2976 -0.5609
 7625TIP3   OH244365   2.102   5.576  14.984 -0.0750  0.0762 -0.1277
 7625TIP3    H144366   2.027   5.610  15.032 -0.1207 -0.5092  0.2237
 7625TIP3    H244367   2.176   5.630  15.013  0.4916 -2.0292  2.8600
 7626TIP3   OH244368   3.570   2.793  13.363 -0.1686  0.3695 -0.3509
 7626TIP3    H144369   3.492   2.749  13.328  1.2030  0.2645 -3.6547
 7626TIP3    H244370   3.536   2.876  13.398 -1.9220 -0.1922 -0.5923
 7627TIP3   OH244371   6.183   5.962   0.733  0.6637 -0.3611 -0.3369
 7627TIP3    H144372   6.136   5.928   0.657  1.4683 -0.2930 -0.8719
 7627TIP3    H244373   6.183   5.889   0.795 -2.4416  0.4497  0.7948
 7628TIP3   OH244374   5.293   4.209  12.307  0.1696 -0.2124 -0.5511
 7628TIP3    H144375   5.246   4.273  12.254 -1.4135  0.4113  1.4781
 7628TIP3    H244376   5.362   4.259  12.349  0.4803 -0.3846 -0.8507
 7629TIP3   OH244377   1.467   4.094   0.111  0.1438 -0.6457  0.2305
 7629TIP3    H144378   1.550   4.067   0.071  0.2773 -1.1719  0.8420
 7629TIP3    H244379   1.426   4.012   0.138 -0.0144 -0.3119  1.0231
 7630TIP3   OH244380   1.619   5.958  15.923  0.5034 -0.1079 -0.1141
 7630TIP3    H144381   1.531   5.946  15.889  0.5298 -2.7033  0.4954
 7630TIP3    H244382   1.658   6.024  15.866 -1.3219 -0.0350 -1.3604
 7631TIP3   OH244383   3.634   4.939   3.502 -0.2665 -0.1676  0.0552
 7631TIP3    H144384   3.718   4.931   3.547  0.0300 -4.2066 -0.8217
 7631TIP3    H244385   3.569   4.920   3.570 -0.1655 -1.1851 -0.1254
 7632TIP3   OH244386   4.740   1.664   3.941 -0.4023 -0.2505 -0.9212
 7632TIP3    H144387   4.726   1.572   3.965  0.1960 -0.2713 -0.6138
 7632TIP3    H244388   4.653   1.701   3.934 -0.6210 -0.3008  1.1058
 7633TIP3   OH244389   4.202   5.272  15.210  0.4006  0.0656  0.1084
 7633TIP3    H144390   4.205   5.208  15.281 -2.5967 -0.0166  0.2760
 7633TIP3    H244391   4.164   5.350  15.250 -0.2974  0.3902 -1.1442
 7634TIP3   OH244392   6.486   2.329   0.486  0.4075  0.6648 -0.3767
 7634TIP3    H144393   6.420   2.302   0.550  1.2711 -0.2777  0.1606
 7634TIP3    H244394   6.499   2.251   0.431  2.0879  0.3185  0.4473
 7635TIP3   OH244395   4.913   3.787   1.919 -0.3362 -0.4309  0.2755
 7635TIP3    H144396   4.833   3.840   1.922 -0.5085 -0.5243 -1.3532
 7635TIP3    H244397   4.958   3.818   1.840  2.0827  0.7698  2.0009
 7636TIP3   OH244398   0.183   4.915   4.996  1.0323  0.1465  0.1545
 7636TIP3    H144399   0.206   4.824   4.979  1.1480 -0.0614  1.3673
 7636TIP3    H244400   0.199   4.927   5.089 -2.2695  0.3954  0.8308
 7637TIP3   OH244401   3.151   3.815  12.814 -0.5889  0.1996 -0.3325
 7637TIP3    H144402   3.229   3.783  12.859 -0.3110 -0.6503 -1.3611
 7637TIP3    H244403   3.182   3.836  12.726 -1.4085  0.3969 -0.5772
 7638TIP3   OH244404   1.761   0.101  12.059 -0.3519 -0.2132 -0.0537
 7638TIP3    H144405   1.845   0.137  12.085 -0.0592 -0.4741 -0.6097
 7638TIP3    H244406   1.745   0.029  12.121 -0.0817 -0.2729 -0.0516
 7639TIP3   OH244407   1.953   6.591   5.856  0.5013 -0.3915 -0.8423
 7639TIP3    H144408   1.933   6.594   5.762  0.7332  2.5001 -0.8899
 7639TIP3    H244409   1.901   6.662   5.894 -1.0514 -2.6595  1.5943
 7640TIP3   OH244410   4.766   5.993   5.809  0.7098 -0.2071  0.1081
 7640TIP3    H144411   4.700   5.933   5.776  0.8448 -0.8128  0.9081
 7640TIP3    H244412   4.812   5.944   5.877  1.5979  0.4052 -0.0291
 7641TIP3   OH244413   1.333   4.157   3.101 -0.2307 -0.6327 -0.4590
 7641TIP3    H144414   1.328   4.251   3.086 -0.9644 -0.5577  0.2152
 7641TIP3    H244415   1.249   4.134   3.139  1.1275 -0.9606  2.6331
 7642TIP3   OH244416   1.474   4.718   2.210 -0.3403  0.0603 -0.0176
 7642TIP3    H144417   1.448   4.810   2.218 -0.4772 -0.1349  2.7338
 7642TIP3    H244418   1.552   4.721   2.154  0.6108  2.0816  1.2627
 7643TIP3   OH244419   5.359   4.829   5.737  0.0670 -0.1581  0.1368
 7643TIP3    H144420   5.370   4.843   5.831  0.7244  1.5029 -0.1549
 7643TIP3    H244421   5.430   4.879   5.696 -1.4483  0.9320 -1.3218
 7644TIP3   OH244422   2.489   4.045   1.992 -0.1232  0.0056 -0.9129
 7644TIP3    H144423   2.495   4.037   2.088  1.9789  3.2427 -0.6237
 7644TIP3    H244424   2.402   4.011   1.971 -1.1654  0.2893  2.3272
 7645TIP3   OH244425   1.002   6.831   1.606  0.0889 -0.3573  0.1500
 7645TIP3    H144426   1.089   6.855   1.574  1.1701 -1.3147  2.1653
 7645TIP3    H244427   0.967   6.772   1.540  0.0909  1.5418 -1.6591
 7646TIP3   OH244428   6.463   5.044   3.227  0.3690  0.2113  0.3542
 7646TIP3    H144429   6.388   5.047   3.168 -0.2228 -0.7403  1.0245
 7646TIP3    H244430   6.488   4.952   3.230  0.5623  0.2851  1.3588
 7647TIP3   OH244431   0.531   4.619  15.490  0.2551 -0.2077 -0.2367
 7647TIP3    H144432   0.456   4.561  15.501  0.9611 -0.8615  1.5087
 7647TIP3    H244433   0.586   4.574  15.426 -0.3961 -0.1619 -0.8461
 7648TIP3   OH244434   5.394   1.557   2.964 -0.1018 -0.3508  0.1830
 7648TIP3    H144435   5.473   1.609   2.979  0.7185 -1.4221 -0.3305
 7648TIP3    H244436   5.423   1.484   2.910 -1.3211 -1.1199  0.5283
 7649TIP3   OH244437   4.464   5.615   3.587  0.4029  0.6906  0.7955
 7649TIP3    H144438   4.415   5.675   3.643  0.4767 -1.2682  3.0994
 7649TIP3    H244439   4.406   5.539   3.576  1.5536 -0.1951  0.6631
 7650TIP3   OH244440   4.584   0.001   1.980  0.0095  0.3000  0.2389
 7650TIP3    H144441   4.554  -0.036   1.897  1.4214  1.6079 -0.9074
 7650TIP3    H244442   4.556   0.093   1.977  0.9033  0.6048  0.7610
 7651TIP3   OH244443   3.816   2.236   2.952 -0.3004 -0.3328  0.1883
 7651TIP3    H144444   3.855   2.261   2.868 -1.2195 -0.3355 -0.2496
 7651TIP3    H244445   3.737   2.291   2.959 -0.1931 -0.2770  1.0859
 7652TIP3   OH244446   2.965   1.429  11.141  0.3960 -0.1925 -0.0121
 7652TIP3    H144447   3.020   1.392  11.210 -1.7320 -2.3020  0.6843
 7652TIP3    H244448   2.950   1.357  11.081 -0.2806  0.7942 -1.0798
 7653TIP3   OH244449   0.943   5.402   5.627  0.8536 -0.2277 -0.0433
 7653TIP3    H144450   1.011   5.366   5.570 -0.4540  0.7368 -2.3353
 7653TIP3    H244451   0.954   5.497   5.621 -0.7510 -0.0446 -0.5612
 7654TIP3   OH244452   2.032   2.811   5.128 -0.1094 -0.9161  0.2287
 7654TIP3    H144453   2.116   2.830   5.085 -0.1254  2.5371  1.3837
 7654TIP3    H244454   1.984   2.759   5.064  1.7372 -0.2535 -1.8394
 7655TIP3   OH244455   0.511   3.933  11.339 -0.0843  0.4290 -0.1077
 7655TIP3    H144456   0.582   3.871  11.323  0.9810  1.7933 -0.8485
 7655TIP3    H244457   0.532   4.008  11.285 -1.5676  1.2858  0.4531
 7656TIP3   OH244458   5.429   2.990  13.259  0.8636  0.0723 -0.3071
 7656TIP3    H144459   5.351   3.041  13.278  1.0890  0.1090  0.5673
 7656TIP3    H244460   5.501   3.043  13.293  1.3544  0.3819 -1.7483
 7657TIP3   OH244461   4.202   1.962  13.057 -0.0010  0.6876 -0.7845
 7657TIP3    H144462   4.293   1.933  13.062  0.3596  1.8982 -0.0904
 7657TIP3    H244463   4.157   1.916  13.128  1.0098  3.2462  1.7092
 7658TIP3   OH244464   3.639   1.552  11.183 -0.3054  0.1195 -0.4016
 7658TIP3    H144465   3.678   1.468  11.206 -1.4281  0.2466  2.3469
 7658TIP3    H244466   3.550   1.531  11.155 -0.7595  0.3744  0.7764
 7659TIP3   OH244467   6.510   0.438  12.871  0.3677  0.6443  0.0597
 7659TIP3    H144468   6.424   0.441  12.829  0.5859  2.7858 -0.3392
 7659TIP3    H244469   6.572   0.433  12.798  0.6295 -0.2786  0.3264
 7660TIP3   OH244470   0.981   3.793  15.583 -0.3652 -0.2906  0.2036
 7660TIP3    H144471   0.929   3.807  15.504 -1.5096 -0.6606  0.8630
 7660TIP3    H244472   0.950   3.859  15.645  1.4707  0.8845 -0.0597
 7661TIP3   OH244473   2.523   1.427   1.280  0.0236 -0.0383  0.0054
 7661TIP3    H144474   2.478   1.400   1.360 -1.2186 -0.7956 -0.9011
 7661TIP3    H244475   2.611   1.390   1.288  0.4215  1.1664  1.6619
 7662TIP3   OH244476   1.696   6.817   0.786 -0.3791 -0.5727  0.3345
 7662TIP3    H144477   1.659   6.747   0.732 -2.4868  0.4636  0.3136
 7662TIP3    H244478   1.715   6.887   0.724  2.8123 -1.4245  0.1822
 7663TIP3   OH244479   3.093   3.698   0.666  0.0014  0.1747  0.2559
 7663TIP3    H144480   3.066   3.614   0.630  0.4172  0.2194 -0.1794
 7663TIP3    H244481   3.189   3.695   0.663  0.0365  1.3480 -1.4470
 7664TIP3   OH244482   3.699   4.072   5.841 -0.6274  0.3468 -0.1953
 7664TIP3    H144483   3.716   4.124   5.919  0.1403 -0.0265 -0.1053
 7664TIP3    H244484   3.778   4.019   5.830 -1.3340 -0.6789 -0.3852
 7665TIP3   OH244485   6.430   4.312   4.119 -0.1663 -0.5074 -0.0740
 7665TIP3    H144486   6.506   4.256   4.109  1.0395  1.1282 -0.4887
 7665TIP3    H244487   6.399   4.295   4.208 -0.1456 -2.1439 -0.3478
 7666TIP3   OH244488   3.386   5.278   5.800  0.1018  0.0719  0.1550
 7666TIP3    H144489   3.294   5.257   5.818  0.9635 -1.1752  4.0451
 7666TIP3    H244490   3.418   5.205   5.748 -0.8078  0.0002 -0.3272
 7667TIP3   OH244491   0.630   3.820   0.226  0.0878  0.2291 -0.4589
 7667TIP3    H144492   0.582   3.854   0.150  0.8355 -0.4702 -1.2753
 7667TIP3    H244493   0.721   3.815   0.196  0.2504 -0.9567  0.1635
 7668TIP3   OH244494   3.621   1.501  16.969 -0.4654  0.3381  0.6371
 7668TIP3    H144495   3.562   1.566  17.006 -1.0370  0.7871 -0.9667
 7668TIP3    H244496   3.564   1.445  16.916  0.5933  1.2231 -1.5406
 7669TIP3   OH244497   2.760   0.543  15.738  0.7983  0.5911 -0.0910
 7669TIP3    H144498   2.673   0.548  15.698  0.3262  1.3122  0.9752
 7669TIP3    H244499   2.747   0.577  15.827  1.7743 -1.0817  0.7351
 7670TIP3   OH244500   4.613   5.797  10.795 -0.0632 -0.5442 -0.2266
 7670TIP3    H144501   4.696   5.750  10.797  0.9100  1.1223 -0.3019
 7670TIP3    H244502   4.629   5.873  10.739 -0.6929  1.4700  2.1319
 7671TIP3   OH244503   6.097   6.744  12.783 -0.4756 -0.0975  0.4856
 7671TIP3    H144504   6.154   6.818  12.801 -0.4762  0.4451 -1.4608
 7671TIP3    H244505   6.067   6.758  12.693 -0.1268 -2.6589 -0.1281
 7672TIP3   OH244506   3.517   6.393  13.214  0.4048  0.0093 -0.2613
 7672TIP3    H144507   3.501   6.487  13.205 -0.4230 -0.1832 -0.8759
 7672TIP3    H244508   3.439   6.360  13.258  1.5373 -0.1072  1.8039
 7673TIP3   OH244509   6.539   1.749   5.394 -0.8202 -0.3548  0.5205
 7673TIP3    H144510   6.588   1.773   5.472 -1.5236  2.7450  0.1122
 7673TIP3    H244511   6.504   1.831   5.360 -1.9280 -1.7855 -2.1538
 7674TIP3   OH244512   1.803   5.991  13.623 -0.3747  0.1597 -0.4887
 7674TIP3    H144513   1.839   6.042  13.550 -0.0246 -1.6827 -1.6836
 7674TIP3    H244514   1.711   5.976  13.598 -0.5648  0.4627  0.0163
 7675TIP3   OH244515   2.231   2.683   5.898 -0.2761  0.3213  0.1252
 7675TIP3    H144516   2.145   2.668   5.936 -1.4442  1.6769 -1.8092
 7675TIP3    H244517   2.233   2.628   5.820  0.4311  0.6258 -0.0795
 7676TIP3   OH244518   0.632   4.740   3.036 -0.3582  0.2801 -0.4812
 7676TIP3    H144519   0.570   4.742   3.109  0.5937  0.1272  0.3422
 7676TIP3    H244520   0.656   4.648   3.027 -1.2886  0.1253 -1.7226
 7677TIP3   OH244521   5.652   6.168  16.343  0.2743  0.0588  0.1295
 7677TIP3    H144522   5.664   6.118  16.261 -0.6875 -0.8920  0.5374
 7677TIP3    H244523   5.567   6.211  16.332  1.4364  2.3387 -0.5443
 7678TIP3   OH244524   1.122   6.120  12.040  0.1887 -0.1291 -0.1414
 7678TIP3    H144525   1.036   6.080  12.045 -0.4562  1.1683 -0.3449
 7678TIP3    H244526   1.165   6.095  12.122 -0.8236  0.1529  0.4938
 7679TIP3   OH244527   1.933   4.683   1.318  0.0743 -0.4629  0.8262
 7679TIP3    H144528   2.011   4.729   1.288  0.0981  0.5804  2.3337
 7679TIP3    H244529   1.951   4.665   1.410 -0.2795 -2.8419  0.4821
 7680TIP3   OH244530   6.378   1.948   3.070 -0.5215 -0.0683  0.0150
 7680TIP3    H144531   6.352   1.856   3.063  0.2815 -0.3048  0.0288
 7680TIP3    H244532   6.370   1.968   3.163  0.7870 -0.5927  0.2641
 7681TIP3   OH244533   4.020   2.562  12.967 -0.2174 -0.3489  0.5725
 7681TIP3    H144534   4.040   2.541  13.058 -0.7301  0.0373  0.7803
 7681TIP3    H244535   3.994   2.654  12.968  1.2377  0.0998 -0.2111
 7682TIP3   OH244536   6.096   3.062   5.381 -0.0972  0.2093 -0.2162
 7682TIP3    H144537   6.008   3.096   5.397  0.3206  0.6169  1.3761
 7682TIP3    H244538   6.149   3.140   5.363  0.1011  0.0378 -0.3807
 7683TIP3   OH244539   5.012   5.590   1.930  0.0227 -0.0815 -0.0279
 7683TIP3    H144540   5.008   5.529   1.856 -2.4594  1.2442 -1.0831
 7683TIP3    H244541   5.061   5.665   1.897  1.8173 -0.8068  0.8201
 7684TIP3   OH244542   5.510   3.193  16.922  0.0932  0.7861 -0.0457
 7684TIP3    H144543   5.481   3.184  16.832 -0.6066  0.4879  0.1997
 7684TIP3    H244544   5.431   3.218  16.970  0.0565 -0.7027  0.7487
 7685TIP3   OH244545   2.695   1.561   2.823  0.8333  0.0240 -1.2514
 7685TIP3    H144546   2.766   1.601   2.873  1.2683 -0.3123 -1.5902
 7685TIP3    H244547   2.686   1.474   2.860  1.6583 -0.4972 -2.2251
 7686TIP3   OH244548   4.830   2.159   2.454 -0.3747 -0.0076 -0.4831
 7686TIP3    H144549   4.887   2.087   2.484 -2.4249 -2.1329 -1.3338
 7686TIP3    H244550   4.790   2.193   2.534  0.1214 -0.2780 -0.1134
 7687TIP3   OH244551   6.606   2.335  15.227  0.0985 -0.5372  0.1231
 7687TIP3    H144552   6.514   2.308  15.217  0.2893 -1.1331 -0.1090
 7687TIP3    H244553   6.603   2.430  15.235 -0.6366 -0.6428  1.3130
 7688TIP3   OH244554   1.957   0.132   5.029  0.6494  0.2203  0.3439
 7688TIP3    H144555   1.975   0.043   5.058 -0.7528  0.5365  2.3862
 7688TIP3    H244556   2.015   0.187   5.083 -1.1460  0.7418  1.8565
 7689TIP3   OH244557   2.401   3.091   5.290  0.2904  0.0934 -0.4936
 7689TIP3    H144558   2.387   3.162   5.353 -1.4442 -1.8932  1.5614
 7689TIP3    H244559   2.390   3.132   5.204 -0.8666  2.2698  0.6060
 7690TIP3   OH244560   3.308   1.592   2.431  0.6251 -0.6580 -0.4618
 7690TIP3    H144561   3.278   1.505   2.455  1.2754 -1.3763 -2.1170
 7690TIP3    H244562   3.228   1.641   2.411  0.2511 -0.7956  0.6292
 7691TIP3   OH244563   1.811   3.591   0.468  0.2475  0.5646 -0.0572
 7691TIP3    H144564   1.841   3.584   0.559 -0.3216  2.6627  0.3341
 7691TIP3    H244565   1.721   3.558   0.470  0.7684 -0.9405 -0.2227
 7692TIP3   OH244566   5.673   5.390  14.857 -0.1797  0.3623 -0.6606
 7692TIP3    H144567   5.711   5.411  14.943  2.1788 -0.6296 -1.3723
 7692TIP3    H244568   5.640   5.301  14.866 -1.3713  0.8152 -0.3740
 7693TIP3   OH244569   3.650   4.651  16.303  0.4267 -0.0060  0.0591
 7693TIP3    H144570   3.693   4.734  16.321 -0.4893  0.0550  2.4320
 7693TIP3    H244571   3.666   4.598  16.382 -1.6342 -0.8901 -0.0472
 7694TIP3   OH244572   6.064   6.814   0.612 -0.3684  0.1976 -0.0091
 7694TIP3    H144573   6.099   6.888   0.562  0.6599 -1.1806 -1.4221
 7694TIP3    H244574   6.095   6.829   0.702  0.1320  1.2555 -0.3390
 7695TIP3   OH244575   0.791   1.160  12.431  0.5162  0.3156  0.2147
 7695TIP3    H144576   0.718   1.218  12.408 -0.2313  0.2539  2.2372
 7695TIP3    H244577   0.829   1.200  12.509  2.0177 -0.2275 -0.2073
 7696TIP3   OH244578   4.740   2.212   4.844  0.3819  0.2947 -0.1149
 7696TIP3    H144579   4.664   2.201   4.901  1.6559 -2.1833  1.2642
 7696TIP3    H244580   4.794   2.279   4.887  0.1675  0.2361  0.2431
 7697TIP3   OH244581   6.107   2.021  13.258 -0.4248  0.1662 -0.3454
 7697TIP3    H144582   6.176   2.084  13.238 -0.1194  0.3068  1.0711
 7697TIP3    H244583   6.147   1.958  13.317 -0.6182 -1.6228 -1.9922
 7698TIP3   OH244584   6.809   4.415   1.544  0.0531 -0.0229  0.5175
 7698TIP3    H144585   6.755   4.450   1.474  1.3244  0.3351 -0.3126
 7698TIP3    H244586   6.750   4.408   1.619 -2.0023 -2.6822 -1.1759
 7699TIP3   OH244587   1.586   2.339  10.631 -0.2437  0.7087 -0.2392
 7699TIP3    H144588   1.519   2.380  10.577  0.4003  2.6925  0.3787
 7699TIP3    H244589   1.655   2.405  10.638  1.4405 -0.9576 -0.1989
 7700TIP3   OH244590   6.728   0.838   2.077 -0.5120 -0.3599 -0.3102
 7700TIP3    H144591   6.767   0.860   1.993  0.1994  0.3944  0.1993
 7700TIP3    H244592   6.773   0.758   2.105  0.1716  0.0975 -0.0671
 7701TIP3   OH244593   5.072   5.526   4.258 -0.1192  0.0745  0.5234
 7701TIP3    H144594   5.063   5.431   4.245  0.2721  0.1929 -0.7333
 7701TIP3    H244595   5.009   5.564   4.197  0.9866  0.6516 -0.2869
 7702TIP3   OH244596   1.455   2.258  16.110  0.1162  0.2431 -0.2941
 7702TIP3    H144597   1.422   2.297  16.030 -1.1366  1.6571  0.8437
 7702TIP3    H244598   1.386   2.274  16.175  1.6868  0.4250  1.4250
 7703TIP3   OH244599   5.921   5.870  13.667 -0.4938 -0.0308  0.1660
 7703TIP3    H144600   5.958   5.782  13.662  0.3411  0.3644 -0.7758
 7703TIP3    H244601   5.969   5.912  13.739 -1.7651 -0.7152  1.4783
 7704TIP3   OH244602   6.313   4.676   3.849  0.5268  0.1599  0.4227
 7704TIP3    H144603   6.346   4.587   3.835 -0.2104 -0.1848  0.8203
 7704TIP3    H244604   6.322   4.690   3.944  0.5625  0.4803  0.3738
 7705TIP3   OH244605   5.847   3.612  14.995  0.2695  0.0170  0.4494
 7705TIP3    H144606   5.861   3.698  14.956  2.1864 -0.3168  0.3157
 7705TIP3    H244607   5.805   3.630  15.079 -4.0141  0.7626 -1.5554
 7706TIP3   OH244608   5.312   0.125  15.019 -0.0193  0.3932 -0.5276
 7706TIP3    H144609   5.352   0.198  14.971 -0.4918 -0.4853 -2.3847
 7706TIP3    H244610   5.385   0.066  15.036 -0.1402 -0.2866 -2.1542
 7707TIP3   OH244611   6.839   2.193  14.757  0.1102  0.0866 -0.0498
 7707TIP3    H144612   6.829   2.283  14.725 -0.0452  0.2414  0.4273
 7707TIP3    H244613   6.883   2.203  14.841  0.6877 -0.3303 -0.3036
 7708TIP3   OH244614   0.510   2.280   0.663  0.3959  0.3076  0.1609
 7708TIP3    H144615   0.436   2.242   0.710  2.3471 -1.7872  1.7211
 7708TIP3    H244616   0.564   2.320   0.730  0.9988  1.3085 -0.8813
 7709TIP3   OH244617   2.020   3.730  14.163  0.2415  0.0770  0.5351
 7709TIP3    H144618   2.005   3.809  14.113  1.0686  0.0989  0.3145
 7709TIP3    H244619   2.089   3.753  14.225  1.0381 -0.6766 -0.0421
 7710TIP3   OH244620   4.045   1.261  10.678 -0.0239 -0.2250 -0.2289
 7710TIP3    H144621   4.004   1.344  10.656 -1.4526 -1.0454 -0.8730
 7710TIP3    H244622   4.139   1.278  10.675 -0.2836  1.6833  1.0481
 7711TIP3   OH244623   4.538   3.365   4.912 -0.1580 -0.3043 -0.5893
 7711TIP3    H144624   4.469   3.360   4.846  0.1957 -1.1144 -0.9060
 7711TIP3    H244625   4.494   3.343   4.994 -0.8479  1.7793 -0.3208
 7712TIP3   OH244626   0.477   1.293   5.699 -0.9447 -0.4533 -0.1280
 7712TIP3    H144627   0.431   1.261   5.777  2.6258  0.3553  2.5842
 7712TIP3    H244628   0.502   1.213   5.652 -0.0435 -1.2520  1.5957
 7713TIP3   OH244629   4.783   1.949  13.287  0.4920 -0.2070 -0.1066
 7713TIP3    H144630   4.779   1.869  13.235  0.6349 -1.3648  1.5716
 7713TIP3    H244631   4.709   2.001  13.257 -0.4144 -1.5749 -0.3003
 7714TIP3   OH244632   5.688   3.524  12.935  0.7904  0.6248  0.4798
 7714TIP3    H144633   5.593   3.519  12.929  0.8763 -0.4316 -0.3948
 7714TIP3    H244634   5.705   3.553  13.024 -0.3627  1.8570  0.3362
 7715TIP3   OH244635   2.443   1.337   5.411 -0.3609  0.1127  0.3407
 7715TIP3    H144636   2.524   1.348   5.362 -0.5828  0.6113  0.0854
 7715TIP3    H244637   2.455   1.254   5.458 -0.1079 -0.3224 -0.4740
 7716TIP3   OH244638   4.541   2.600  15.985  0.4514  0.4216  0.4249
 7716TIP3    H144639   4.475   2.591  15.916  0.0538 -2.8453  1.0817
 7716TIP3    H244640   4.496   2.644  16.056 -0.9416 -1.2965  0.6659
 7717TIP3   OH244641   6.652   3.833  12.754 -0.3954  0.9241  0.1692
 7717TIP3    H144642   6.671   3.896  12.824 -0.7689  1.4693 -0.2161
 7717TIP3    H244643   6.580   3.872  12.704  1.5905  1.8836 -2.1623
 7718TIP3   OH244644   1.763   1.923  16.747  0.0643 -0.0053  0.2815
 7718TIP3    H144645   1.781   1.964  16.663 -0.9056 -0.9090 -0.3937
 7718TIP3    H244646   1.678   1.879  16.735  0.3201 -0.8808  1.4458
 7719TIP3   OH244647   3.414   1.107   1.518  0.4010 -0.0915  0.3317
 7719TIP3    H144648   3.399   1.064   1.434 -0.8056  0.8256  0.0345
 7719TIP3    H244649   3.497   1.072   1.549  1.1307 -0.0747 -1.4820
 7720TIP3   OH244650   2.840   3.997   6.282  0.4335  0.3184 -0.4565
 7720TIP3    H144651   2.774   3.980   6.350  0.3789  0.1113 -0.5600
 7720TIP3    H244652   2.918   4.022   6.330  0.1688  0.9464 -0.3436
 7721TIP3   OH244653   1.492   5.085  11.486 -0.2894 -0.0755 -0.6450
 7721TIP3    H144654   1.449   5.020  11.430 -1.0312  0.2251 -0.4490
 7721TIP3    H244655   1.425   5.153  11.498 -0.4679 -0.5196  1.2834
 7722TIP3   OH244656   0.604   4.125  16.355 -0.1084 -0.1116 -0.2505
 7722TIP3    H144657   0.669   4.083  16.411  1.0811  0.9260 -0.7988
 7722TIP3    H244658   0.617   4.219  16.370 -0.5706  0.1446 -1.3716
 7723TIP3   OH244659   2.596   2.221   3.982  0.0362 -0.7861 -0.0210
 7723TIP3    H144660   2.550   2.266   3.911 -1.3183 -1.7384  0.2029
 7723TIP3    H244661   2.688   2.241   3.967 -0.3170  0.0248 -1.3370
 7724TIP3   OH244662   1.533   2.202  11.672 -0.0303  0.2364  0.5555
 7724TIP3    H144663   1.531   2.213  11.577  0.7125 -1.7600  0.2823
 7724TIP3    H244664   1.449   2.238  11.702 -1.1592 -0.9122 -1.0752
 7725TIP3   OH244665   0.010   5.681  11.830  0.2255  0.7101 -0.2288
 7725TIP3    H144666   0.090   5.720  11.866  0.9515  0.9752 -2.0232
 7725TIP3    H244667  -0.034   5.753  11.786 -0.3109  0.2719 -0.4167
 7726TIP3   OH244668   2.346   3.532  15.463 -0.5997  0.0927  0.2971
 7726TIP3    H144669   2.377   3.613  15.503 -0.0797  0.0485  0.0018
 7726TIP3    H244670   2.293   3.560  15.388  0.6287  0.1733 -0.5796
 7727TIP3   OH244671   5.283   1.129   0.343 -0.3027 -0.2057  0.3953
 7727TIP3    H144672   5.350   1.184   0.383 -0.3351  0.6951 -0.7397
 7727TIP3    H244673   5.305   1.129   0.249 -1.3301 -0.6918  0.1427
 7728TIP3   OH244674   5.917   5.003   3.398  0.1471  0.3902 -0.1281
 7728TIP3    H144675   5.979   5.027   3.329  0.4113  2.5308  0.7618
 7728TIP3    H244676   5.966   5.017   3.480 -0.7662 -0.2062  0.5424
 7729TIP3   OH244677   6.856   2.676  11.774  0.3943  0.4284  0.1541
 7729TIP3    H144678   6.790   2.611  11.796  1.8053 -0.8930  0.6503
 7729TIP3    H244679   6.896   2.644  11.693  2.9850 -0.9323  1.8319
 7730TIP3   OH244680   0.630   1.570  16.814 -1.2895  0.8741  0.0357
 7730TIP3    H144681   0.601   1.518  16.889 -1.1886 -1.7886 -1.6654
 7730TIP3    H244682   0.549   1.594  16.769 -1.3097  1.9496  0.5976
 7731TIP3   OH244683   1.640   3.754  14.799 -0.1933 -0.0762  0.1904
 7731TIP3    H144684   1.631   3.725  14.708 -0.5421  0.9334 -0.1163
 7731TIP3    H244685   1.565   3.812  14.813  1.9182  2.9865 -0.1733
 7732TIP3   OH244686   3.482   3.077  13.695 -0.3693  0.1413 -0.2710
 7732TIP3    H144687   3.490   3.104  13.787 -0.2094  3.0364 -1.0479
 7732TIP3    H244688   3.508   2.985  13.695 -0.5098  0.0038  2.5843
 7733TIP3   OH244689   5.505   0.905   5.775  0.1669  0.0655  0.8150
 7733TIP3    H144690   5.587   0.876   5.735  0.6206  2.3057 -0.0069
 7733TIP3    H244691   5.529   0.931   5.864 -0.0345 -0.9679  1.1874
 7734TIP3   OH244692   1.474   2.561   0.698  0.4160 -0.6100  0.4728
 7734TIP3    H144693   1.513   2.624   0.638  0.9774 -3.0133 -1.8779
 7734TIP3    H244694   1.539   2.550   0.767  2.4517 -1.9686 -1.5482
 7735TIP3   OH244695   6.704   1.972  11.375 -0.2015  0.5653  0.7290
 7735TIP3    H144696   6.662   1.921  11.445 -1.2015  1.2625  0.6736
 7735TIP3    H244697   6.680   2.063  11.395  1.2130  0.9861  0.6096
 7736TIP3   OH244698   1.686   5.293   2.870 -0.4183 -0.2606  0.1990
 7736TIP3    H144699   1.674   5.382   2.836 -0.0365 -0.6423 -1.0167
 7736TIP3    H244700   1.703   5.304   2.963  2.9544  1.2326 -0.4595
 7737TIP3   OH244701   0.263   4.401  12.912 -0.3671  0.5803  0.2661
 7737TIP3    H144702   0.282   4.377  13.003  0.3129 -0.3791 -0.1077
 7737TIP3    H244703   0.175   4.366  12.897 -0.0204 -0.3098  0.2204
 7738TIP3   OH244704   0.769   5.004  11.924 -0.4366  1.2311  0.0340
 7738TIP3    H144705   0.844   4.967  11.972 -0.6492  1.1124  0.2788
 7738TIP3    H244706   0.795   4.999  11.832 -0.1390  1.1972  0.1162
 7739TIP3   OH244707   5.110   5.980   5.784 -0.1627  0.0647  0.1177
 7739TIP3    H144708   5.188   6.006   5.734 -0.9065  0.0157 -1.1211
 7739TIP3    H244709   5.109   5.884   5.776 -1.9135  0.1856 -2.4547
 7740TIP3   OH244710   0.702   2.591   0.476 -0.2208 -0.0763 -0.6261
 7740TIP3    H144711   0.724   2.514   0.423  0.3733 -0.0916 -0.3714
 7740TIP3    H244712   0.647   2.644   0.419 -0.9771 -0.8755 -0.6669
 7741TIP3   OH244713   0.792   0.847  13.940  0.2595  0.2705 -0.3362
 7741TIP3    H144714   0.772   0.808  13.855 -0.2463  0.3913 -0.2797
 7741TIP3    H244715   0.836   0.929  13.919 -0.6691  0.7415 -0.5149
 7742TIP3   OH244716   1.555   2.823   5.426  0.0844  0.0173  0.1888
 7742TIP3    H144717   1.494   2.750   5.410 -0.6570  0.5535  0.5264
 7742TIP3    H244718   1.633   2.799   5.377 -1.0681  0.2162 -1.9024
 7743TIP3   OH244719   3.983   3.733   3.356  0.0179 -0.2292 -0.0373
 7743TIP3    H144720   3.974   3.828   3.355 -0.7821 -0.2072  2.4800
 7743TIP3    H244721   4.043   3.715   3.428  0.1833 -1.6391 -0.5021
 7744TIP3   OH244722   4.803   6.509   4.904 -0.1044 -0.3515  0.1828
 7744TIP3    H144723   4.745   6.482   4.975 -0.2278 -0.5555  0.0041
 7744TIP3    H244724   4.754   6.489   4.824  0.7458 -1.7917 -0.0062
 7745TIP3   OH244725   0.373   6.368   5.355  0.3938  0.2508  0.1355
 7745TIP3    H144726   0.412   6.293   5.400  2.6535  1.5657  0.4821
 7745TIP3    H244727   0.417   6.371   5.270  0.4336  1.2634  0.1789
 7746TIP3   OH244728   0.684   1.661  13.894  0.5182  0.2067  0.1248
 7746TIP3    H144729   0.718   1.610  13.968  1.3485  1.4653  0.6494
 7746TIP3    H244730   0.758   1.665  13.833  0.9637  1.9101  0.7135
 7747TIP3   OH244731   0.811   4.809   6.218 -0.3203  0.9865  0.1801
 7747TIP3    H144732   0.848   4.806   6.307 -3.3555  0.5414  1.5502
 7747TIP3    H244733   0.779   4.899   6.208 -1.0022  0.7317  0.0105
 7748TIP3   OH244734   0.018   1.274   3.205  0.1439  0.9128 -0.7945
 7748TIP3    H144735  -0.019   1.349   3.251  1.3047  1.8352 -1.3079
 7748TIP3    H244736  -0.057   1.215   3.191 -0.8601  2.1157 -0.6685
 7749TIP3   OH244737   1.523   5.586  14.736  0.0535  0.2913  0.0755
 7749TIP3    H144738   1.481   5.628  14.661  0.0958  0.1636 -0.0205
 7749TIP3    H244739   1.604   5.550  14.702  0.0108  0.1185  0.1520
 7750TIP3   OH244740   6.247   1.042   1.231 -0.8557  1.0750 -0.7052
 7750TIP3    H144741   6.165   0.995   1.216 -0.8966 -0.0309  2.2692
 7750TIP3    H244742   6.243   1.069   1.323  1.7378  1.7594 -0.7139
 7751TIP3   OH244743   3.628   6.014   5.032  0.0753 -0.1081 -0.2244
 7751TIP3    H144744   3.551   5.956   5.035 -0.2267  0.2978 -0.0321
 7751TIP3    H244745   3.600   6.087   4.977  0.2753  0.1108 -0.0357
 7752TIP3   OH244746   1.138   1.850  14.219  0.2491 -0.6629  0.0309
 7752TIP3    H144747   1.200   1.910  14.178  0.6869 -2.0284 -1.3688
 7752TIP3    H244748   1.056   1.900  14.224  0.6061  0.0626 -1.0767
 7753TIP3   OH244749   3.337   2.211  12.911 -0.4752  0.4966 -0.4371
 7753TIP3    H144750   3.330   2.305  12.894 -0.8343  0.6248  0.3803
 7753TIP3    H244751   3.358   2.205  13.004  2.0686 -0.1625 -0.9782
 7754TIP3   OH244752   6.763   2.040   5.333 -0.2777  0.0944  0.1894
 7754TIP3    H144753   6.838   1.990   5.364 -0.3714 -1.1221 -1.4197
 7754TIP3    H244754   6.696   2.027   5.400  0.1231 -0.9137  0.4012
 7755TIP3   OH244755   5.383   6.637   3.571 -0.0960  0.2526  0.2035
 7755TIP3    H144756   5.360   6.544   3.579  0.6429 -0.2911 -2.6796
 7755TIP3    H244757   5.478   6.637   3.558  0.0200  1.4938  0.9518
 7756TIP3   OH244758   1.770   4.367   4.339 -0.8130 -0.5890  0.0335
 7756TIP3    H144759   1.723   4.384   4.420  1.1975  0.2115  1.0962
 7756TIP3    H244760   1.792   4.454   4.305  0.8722 -0.9312  0.1885
 7757TIP3   OH244761   1.539   2.485   4.622 -0.9223  0.1768 -0.0397
 7757TIP3    H144762   1.484   2.553   4.582 -1.1007 -0.2638 -0.5429
 7757TIP3    H244763   1.477   2.428   4.667 -0.6730  1.1380  1.6288
 7758TIP3   OH244764   3.981   3.431  11.950 -0.2287 -0.2700 -0.2499
 7758TIP3    H144765   3.911   3.369  11.969  0.6851 -0.8013  1.5927
 7758TIP3    H244766   3.939   3.501  11.900 -1.6130 -1.5841 -0.9929
 7759TIP3   OH244767   2.553   3.515  10.653 -0.3825 -0.2185  0.3738
 7759TIP3    H144768   2.495   3.510  10.576  0.8337  2.0458 -0.7787
 7759TIP3    H244769   2.639   3.487  10.620 -0.0900 -0.3796  1.2397
 7760TIP3   OH244770   4.026   1.129   1.268  0.0639 -0.0532 -0.1801
 7760TIP3    H144771   3.946   1.163   1.308  0.3045  0.6717 -0.2912
 7760TIP3    H244772   3.995   1.066   1.203 -0.5820  1.8003 -1.7928
 7761TIP3   OH244773   2.414   0.977  14.006  0.1561 -0.3945  0.5235
 7761TIP3    H144774   2.435   1.029  14.083  0.5504  0.3547 -0.0735
 7761TIP3    H244775   2.319   0.967  14.008  0.2216 -0.9684  1.4629
 7762TIP3   OH244776   0.680   4.292  15.979 -0.9460 -0.5646 -0.3482
 7762TIP3    H144777   0.636   4.217  16.020  2.2191 -1.5628  1.5637
 7762TIP3    H244778   0.752   4.252  15.930  0.5224  1.1670  0.3169
 7763TIP3   OH244779   6.828   2.941   6.074 -0.2895 -0.1823 -0.0576
 7763TIP3    H144780   6.876   2.867   6.112  1.2426  0.3372 -0.8825
 7763TIP3    H244781   6.892   3.012   6.070 -1.3594  0.7925 -0.5117
 7764TIP3   OH244782   2.680   2.283  16.632  0.2504 -0.0253  0.8528
 7764TIP3    H144783   2.714   2.320  16.551 -1.5958  0.5836  0.3007
 7764TIP3    H244784   2.662   2.191  16.611  0.6594 -0.1048  0.8549
 7765TIP3   OH244785   5.013   0.966   4.372 -0.1878 -0.6599  0.2802
 7765TIP3    H144786   4.994   0.911   4.296 -0.2288 -0.0650 -0.1490
 7765TIP3    H244787   5.005   0.907   4.447  1.0311 -1.5462 -0.2481
 7766TIP3   OH244788   2.397   3.585   5.925  0.2023  0.0876  0.9299
 7766TIP3    H144789   2.397   3.572   6.020 -0.7290  2.4342  1.3102
 7766TIP3    H244790   2.318   3.635   5.907 -0.8759 -2.2006 -1.4473
 7767TIP3   OH244791   1.442   6.124  12.175  0.0291 -0.3313  0.1733
 7767TIP3    H144792   1.418   6.187  12.243 -0.6261 -1.1109  0.6834
 7767TIP3    H244793   1.521   6.081  12.207 -0.1270 -0.5075  0.3277
 7768TIP3   OH244794   1.014   6.851   0.783 -0.4270 -0.5726  0.1253
 7768TIP3    H144795   1.076   6.878   0.851 -0.7561  2.3409 -0.6265
 7768TIP3    H244796   1.062   6.786   0.732  1.1551 -0.1301  0.9675
 7769TIP3   OH244797   3.552   5.857  14.176 -0.4627  0.0868 -0.3644
 7769TIP3    H144798   3.556   5.950  14.198  1.3422 -0.1733  0.6063
 7769TIP3    H244799   3.485   5.821  14.233 -0.3839  0.5968  0.0524
 7770TIP3   OH244800   0.562   5.711  12.007  0.5780 -0.6301  1.2800
 7770TIP3    H144801   0.604   5.795  11.989 -0.2961 -0.5806 -0.8084
 7770TIP3    H244802   0.481   5.734  12.053 -2.5946  0.4198 -4.0394
 7771TIP3   OH244803   1.385   4.637   5.378  0.0966  0.3894 -0.3456
 7771TIP3    H144804   1.384   4.553   5.425 -1.6798  1.0259  0.8701
 7771TIP3    H244805   1.391   4.703   5.447 -1.5174  1.3296 -1.0401
 7772TIP3   OH244806   4.806   6.005  13.702 -0.1905 -0.8403 -0.2251
 7772TIP3    H144807   4.718   5.988  13.738  0.4739 -0.8545  1.4909
 7772TIP3    H244808   4.852   6.050  13.772  1.4156 -1.4792 -0.8364
 7773TIP3   OH244809   0.022   3.442  14.197 -0.0523  0.4370  0.5233
 7773TIP3    H144810   0.082   3.513  14.222 -0.3157  1.1353 -0.7474
 7773TIP3    H244811  -0.062   3.467  14.234 -0.8252  2.2696 -2.1313
 7774TIP3   OH244812   2.886   5.216  13.212  0.7567 -0.0493  0.0973
 7774TIP3    H144813   2.808   5.233  13.266 -0.5678 -0.6848 -1.5068
 7774TIP3    H244814   2.887   5.121  13.201  0.4501  0.1164 -1.6895
 7775TIP3   OH244815   2.603   2.844  13.072 -0.6066  0.4077  0.3962
 7775TIP3    H144816   2.677   2.834  13.012 -1.3131  1.4939 -0.7199
 7775TIP3    H244817   2.563   2.757  13.075 -0.2902  0.2267 -0.3725
 7776TIP3   OH244818   0.599   3.519  13.342 -0.1863 -0.6140  0.4130
 7776TIP3    H144819   0.619   3.428  13.320  1.1463 -0.2286 -0.0780
 7776TIP3    H244820   0.612   3.567  13.260 -1.5875 -0.0706  0.4918
 7777TIP3   OH244821   3.427   4.033   3.225 -0.0300  0.1277 -0.0241
 7777TIP3    H144822   3.361   3.991   3.281 -0.5086 -0.0846 -0.7367
 7777TIP3    H244823   3.413   4.127   3.239  0.9284  0.0815  1.4402
 7778TIP3   OH244824   6.598   0.580  14.764 -0.0638  0.1649 -0.6401
 7778TIP3    H144825   6.523   0.545  14.811 -0.6956  0.7344 -1.2039
 7778TIP3    H244826   6.615   0.665  14.804  0.3061  0.0261 -0.4948
 7779TIP3   OH244827   5.458   3.262   0.744  0.0906 -0.4074 -0.5473
 7779TIP3    H144828   5.511   3.311   0.807  0.3445  0.4183 -1.3736
 7779TIP3    H244829   5.434   3.181   0.789  1.4656 -0.4728  0.0844
 7780TIP3   OH244830   5.475   2.211  12.629 -0.1805  0.8622 -0.4566
 7780TIP3    H144831   5.422   2.284  12.599  0.6442  1.3074 -0.8837
 7780TIP3    H244832   5.539   2.198  12.558  0.4297  0.5105  0.1468
 7781TIP3   OH244833   3.571   4.408   2.419  0.1789  0.7142 -0.1345
 7781TIP3    H144834   3.662   4.420   2.389  0.0825  2.0783  0.0261
 7781TIP3    H244835   3.579   4.355   2.498  0.9657  1.7677  0.5232
 7782TIP3   OH244836   2.762   5.563  15.612  0.4379 -0.1047  0.0301
 7782TIP3    H144837   2.791   5.649  15.581  2.0435 -0.1899  1.1530
 7782TIP3    H244838   2.777   5.565  15.707 -0.8160 -1.1417  0.2784
 7783TIP3   OH244839   3.863   1.157  14.193  0.1953  0.0768  0.6079
 7783TIP3    H144840   3.936   1.097  14.207 -0.4911 -0.7301  0.7462
 7783TIP3    H244841   3.885   1.203  14.112  0.1439 -1.2478 -0.1889
 7784TIP3   OH244842   0.137   0.979  13.850 -0.1507 -0.6567 -0.3517
 7784TIP3    H144843   0.194   0.941  13.782 -0.2725 -0.4795 -0.5535
 7784TIP3    H244844   0.111   0.904  13.904  1.2732 -0.5671  0.4997
 7785TIP3   OH244845   0.269   0.430  15.642  0.0125 -0.9392 -0.6790
 7785TIP3    H144846   0.337   0.470  15.696 -0.6477  2.0597 -1.8958
 7785TIP3    H244847   0.317   0.385  15.572  0.7993 -0.1098 -0.6851
 7786TIP3   OH244848   0.181   4.284   0.985  0.2169 -0.0014  0.4573
 7786TIP3    H144849   0.242   4.215   0.959 -0.3853 -0.9322  1.4311
 7786TIP3    H244850   0.230   4.338   1.047  0.5945  0.2743 -0.0786
 7787TIP3   OH244851   4.675   3.811   4.793  0.2713 -0.8933  0.2663
 7787TIP3    H144852   4.632   3.756   4.857 -2.0672  0.3438 -0.1353
 7787TIP3    H244853   4.615   3.884   4.780  1.5282 -0.1632 -1.9501
 7788TIP3   OH244854   1.124   1.365  13.543 -0.6409 -1.0416 -0.6027
 7788TIP3    H144855   1.161   1.375  13.456 -1.4403 -0.9144 -0.9403
 7788TIP3    H244856   1.186   1.309  13.590  1.1086  0.9129 -0.4335
 7789TIP3   OH244857   5.858   1.298  13.660  0.6986  0.1376 -0.1690
 7789TIP3    H144858   5.855   1.214  13.706  0.5089  0.6222  0.7333
 7789TIP3    H244859   5.867   1.274  13.568 -0.4337 -0.9065 -0.0426
 7790TIP3   OH244860   1.220   0.953   4.627 -0.1025  0.5553 -0.1008
 7790TIP3    H144861   1.267   0.892   4.569 -0.2449  0.9849 -0.6757
 7790TIP3    H244862   1.278   1.028   4.634  0.5317 -0.0375  1.4212
 7791TIP3   OH244863   4.654   2.150  16.422 -0.0486 -0.6553  0.4701
 7791TIP3    H144864   4.660   2.100  16.341 -0.1523 -0.2788  0.2309
 7791TIP3    H244865   4.745   2.170  16.445 -0.0632  0.1221 -0.1049
 7792TIP3   OH244866   6.594   5.664  13.150 -0.2928 -0.1612  0.1209
 7792TIP3    H144867   6.554   5.670  13.063  1.1789  0.3653 -0.5544
 7792TIP3    H244868   6.535   5.713  13.207 -1.1513 -0.2961 -0.6247
 7793TIP3   OH244869   6.238   5.300  16.118  0.1458  0.1805 -0.5247
 7793TIP3    H144870   6.323   5.327  16.085  0.1336  2.3637  1.0781
 7793TIP3    H244871   6.182   5.377  16.107 -1.8043 -1.3205 -1.9355
 7794TIP3   OH244872   3.332   5.241   0.112  0.2030  0.0859 -0.1917
 7794TIP3    H144873   3.347   5.236   0.017  0.0782 -1.4470 -0.1654
 7794TIP3    H244874   3.244   5.205   0.124  0.3836 -0.1334  0.5388
 7795TIP3   OH244875   3.128   4.340   6.465  0.1150  0.2686 -0.3712
 7795TIP3    H144876   3.060   4.407   6.472  0.1995  0.3537 -0.3717
 7795TIP3    H244877   3.201   4.373   6.517 -0.6604 -0.8582  1.5058
 7796TIP3   OH244878   3.415   1.631   2.149  0.2584  0.0193  0.0299
 7796TIP3    H144879   3.347   1.568   2.124  0.5755 -0.5550  0.6019
 7796TIP3    H244880   3.434   1.611   2.241  0.1551  1.1388  0.3187
 7797TIP3   OH244881   4.081   4.813   1.192  0.0828 -0.2534 -0.2580
 7797TIP3    H144882   4.140   4.860   1.133 -0.0622  1.5412  0.9509
 7797TIP3    H244883   4.063   4.875   1.262 -1.6381 -1.4805  0.4554
 7798TIP3   OH244884   6.834   0.247  16.509 -0.1515  0.3513  0.3417
 7798TIP3    H144885   6.882   0.317  16.554 -0.9621  1.1458  0.0144
 7798TIP3    H244886   6.847   0.266  16.416 -3.0161  2.0757  0.1514
 7799TIP3   OH244887   2.295   0.447   4.351 -0.2009  0.9648  0.0135
 7799TIP3    H144888   2.298   0.480   4.440  0.5950  2.3909 -0.5213
 7799TIP3    H244889   2.384   0.417   4.332 -0.8755 -1.5998  0.4729
 7800TIP3   OH244890   6.464   1.111  16.642 -0.1222 -0.5613  0.3974
 7800TIP3    H144891   6.451   1.047  16.712 -0.7116 -0.9627 -0.0728
 7800TIP3    H244892   6.398   1.179  16.658 -0.4938 -0.8309  0.0366
 7801TIP3   OH244893   6.359   2.439  14.794 -0.4269 -0.4192  0.1609
 7801TIP3    H144894   6.293   2.373  14.777 -1.4410  0.7473 -0.5856
 7801TIP3    H244895   6.342   2.508  14.730  2.0211 -0.4231 -0.6136
 7802TIP3   OH244896   1.715   0.913   2.621 -0.4371  0.2633  0.3042
 7802TIP3    H144897   1.636   0.866   2.595 -0.1732  0.2064 -0.4292
 7802TIP3    H244898   1.686   0.973   2.690 -1.3711  1.0462 -0.7222
 7803TIP3   OH244899   5.753   5.268   6.406 -0.5392 -0.1331  0.1491
 7803TIP3    H144900   5.837   5.239   6.440 -1.2176 -0.7547  1.3557
 7803TIP3    H244901   5.723   5.197   6.349 -1.0424 -0.7127  1.1154
 7804TIP3   OH244902   2.333   3.978  15.434  0.2211 -0.2445  0.1034
 7804TIP3    H144903   2.341   3.910  15.501 -0.3296 -0.8032 -0.3894
 7804TIP3    H244904   2.361   4.058  15.478  2.1339 -0.9865  0.3472
 7805TIP3   OH244905   2.113   4.366  17.055  0.3796  0.3661 -0.4632
 7805TIP3    H144906   2.162   4.448  17.049  0.5918  0.7357  3.6215
 7805TIP3    H244907   2.021   4.392  17.043  0.6151  0.7133 -1.6948
 7806TIP3   OH244908   6.049   2.787  13.275 -0.0119 -0.4199  0.7510
 7806TIP3    H144909   6.034   2.746  13.360  0.5834  1.6811  1.9435
 7806TIP3    H244910   6.098   2.867  13.295 -1.7575  1.3109 -1.3154
 7807TIP3   OH244911   4.492   0.601   4.541 -0.4736  0.2964  0.3958
 7807TIP3    H144912   4.497   0.581   4.447  0.9997  0.2420  0.4627
 7807TIP3    H244913   4.486   0.696   4.545  2.0071  0.5034  0.2701
 7808TIP3   OH244914   1.221   4.429   1.618  0.3277  0.0940  0.1292
 7808TIP3    H144915   1.312   4.457   1.608  0.0214  1.1426  0.0971
 7808TIP3    H244916   1.193   4.469   1.701  0.3020 -1.3842  0.8601
 7809TIP3   OH244917   0.582   1.885  14.682 -0.1336 -0.0199  0.2463
 7809TIP3    H144918   0.673   1.891  14.653 -0.1950  1.3134  0.2886
 7809TIP3    H244919   0.541   1.965  14.650 -1.3987 -0.7778 -0.0917
 7810TIP3   OH244920   3.794   5.280  15.122  0.0692  0.6642 -0.4568
 7810TIP3    H144921   3.793   5.321  15.035 -0.3690  0.0917 -0.7286
 7810TIP3    H244922   3.863   5.214  15.117 -0.1977  0.3855 -0.4881
 7811TIP3   OH244923   1.138   1.914  11.268  0.1847  0.0176  0.1522
 7811TIP3    H144924   1.078   1.903  11.342 -0.6167  1.3949 -0.2630
 7811TIP3    H244925   1.219   1.947  11.308  0.1646 -0.3747  0.5335
 7812TIP3   OH244926   4.974   1.104   2.241  0.3604  0.2441 -0.4850
 7812TIP3    H144927   4.965   1.196   2.268 -0.8768  0.1576 -0.5577
 7812TIP3    H244928   4.986   1.108   2.146 -1.6183  0.2654 -0.7683
 7813TIP3   OH244929   6.553   3.488  16.851 -0.0384  0.5182 -0.4133
 7813TIP3    H144930   6.495   3.479  16.775 -0.2123  0.9861 -0.3341
 7813TIP3    H244931   6.606   3.408  16.849 -1.6394 -0.6268  0.3344
 7814TIP3   OH244932   3.864   2.452   1.301  0.4015  0.1271 -0.0715
 7814TIP3    H144933   3.819   2.371   1.277  1.0304  0.5282 -2.9453
 7814TIP3    H244934   3.955   2.437   1.275  0.4096  1.9284 -1.2881
 7815TIP3   OH244935   0.401   2.022   2.672 -0.0461  0.3732 -0.0137
 7815TIP3    H144936   0.373   1.993   2.758 -0.0843  0.4573  0.0024
 7815TIP3    H244937   0.347   2.099   2.654 -0.4220  0.0376 -0.3438
 7816TIP3   OH244938   2.421   3.970  11.347 -0.5846  0.3383  0.0692
 7816TIP3    H144939   2.437   4.040  11.410  0.9446 -0.1334  0.2473
 7816TIP3    H244940   2.329   3.979  11.325 -0.5460  2.0996  0.4456
 7817TIP3   OH244941   1.857   1.002  13.597 -0.5198 -0.0424  0.2538
 7817TIP3    H144942   1.903   1.067  13.544  0.0393  0.5418  1.4220
 7817TIP3    H244943   1.773   1.042  13.618 -0.0853  0.4122  1.1617
 7818TIP3   OH244944   5.717   1.339   4.940 -0.0942  0.3500  0.5966
 7818TIP3    H144945   5.731   1.427   4.904 -0.0262  0.6044  1.2317
 7818TIP3    H244946   5.631   1.343   4.982 -0.9932 -0.4661 -1.0597
 7819TIP3   OH244947   3.251   4.126  15.365  0.4210 -0.5837  0.2400
 7819TIP3    H144948   3.288   4.160  15.446 -2.4665  0.4075  1.2401
 7819TIP3    H244949   3.246   4.031  15.379 -0.0123 -0.4257  1.2275
 7820TIP3   OH244950   3.584   0.754   3.435  0.6741 -0.0999  0.3607
 7820TIP3    H144951   3.538   0.671   3.449 -0.0871  0.3640  0.6757
 7820TIP3    H244952   3.672   0.739   3.470  1.3127 -1.5079 -1.6818
 7821TIP3   OH244953   5.085   1.397   5.188  0.0675  0.2865 -0.3741
 7821TIP3    H144954   4.998   1.365   5.165  0.5120  0.2351 -2.1035
 7821TIP3    H244955   5.110   1.455   5.117  1.0844  1.0405  0.5531
 7822TIP3   OH244956   1.317   3.435   1.215 -0.0416 -0.0903  0.1182
 7822TIP3    H144957   1.371   3.506   1.249  0.1405 -0.5512  0.8147
 7822TIP3    H244958   1.230   3.473   1.205 -0.1338  0.0228  1.2405
 7823TIP3   OH244959   5.841   4.165  11.463 -0.0668  0.7409  0.6707
 7823TIP3    H144960   5.847   4.069  11.459  1.7877  0.7987  1.1760
 7823TIP3    H244961   5.809   4.183  11.552 -1.0427  0.5975  0.3633
 7824TIP3   OH244962   2.035   4.286   3.554 -0.4220 -0.1052  0.0105
 7824TIP3    H144963   2.095   4.216   3.579  2.1770  1.0147 -2.5550
 7824TIP3    H244964   2.045   4.352   3.623  1.0002 -0.1218 -0.1576
 7825TIP3   OH244965   0.202   0.823   4.598  0.2249  0.4525 -0.2286
 7825TIP3    H144966   0.194   0.917   4.586 -0.7045  0.3269 -0.6829
 7825TIP3    H244967   0.128   0.786   4.549 -0.0471 -0.4506  0.8291
 7826TIP3   OH244968   2.807   3.485  10.548 -0.5492  0.0921 -0.3910
 7826TIP3    H144969   2.889   3.523  10.581 -0.1951 -0.8386 -0.1545
 7826TIP3    H244970   2.834   3.404  10.504 -1.1225  0.8285 -2.1771
 7827TIP3   OH244971   3.730   0.832   3.002  0.5974  0.4831 -0.2198
 7827TIP3    H144972   3.641   0.858   3.022  1.3574  1.1837  2.7432
 7827TIP3    H244973   3.727   0.804   2.911 -2.3984  1.4371 -0.5184
 7828TIP3   OH244974   3.933   4.958   1.565 -0.3735 -0.1577 -0.2546
 7828TIP3    H144975   3.882   5.010   1.626 -1.0492 -0.1366 -0.8217
 7828TIP3    H244976   4.022   4.995   1.569 -0.1582 -0.8021  1.4335
 7829TIP3   OH244977   1.193   5.897   5.282 -0.9965 -0.0734  0.3147
 7829TIP3    H144978   1.275   5.915   5.235 -1.5286  0.4030 -0.4587
 7829TIP3    H244979   1.212   5.920   5.373 -0.7228  1.5570 -0.1097
 7830TIP3   OH244980   1.264   6.762  14.849  0.0230  0.0153 -0.6710
 7830TIP3    H144981   1.189   6.770  14.908 -0.3612  0.4706 -1.2035
 7830TIP3    H244982   1.300   6.675  14.865 -0.5358 -0.1479 -0.3062
 7831TIP3   OH244983   6.001   0.338   3.712 -0.3819 -0.3328 -0.0883
 7831TIP3    H144984   5.989   0.255   3.758  1.0530  0.1233  1.1788
 7831TIP3    H244985   5.945   0.400   3.760  0.2778 -0.0974  0.3983
 7832TIP3   OH244986   4.649   6.578  16.516  0.0344  0.4067  0.0294
 7832TIP3    H144987   4.713   6.520  16.474 -0.0908  1.3239 -1.4907
 7832TIP3    H244988   4.565   6.549  16.481 -0.0662  1.2045 -0.4091
 7833TIP3   OH244989   2.932   0.208  13.548  0.1980  0.3998 -0.0467
 7833TIP3    H144990   2.981   0.264  13.608 -1.1265  3.0122 -1.2651
 7833TIP3    H244991   2.918   0.127  13.597  0.0285  2.0131  2.7875
 7834TIP3   OH244992   6.060   2.189   6.260 -0.1858 -0.3139  0.2890
 7834TIP3    H144993   6.102   2.181   6.345 -1.6879  0.7130  1.1783
 7834TIP3    H244994   6.004   2.266   6.268 -0.8853 -0.6036 -1.4035
 7835TIP3   OH244995   6.228   6.811  11.686 -0.5711  0.6097  0.2681
 7835TIP3    H144996   6.160   6.871  11.653 -0.8474  0.3760  0.4094
 7835TIP3    H244997   6.289   6.802  11.613 -1.0395  0.3017 -0.0950
 7836TIP3   OH244998   6.029   0.049   5.283 -0.3470 -0.1144  0.2098
 7836TIP3    H144999   6.018   0.036   5.188  0.7118  2.4120 -0.3599
 7836TIP3    H245000   5.940   0.068   5.314 -0.8417 -1.7851 -0.0682
 7837TIP3   OH245001   1.738   5.154  12.428  0.2470  0.0813 -0.1438
 7837TIP3    H145002   1.727   5.095  12.502  2.6565 -1.3164 -0.7874
 7837TIP3    H245003   1.773   5.234  12.467  0.2933 -0.1865  0.3767
 7838TIP3   OH245004   0.126   2.796   5.682 -0.2015  0.1670  0.1549
 7838TIP3    H145005   0.033   2.821   5.678 -0.4288 -0.7430 -0.4209
 7838TIP3    H245006   0.169   2.872   5.721 -1.1868  0.6097  0.4150
 7839TIP3   OH245007   6.002   6.751   3.015 -0.0741 -0.1465 -0.0943
 7839TIP3    H145008   5.921   6.754   3.066  0.7043  1.3618  1.1381
 7839TIP3    H245009   6.067   6.715   3.074  0.3277 -0.6542 -0.8302
 7840TIP3   OH245010   4.005   5.796  16.343 -0.1409  0.1566 -0.0032
 7840TIP3    H145011   3.991   5.712  16.298 -0.2065  0.8542 -1.3608
 7840TIP3    H245012   4.064   5.775  16.415 -0.9879 -1.2362  0.3458
 7841TIP3   OH245013   3.839   5.350   0.478 -0.1767  0.7114  0.1718
 7841TIP3    H145014   3.900   5.423   0.490 -0.7467  0.9564  1.7650
 7841TIP3    H245015   3.879   5.277   0.524  1.4220 -0.6880 -3.1317
 7842TIP3   OH245016   1.836   0.736   3.600 -0.0584  0.1955 -0.0983
 7842TIP3    H145017   1.746   0.754   3.572  0.5999  2.5209 -0.9665
 7842TIP3    H245018   1.859   0.653   3.558 -1.1303  0.5855 -1.5166
 7843TIP3   OH245019   1.567   0.481  16.479 -0.1089 -0.2725 -0.4218
 7843TIP3    H145020   1.587   0.417  16.411  2.4998  0.3381 -0.3411
 7843TIP3    H245021   1.633   0.550  16.468 -0.7583  0.7560  1.5590
 7844TIP3   OH245022   3.079   2.007  16.870  0.5671  0.0609 -0.0215
 7844TIP3    H145023   3.088   1.917  16.901 -0.5291 -0.0216  0.1172
 7844TIP3    H245024   3.101   2.004  16.777  0.2676 -0.4062 -0.0779
 7845TIP3   OH245025   0.214   5.121   0.779  0.7596 -0.5872  0.5836
 7845TIP3    H145026   0.263   5.199   0.752 -1.2269  0.1014 -1.3528
 7845TIP3    H245027   0.182   5.143   0.867  1.7703 -0.0309  0.8385
 7846TIP3   OH245028   3.230   3.177   4.538  0.3152 -0.3658  0.1276
 7846TIP3    H145029   3.252   3.088   4.510 -1.3938 -0.4539 -1.1085
 7846TIP3    H245030   3.231   3.228   4.457  1.2871  0.7683  0.8298
 7847TIP3   OH245031   3.716   0.877   5.173 -0.3829  0.2984 -0.5097
 7847TIP3    H145032   3.745   0.800   5.221 -0.5914  1.1962  1.1310
 7847TIP3    H245033   3.795   0.932   5.165 -0.3737  0.2033 -1.1068
 7848TIP3   OH245034   1.047   1.675  11.676  0.5697  0.1434  0.1368
 7848TIP3    H145035   1.125   1.632  11.644  0.9624  1.6231 -0.9959
 7848TIP3    H245036   0.974   1.630  11.633  0.8920 -0.1037 -0.1461
 7849TIP3   OH245037   5.092   0.664   5.405  0.3194  0.0615 -0.0064
 7849TIP3    H145038   5.012   0.677   5.456 -0.0812 -0.0962 -0.5880
 7849TIP3    H245039   5.094   0.571   5.386 -1.4921  0.5238 -3.3462
 7850TIP3   OH245040   5.670   5.806   4.947 -0.1144 -0.1098  0.2943
 7850TIP3    H145041   5.636   5.807   5.036 -0.8428  0.8150  0.0223
 7850TIP3    H245042   5.622   5.876   4.902 -1.2027 -1.7967 -1.3353
 7851TIP3   OH245043   5.850   2.204   1.743  0.0664 -0.2878 -0.1433
 7851TIP3    H145044   5.790   2.238   1.676  0.0399 -1.4419 -0.7225
 7851TIP3    H245045   5.799   2.208   1.824 -0.7517 -1.1088 -0.6017
 7852TIP3   OH245046   6.040   5.028   0.979  0.1122 -0.0983  0.1675
 7852TIP3    H145047   6.071   5.117   0.996 -1.9804  0.5481  0.8998
 7852TIP3    H245048   6.037   4.987   1.065  0.2923 -0.6164 -0.0699
 7853TIP3   OH245049   5.829   2.070  11.277  0.0864  0.9326  0.5003
 7853TIP3    H145050   5.790   2.031  11.199 -1.8225  1.1921  1.2711
 7853TIP3    H245051   5.863   2.154  11.247  0.4198  0.5291 -0.2798
 7854TIP3   OH245052   1.165   5.390   0.232 -0.0415 -0.1584  0.2918
 7854TIP3    H145053   1.193   5.412   0.321  0.0340 -0.9955  0.4849
 7854TIP3    H245054   1.204   5.305   0.215 -0.1434 -0.0528 -0.5120
 7855TIP3   OH245055   5.473   5.203  15.435 -1.0134 -0.2735 -0.7833
 7855TIP3    H145056   5.504   5.135  15.375 -0.6479 -0.6295 -0.2114
 7855TIP3    H245057   5.535   5.200  15.508 -2.2578 -0.8641  0.3085
 7856TIP3   OH245058   1.052   4.558   0.656 -0.0115 -0.0002  0.2982
 7856TIP3    H145059   1.073   4.606   0.576 -4.4996  2.5720  0.3254
 7856TIP3    H245060   1.033   4.469   0.627  1.1669  0.1312 -0.9918
 7857TIP3   OH245061   4.181   4.585   4.800  0.0265  0.0287 -0.1152
 7857TIP3    H145062   4.116   4.602   4.731 -0.5351 -2.3386 -0.2525
 7857TIP3    H245063   4.152   4.639   4.873 -2.5910 -1.4116  0.0537
 7858TIP3   OH245064   2.387   5.096  15.732  0.3252  0.1526 -0.0844
 7858TIP3    H145065   2.332   5.057  15.801  1.7080 -1.3798  0.1987
 7858TIP3    H245066   2.326   5.151  15.682 -0.9842  0.3034  1.5726
 7859TIP3   OH245067   6.569   6.496  11.675  0.2691 -0.0669 -0.4767
 7859TIP3    H145068   6.635   6.427  11.685  0.7551  0.1720 -1.7837
 7859TIP3    H245069   6.601   6.549  11.602 -1.5974 -0.2437 -1.4906
 7860TIP3   OH245070   2.909   1.790   3.278 -0.2774  0.0498  0.3089
 7860TIP3    H145071   2.968   1.865   3.284  1.4253 -1.2556  0.6424
 7860TIP3    H245072   2.897   1.761   3.369 -0.2564 -0.5766  0.1196
 7861TIP3   OH245073   3.380   1.695   4.757 -0.2520  0.1415  0.5416
 7861TIP3    H145074   3.417   1.672   4.672 -2.7546 -2.6195  0.0266
 7861TIP3    H245075   3.456   1.706   4.814  1.4314 -0.3777 -1.4775
 7862TIP3   OH245076   0.442   0.854   5.216  0.3121  0.4204  1.0353
 7862TIP3    H145077   0.459   0.916   5.146 -1.0814 -0.7491 -0.3962
 7862TIP3    H245078   0.490   0.775   5.190 -2.9995 -1.2545 -0.5756
 7863TIP3   OH245079   4.106   2.090   4.652  0.0192  0.2316 -0.2425
 7863TIP3    H145080   4.039   2.101   4.720 -1.2688  0.4384 -1.5074
 7863TIP3    H245081   4.178   2.047   4.698 -1.9021 -2.3293  0.6634
 7864TIP3   OH245082   1.291   3.808   0.163  0.3750  0.1379 -0.0024
 7864TIP3    H145083   1.220   3.777   0.220  1.1761  0.9810  1.5304
 7864TIP3    H245084   1.369   3.765   0.197  0.4796 -1.9619 -2.6100
 7865TIP3   OH245085   0.808   3.007  12.698 -0.4600  0.0159 -0.2749
 7865TIP3    H145086   0.721   3.031  12.668 -0.5668 -1.3846 -1.1852
 7865TIP3    H245087   0.797   2.920  12.738  0.4989 -0.1506 -0.3355
 7866TIP3   OH245088   6.288   5.380   0.418  0.5344  0.3651  0.1506
 7866TIP3    H145089   6.224   5.416   0.480 -1.6573  0.2259 -1.8680
 7866TIP3    H245090   6.334   5.312   0.468 -0.0511  1.2825  2.0400
 7867TIP3   OH245091   4.408   4.422  11.717 -0.4341 -0.1732  0.2274
 7867TIP3    H145092   4.451   4.338  11.728 -0.1214 -0.0890 -0.2837
 7867TIP3    H245093   4.460   4.467  11.650 -1.4191 -0.1473 -0.5672
 7868TIP3   OH245094   0.473   1.362   0.890  0.3412 -0.0066 -0.3024
 7868TIP3    H145095   0.525   1.415   0.829  0.4760 -4.1194 -4.3066
 7868TIP3    H245096   0.537   1.325   0.950  0.8487  0.9938 -0.2086
 7869TIP3   OH245097   2.439   3.720   0.980  0.4075 -0.2470  0.0024
 7869TIP3    H145098   2.447   3.712   1.075  1.7552 -2.1948 -0.2160
 7869TIP3    H245099   2.363   3.777   0.967 -0.8781 -1.3068  2.2288
 7870TIP3   OH245100   0.070   6.072  13.894 -0.4587 -0.8246  0.1045
 7870TIP3    H145101   0.022   6.131  13.951  0.2330 -0.7803  0.6592
 7870TIP3    H245102   0.036   5.985  13.914 -0.8971 -0.7058 -0.1191
 7871TIP3   OH245103   1.133   5.856  11.784  0.2686  0.0347  0.0490
 7871TIP3    H145104   1.067   5.792  11.758 -0.5075  0.5785  0.6491
 7871TIP3    H245105   1.146   5.911  11.708  0.1451 -0.1634 -0.1157
 7872TIP3   OH245106   5.128   0.097  12.495  0.8962 -0.7311 -1.0776
 7872TIP3    H145107   5.044   0.093  12.540  1.3892 -1.5572 -0.1886
 7872TIP3    H245108   5.159   0.186  12.509  0.9299 -0.9085  0.0393
 7873TIP3   OH245109   6.841   2.229   4.539 -0.0098  0.4358  0.0589
 7873TIP3    H145110   6.928   2.267   4.552  0.5950 -1.2249  1.1679
 7873TIP3    H245111   6.850   2.174   4.461 -0.0206  0.1937  0.2255
 7874TIP3   OH245112   6.622   0.792   0.925 -0.4845 -0.0833  0.1858
 7874TIP3    H145113   6.543   0.770   0.975 -1.6000  0.0702 -1.4208
 7874TIP3    H245114   6.683   0.720   0.942 -1.6802 -1.1614  0.0410
 7875TIP3   OH245115   5.618   6.339   1.468 -0.8758 -0.2272 -0.5246
 7875TIP3    H145116   5.554   6.407   1.488 -0.6586  0.2717 -1.4763
 7875TIP3    H245117   5.703   6.378   1.490 -0.8302 -0.5882 -0.0434
 7876TIP3   OH245118   5.713   0.005  15.884 -0.2220  0.7355  0.3447
 7876TIP3    H145119   5.730  -0.089  15.884 -1.7151  0.4314 -0.1607
 7876TIP3    H245120   5.729   0.033  15.794 -2.0579  0.4691 -0.1067
 7877TIP3   OH245121   2.415   2.892   3.026  0.2874  0.2992  0.4957
 7877TIP3    H145122   2.384   2.894   3.117 -0.2976  0.2496  0.3057
 7877TIP3    H245123   2.379   2.810   2.991  3.0940 -1.3209  1.0905
 7878TIP3   OH245124   6.244   0.834  16.534 -0.2647 -0.6560  0.0753
 7878TIP3    H145125   6.155   0.869  16.528  0.2954  1.3170  2.0747
 7878TIP3    H245126   6.261   0.829  16.628  1.4594 -1.8191 -0.2566
 7879TIP3   OH245127   5.669   1.851  17.005 -0.3647  0.5997  0.4480
 7879TIP3    H145128   5.709   1.938  16.996  3.1168 -0.8337  0.6035
 7879TIP3    H245129   5.682   1.829  17.097  0.6157 -0.8524 -0.0151
 7880TIP3   OH245130   4.778   1.810  15.427 -0.0133  0.5832  0.0506
 7880TIP3    H145131   4.717   1.812  15.500 -0.2395 -0.2239 -0.1050
 7880TIP3    H245132   4.848   1.753  15.456  0.4786  1.1839  0.0730
 7881TIP3   OH245133   1.843   5.751  16.323 -0.0973  0.4662  0.1130
 7881TIP3    H145134   1.805   5.731  16.237 -0.9583  1.5487  0.2217
 7881TIP3    H245135   1.770   5.787  16.374  0.3068 -0.5007  1.4359
 7882TIP3   OH245136   5.749   4.481   0.775 -0.3993  0.1607 -0.6028
 7882TIP3    H145137   5.669   4.433   0.754 -0.0940 -0.6174 -0.0746
 7882TIP3    H245138   5.726   4.532   0.853  0.1965 -1.7409  0.8873
 7883TIP3   OH245139   1.211   1.281  12.692 -0.2472  0.3380  0.2908
 7883TIP3    H145140   1.203   1.373  12.669 -1.1392  0.1686 -0.1574
 7883TIP3    H245141   1.213   1.235  12.608  0.4148 -0.0375  0.5046
 7884TIP3   OH245142   4.987   0.471   3.977  0.7536  0.1004  0.0083
 7884TIP3    H145143   5.070   0.471   4.024  1.2819  2.4312 -0.8180
 7884TIP3    H245144   4.973   0.563   3.952 -2.4941 -0.0231  0.8665
 7885TIP3   OH245145   2.244   4.066   4.575 -0.2094  0.6661  0.3528
 7885TIP3    H145146   2.193   4.051   4.496 -0.1495  0.6935  0.3090
 7885TIP3    H245147   2.268   4.159   4.571  1.9982  0.1339 -0.9202
 7886TIP3   OH245148   6.582   2.135  13.914  0.0950  0.2141 -0.2989
 7886TIP3    H145149   6.556   2.043  13.912  0.9297 -0.0523  0.5156
 7886TIP3    H245150   6.528   2.174  13.983  1.3416 -0.2035  0.9667
 7887TIP3   OH245151   4.436   0.553  16.977  0.0036  0.5756 -0.2915
 7887TIP3    H145152   4.519   0.559  16.930  0.7246 -0.8704  0.6904
 7887TIP3    H245153   4.391   0.479  16.935 -0.5390  0.9779 -0.4299
 7888TIP3   OH245154   5.543   1.839   6.246  0.0854  0.0327  0.2479
 7888TIP3    H145155   5.499   1.863   6.327  0.2645 -0.1714  0.4045
 7888TIP3    H245156   5.596   1.763   6.268  0.8707  0.5408  0.1697
 7889TIP3   OH245157   0.691   6.459  13.352 -0.4358 -0.2144  0.2061
 7889TIP3    H145158   0.736   6.374  13.352 -0.4055 -0.1982  0.0234
 7889TIP3    H245159   0.745   6.514  13.408 -0.4623 -0.3197  0.3361
 7890TIP3   OH245160   3.510   6.051   0.711 -0.7309 -0.3435 -0.0969
 7890TIP3    H145161   3.512   6.146   0.714  1.6230 -0.3723  0.9037
 7890TIP3    H245162   3.502   6.024   0.802  1.3854 -1.0571 -0.0592
 7891TIP3   OH245163   0.195   6.676   3.452 -0.2654  0.5068  0.0198
 7891TIP3    H145164   0.202   6.602   3.511 -0.9670  2.2776  2.4695
 7891TIP3    H245165   0.282   6.716   3.451 -0.2261  0.4200 -0.2528
 7892TIP3   OH245166   1.434   3.181  14.901 -0.4605 -0.1069 -0.0861
 7892TIP3    H145167   1.463   3.091  14.894  0.7172  0.1689  0.9739
 7892TIP3    H245168   1.461   3.209  14.988 -1.2579  1.1151 -0.2016
 7893TIP3   OH245169   6.487   5.790   5.329  0.4404  0.1655 -0.9173
 7893TIP3    H145170   6.404   5.833   5.349  1.3388  1.7806 -0.5582
 7893TIP3    H245171   6.554   5.853   5.354  1.7629 -0.2447 -3.1496
 7894TIP3   OH245172   0.437   0.532   3.675  0.2442 -0.5346  0.1812
 7894TIP3    H145173   0.372   0.575   3.619  0.3756 -0.0566  0.3863
 7894TIP3    H245174   0.407   0.442   3.683 -0.3828 -0.3232  0.2566
 7895TIP3   OH245175   4.692   5.242  14.124  0.3217  0.9593 -0.0990
 7895TIP3    H145176   4.692   5.154  14.162 -0.3846  0.3831 -1.3802
 7895TIP3    H245177   4.759   5.239  14.056 -1.6359  0.4630 -2.1395
 7896TIP3   OH245178   5.499   5.096   5.030  0.1450  0.4886 -0.8024
 7896TIP3    H145179   5.443   5.167   5.059  2.5876  1.9076  0.8119
 7896TIP3    H245180   5.540   5.063   5.110  0.8048 -1.1981 -1.7831
 7897TIP3   OH245181   5.258   3.022   5.546 -0.5723  0.3283  0.2702
 7897TIP3    H145182   5.275   3.060   5.632 -1.6050  1.4304  0.0182
 7897TIP3    H245183   5.164   3.035   5.532 -0.2102  1.3379 -1.5521
 7898TIP3   OH245184   1.427   6.205   4.896  0.2666  0.3867 -0.2108
 7898TIP3    H145185   1.398   6.216   4.986 -0.9681 -2.9738 -0.0375
 7898TIP3    H245186   1.522   6.190   4.903  0.4542  1.7303  0.3150
 7899TIP3   OH245187   5.360   5.737  13.945  0.2818 -0.2175  0.0207
 7899TIP3    H145188   5.345   5.831  13.933  0.4894 -0.2748 -0.7853
 7899TIP3    H245189   5.449   5.724  13.913  0.6959 -0.4919  1.2721
 7900TIP3   OH245190   2.885   4.838   4.665  0.0190  0.0023 -0.6770
 7900TIP3    H145191   2.937   4.892   4.605 -0.2097 -0.0100 -0.8878
 7900TIP3    H245192   2.933   4.756   4.670  0.0291 -0.0036 -0.8589
 7901TIP3   OH245193   0.600   1.431  12.263 -0.1177  0.0942  0.4676
 7901TIP3    H145194   0.645   1.497  12.315 -0.6124  3.2592 -2.7612
 7901TIP3    H245195   0.646   1.431  12.179 -1.3437 -2.3739 -0.3165
 7902TIP3   OH245196   6.425   6.367  13.441  0.1262 -0.9085 -0.1726
 7902TIP3    H145197   6.340   6.407  13.421  0.7471  0.2036 -0.6891
 7902TIP3    H245198   6.418   6.342  13.533 -0.5287 -0.1967 -0.0083
 7903TIP3   OH245199   4.959   4.563  16.902  0.0324 -0.1938  0.4673
 7903TIP3    H145200   4.960   4.658  16.901 -1.4759 -0.1352  1.2481
 7903TIP3    H245201   4.869   4.540  16.879  1.2733 -1.5659 -3.9690
 7904TIP3   OH245202   1.984   3.262  11.091 -0.3218  0.7469 -0.8423
 7904TIP3    H145203   2.021   3.344  11.058  0.0695  1.2076  0.6721
 7904TIP3    H245204   2.054   3.198  11.080 -0.0700  0.9762 -0.5875
 7905TIP3   OH245205   2.132   3.375  11.485  0.1019  0.5064 -0.1484
 7905TIP3    H145206   2.173   3.321  11.418  2.5729  1.4142  0.5316
 7905TIP3    H245207   2.151   3.329  11.567 -0.7095  0.6988  0.1557
 7906TIP3   OH245208   2.593   3.549   0.027  0.2552 -0.4328 -0.2620
 7906TIP3    H145209   2.513   3.581  -0.015  0.0721 -0.2500  0.2169
 7906TIP3    H245210   2.646   3.515  -0.045  0.0451  0.0840 -0.6676
 7907TIP3   OH245211   2.681   0.902   3.823  0.5160 -0.3194 -0.4309
 7907TIP3    H145212   2.665   0.818   3.779  1.9428  0.0160 -1.6645
 7907TIP3    H245213   2.683   0.880   3.916 -1.9593 -1.1531 -0.4882
 7908TIP3   OH245214   3.516   0.317  15.937 -0.6753 -0.1728  0.1541
 7908TIP3    H145215   3.539   0.247  15.998 -1.4692 -0.6941 -0.1221
 7908TIP3    H245216   3.591   0.377  15.938 -0.5744 -0.3043  1.4497
 7909TIP3   OH245217   3.293   1.809   2.722 -0.4507 -0.5458 -0.1796
 7909TIP3    H145218   3.295   1.725   2.768 -0.8755  0.6311  2.1207
 7909TIP3    H245219   3.202   1.836   2.725  0.0525  1.1755  1.4708
 7910TIP3   OH245220   2.090   5.101  12.571 -0.0958 -0.0771 -0.0567
 7910TIP3    H145221   2.036   5.023  12.583  1.1736 -1.2756 -1.7217
 7910TIP3    H245222   2.097   5.139  12.659 -0.2571 -2.1557  0.9120
 7911TIP3   OH245223   2.408   0.623   0.906  0.4643  0.3665  0.0940
 7911TIP3    H145224   2.384   0.600   0.816  1.0079 -0.0071  0.0344
 7911TIP3    H245225   2.433   0.539   0.945  2.0025  0.7644  0.0360
 7912TIP3   OH245226   2.919   5.274  11.277 -0.0008 -0.2555 -0.1112
 7912TIP3    H145227   2.893   5.359  11.240 -0.7699 -1.4870 -2.6197
 7912TIP3    H245228   3.014   5.283  11.290 -0.3517  1.6589  1.7562
 7913TIP3   OH245229   5.362   1.012   4.208  0.0800  0.0024 -0.9661
 7913TIP3    H145230   5.441   1.011   4.154  0.3146 -0.5790 -0.6213
 7913TIP3    H245231   5.388   1.061   4.286 -0.3939  1.2402 -1.5704
 7914TIP3   OH245232   3.033   4.657  11.475  0.6021  0.4100 -0.4341
 7914TIP3    H145233   3.004   4.694  11.392  1.0184  0.3736 -0.5975
 7914TIP3    H245234   3.051   4.565  11.455 -1.2125 -0.1098  0.1530
 7915TIP3   OH245235   0.302   2.151  11.963  0.1867  0.1957  0.0422
 7915TIP3    H145236   0.325   2.099  12.040  2.0731  0.6959 -0.1327
 7915TIP3    H245237   0.309   2.090  11.890 -2.7350 -0.5848  0.2946
 7916TIP3   OH245238   0.573   2.535  16.219  0.4745 -0.4605  1.0476
 7916TIP3    H145239   0.583   2.451  16.263  0.3580 -0.8872  0.2782
 7916TIP3    H245240   0.525   2.514  16.139 -0.7169  0.5312  1.4704
 7917TIP3   OH245241   2.004   1.321  13.093 -0.2194 -0.4564 -0.0565
 7917TIP3    H145242   1.948   1.339  13.017 -0.9029  0.2157  0.5782
 7917TIP3    H245243   2.035   1.408  13.120 -1.2767 -0.4875  1.3761
 7918TIP3   OH245244   4.261   3.008  17.057  0.0740  0.4500 -0.1323
 7918TIP3    H145245   4.341   3.050  17.027 -0.4637  1.8907  0.3711
 7918TIP3    H245246   4.290   2.946  17.124  1.0488 -1.2775 -2.0527
 7919TIP3   OH245247   3.514   1.117   4.566  0.2135  0.0778  0.4151
 7919TIP3    H145248   3.588   1.176   4.555 -0.1160  0.3068 -0.6607
 7919TIP3    H245249   3.534   1.042   4.509  0.1040 -0.3362  0.9146
 7920TIP3   OH245250   0.051   3.820  12.611 -0.0895 -0.0579  0.5123
 7920TIP3    H145251   0.022   3.763  12.539  1.1467  0.8108 -0.7145
 7920TIP3    H245252  -0.029   3.862  12.641 -1.2010 -2.9234  1.9705
 7921TIP3   OH245253   2.463   1.548   2.235  0.0373  0.6446 -0.3072
 7921TIP3    H145254   2.424   1.636   2.238 -0.2300  0.5168  1.9793
 7921TIP3    H245255   2.396   1.494   2.193 -0.5292  1.2294 -0.1770
 7922TIP3   OH245256   0.346   4.094  12.343  0.9125  0.5133  0.3899
 7922TIP3    H145257   0.371   4.181  12.312  0.6032  0.4778  0.0239
 7922TIP3    H245258   0.418   4.066  12.398  1.0248  0.9942  0.4907
 7923TIP3   OH245259   5.009   3.196  15.388  0.3327 -0.6837 -0.0502
 7923TIP3    H145260   5.043   3.198  15.478 -0.8712  0.8205  0.4150
 7923TIP3    H245261   4.922   3.157  15.396 -0.3922  0.8273 -0.3084
 7924TIP3   OH245262   6.829   2.145   2.725  0.0365 -0.2044  0.2009
 7924TIP3    H145263   6.867   2.113   2.806  1.1823 -0.7171 -0.5159
 7924TIP3    H245264   6.734   2.147   2.742  0.3190  0.7742  1.8955
 7925TIP3   OH245265   5.145   4.119  11.249 -0.5894  0.1847  0.0609
 7925TIP3    H145266   5.068   4.156  11.206 -1.1545 -1.4442 -0.3993
 7925TIP3    H245267   5.209   4.108  11.178 -1.2664 -1.8316 -0.3022
 7926TIP3   OH245268   5.708   1.238   3.781  0.7062 -0.2042  0.0826
 7926TIP3    H145269   5.670   1.300   3.843  0.7419  1.7631 -1.7834
 7926TIP3    H245270   5.638   1.219   3.719  1.1462 -0.8914 -0.2187
 7927TIP3   OH245271   4.806   3.954   4.998 -0.2202  0.0286 -0.2479
 7927TIP3    H145272   4.779   3.896   4.927 -2.1031 -1.5243  1.6075
 7927TIP3    H245273   4.855   3.897   5.058 -1.5850  0.3995  1.3104
 7928TIP3   OH245274   4.162   1.735  13.970  0.3032 -0.2779  0.0639
 7928TIP3    H145275   4.152   1.787  14.050 -0.0013 -0.3770  0.0893
 7928TIP3    H245276   4.169   1.645  14.001 -1.1118 -0.4627 -0.0877
 7929TIP3   OH245277   0.663   5.438   6.016 -0.4076  0.1904  0.3321
 7929TIP3    H145278   0.609   5.515   5.999 -5.3288 -2.9502 -0.5281
 7929TIP3    H245279   0.624   5.400   6.095 -1.3258 -3.5570 -1.6857
 7930TIP3   OH245280   2.404   1.685  11.812 -0.3468 -0.1618  0.1833
 7930TIP3    H145281   2.409   1.716  11.721 -1.1503  1.2397  0.5815
 7930TIP3    H245282   2.318   1.644  11.818  0.1768 -1.3206  0.0210
 7931TIP3   OH245283   4.302   6.651   4.951 -0.1893  0.4307  0.5270
 7931TIP3    H145284   4.296   6.680   5.042  1.1063 -0.2844  0.8708
 7931TIP3    H245285   4.322   6.730   4.901 -2.6655  1.1594  0.5807
 7932TIP3   OH245286   4.014   1.982   4.215 -0.2045  0.0705  0.2013
 7932TIP3    H145287   4.078   1.923   4.256  0.5099  1.5770  1.3495
 7932TIP3    H245288   4.014   2.060   4.271 -0.8259  1.3285 -1.4663
 7933TIP3   OH245289   6.244   6.717  16.615 -0.3174 -0.4695  0.2242
 7933TIP3    H145290   6.206   6.717  16.704 -0.3223 -2.6504  0.2742
 7933TIP3    H245291   6.175   6.754  16.560 -0.7379 -0.1124  0.9777
 7934TIP3   OH245292   2.366   4.074  14.511  0.0567  0.3868 -0.0998
 7934TIP3    H145293   2.355   4.168  14.528 -0.4184  0.2111  0.5909
 7934TIP3    H245294   2.284   4.035  14.542  0.7011 -0.3926  0.6607
 7935TIP3   OH245295   6.832   6.582   3.292  0.1427  0.3336  0.0445
 7935TIP3    H145296   6.917   6.602   3.332 -0.4302  0.7773  1.0738
 7935TIP3    H245297   6.845   6.601   3.199  1.3826 -0.3032  0.0642
 7936TIP3   OH245298   4.740   4.780  16.807 -0.0312  0.7801 -0.1624
 7936TIP3    H145299   4.704   4.867  16.792  2.4528  2.0052  0.4714
 7936TIP3    H245300   4.831   4.787  16.780  1.1267 -0.6482  2.9595
 7937TIP3   OH245301   0.484   6.343  16.592  0.5174  0.1114 -0.5456
 7937TIP3    H145302   0.566   6.313  16.552  1.0424  0.8834 -0.0723
 7937TIP3    H245303   0.461   6.275  16.654  2.4556  1.2515  1.5625
 7938TIP3   OH245304   2.744   5.015  15.992  0.6031 -0.5000  0.2619
 7938TIP3    H145305   2.756   4.968  15.910  1.0134  1.0044 -0.5745
 7938TIP3    H245306   2.651   5.036  15.994  0.3938 -1.4105  0.6970
 7939TIP3   OH245307   5.755   0.340  13.197 -0.3787  0.7475 -0.0129
 7939TIP3    H145308   5.683   0.284  13.228  0.0771  0.2149  0.0932
 7939TIP3    H245309   5.831   0.311  13.247  0.1404  0.5944 -0.8730
 7940TIP3   OH245310   1.457   5.577   1.020 -0.1244 -0.0765 -0.0506
 7940TIP3    H145311   1.454   5.603   1.112 -0.1491  1.2807 -0.4111
 7940TIP3    H245312   1.375   5.611   0.983  0.5526  0.6843 -0.8867
 7941TIP3   OH245313   6.779   3.261  16.407  0.7977  0.7720 -0.2020
 7941TIP3    H145314   6.846   3.198  16.435  0.5072  1.0418  1.1583
 7941TIP3    H245315   6.741   3.222  16.328  0.9006 -0.5498  0.3801
 7942TIP3   OH245316   0.949   3.123  13.452  0.1202 -0.3975  0.5766
 7942TIP3    H145317   0.962   3.094  13.542  0.9114  1.2666  1.0554
 7942TIP3    H245318   1.031   3.167  13.429 -0.2285 -0.4207 -0.8027
 7943TIP3   OH245319   2.882   4.831   0.227 -0.1336  0.5655 -0.6198
 7943TIP3    H145320   2.882   4.807   0.320 -2.3756  0.4643 -0.5786
 7943TIP3    H245321   2.933   4.912   0.223 -0.5314  0.9225  0.8308
 7944TIP3   OH245322   1.083   0.594   3.386 -0.1031 -0.7392 -0.3473
 7944TIP3    H145323   1.028   0.631   3.454 -0.2716 -1.6369  0.0177
 7944TIP3    H245324   1.118   0.670   3.339 -0.2247 -0.1237  0.5435
 7945TIP3   OH245325   5.095   5.153   4.458  0.1925  0.3570 -0.7325
 7945TIP3    H145326   5.036   5.113   4.395  1.3788 -2.4668 -0.2060
 7945TIP3    H245327   5.166   5.090   4.469  1.9260  2.3698  0.7086
 7946TIP3   OH245328   2.821   0.018   4.777  0.3577  0.0649 -0.3487
 7946TIP3    H145329   2.759   0.089   4.757 -0.2983 -0.6458 -0.9331
 7946TIP3    H245330   2.895   0.061   4.819  0.2121  1.1794 -1.1842
 7947TIP3   OH245331   5.257   1.439   1.859 -0.0099  0.1425  0.5989
 7947TIP3    H145332   5.305   1.504   1.910  0.4568 -1.1748  1.8938
 7947TIP3    H245333   5.314   1.361   1.859 -1.1174 -0.6965  0.1986
 7948TIP3   OH245334   3.817   3.536  16.689 -0.1496 -0.3381 -0.6473
 7948TIP3    H145335   3.844   3.464  16.631 -0.9488  0.1856 -1.7036
 7948TIP3    H245336   3.722   3.528  16.694 -0.1920  0.3391 -0.3410
 7949TIP3   OH245337   6.744   3.365  13.629 -0.1078  0.2047  0.1908
 7949TIP3    H145338   6.677   3.427  13.600 -1.1671 -0.3490  1.3683
 7949TIP3    H245339   6.741   3.294  13.565 -0.7985  0.0863  0.3506
 7950TIP3   OH245340   2.000   6.668   3.486 -0.1194  0.1343  0.2468
 7950TIP3    H145341   2.065   6.622   3.433  0.8054  0.0919  1.3731
 7950TIP3    H245342   1.997   6.756   3.449  0.8524  0.2405  0.3993
 7951TIP3   OH245343   3.055   5.216   2.628 -0.0283  0.2941  0.0471
 7951TIP3    H145344   3.049   5.290   2.689 -0.8623  0.9276 -0.7680
 7951TIP3    H245345   2.992   5.152   2.663  0.2685  0.2092  0.4319
 7952TIP3   OH245346   6.495   3.582   3.212  0.1036 -0.1304  0.0435
 7952TIP3    H145347   6.451   3.647   3.157  2.6925  0.6483 -1.2777
 7952TIP3    H245348   6.537   3.633   3.281  0.4176 -0.6230  0.2232
 7953TIP3   OH245349   5.751   1.736   0.406  0.3939 -0.7725  0.3181
 7953TIP3    H145350   5.845   1.720   0.396  0.6099 -0.8798  2.1901
 7953TIP3    H245351   5.745   1.803   0.475 -0.9162 -1.1140  0.5634
 7954TIP3   OH245352   3.164   4.933  14.988 -0.0114 -0.4333 -0.0564
 7954TIP3    H145353   3.095   4.876  14.954 -2.4790  0.6086  2.7615
 7954TIP3    H245354   3.179   4.901  15.077  1.0159  1.1896  0.3933
 7955TIP3   OH245355   6.268   1.009   5.275 -0.1648 -0.7682  0.1470
 7955TIP3    H145356   6.270   0.933   5.216  2.0613 -0.8662  0.2511
 7955TIP3    H245357   6.330   0.988   5.344 -0.5252  0.5887  0.9325
 7956TIP3   OH245358   4.397   1.862  16.748  0.2505 -0.1325 -0.0050
 7956TIP3    H145359   4.322   1.817  16.787 -0.2869  0.7211 -0.0253
 7956TIP3    H245360   4.444   1.900  16.822  1.5977 -1.9648  0.1792
 7957TIP3   OH245361   5.640   2.177  11.892 -0.3440 -0.2726 -0.2946
 7957TIP3    H145362   5.735   2.183  11.880  0.0010 -0.6915  1.8977
 7957TIP3    H245363   5.611   2.126  11.816  1.0720  0.3800 -1.3341
 7958TIP3   OH245364   6.734   0.079  12.105 -0.2250 -0.3769 -0.1871
 7958TIP3    H145365   6.744   0.133  12.026 -2.3728  0.3213 -0.0475
 7958TIP3    H245366   6.765   0.136  12.176 -0.6119 -0.0797 -0.2551
 7959TIP3   OH245367   0.430   2.376  12.559  0.2261 -0.5191 -0.3177
 7959TIP3    H145368   0.466   2.332  12.636  1.4562 -1.5172 -1.4317
 7959TIP3    H245369   0.353   2.325  12.536  0.6864 -1.0991 -0.5983
 7960TIP3   OH245370   6.797   3.884  14.077 -0.3173  0.5682  0.2601
 7960TIP3    H145371   6.781   3.829  14.154 -0.6041  1.1286  0.6042
 7960TIP3    H245372   6.875   3.935  14.100  0.1707  0.0576 -0.2049
 7961TIP3   OH245373   0.833   5.236   0.958  0.3445  0.2970  0.3631
 7961TIP3    H145374   0.738   5.236   0.944  0.2443  1.9356  0.7633
 7961TIP3    H245375   0.868   5.276   0.878  0.5657  1.0226  0.8178
 7962TIP3   OH245376   1.179   6.404   4.857 -0.0400  0.1628 -0.3443
 7962TIP3    H145377   1.239   6.329   4.849 -1.1484 -0.9601  1.2344
 7962TIP3    H245378   1.202   6.445   4.940 -2.0855 -0.9389  0.8343
 7963TIP3   OH245379   6.773   3.325   2.295  0.3765  0.1249 -0.0083
 7963TIP3    H145380   6.764   3.326   2.390  2.5064 -2.3901  0.3584
 7963TIP3    H245381   6.862   3.356   2.279  0.8604 -1.6039 -0.9366
 7964TIP3   OH245382   1.499   1.428  13.009  0.8027 -0.0449 -0.0526
 7964TIP3    H145383   1.474   1.435  12.917 -1.2091  1.1008  0.5290
 7964TIP3    H245384   1.496   1.518  13.042  0.7520 -0.5195  1.3105
 7965TIP3   OH245385   0.515   6.732   5.341  0.0869  0.3115 -0.1444
 7965TIP3    H145386   0.576   6.779   5.285  0.8803  0.2343  0.6347
 7965TIP3    H245387   0.429   6.752   5.305  0.5731  0.3971 -1.2732
 7966TIP3   OH245388   0.234   0.738   3.638  0.0894  0.1965  0.3724
 7966TIP3    H145389   0.177   0.707   3.709 -0.2977 -1.4477 -0.6040
 7966TIP3    H245390   0.178   0.797   3.587  0.3133  1.2388  1.2882
 7967TIP3   OH245391   6.558   2.801  14.819 -0.0774 -0.1002 -0.5978
 7967TIP3    H145392   6.479   2.820  14.769 -1.4466  2.8609  2.3449
 7967TIP3    H245393   6.575   2.880  14.870  3.7204 -1.3113  0.3961
 7968TIP3   OH245394   6.347   6.761  11.950  0.6246  0.4224  0.1854
 7968TIP3    H145395   6.307   6.792  11.869 -1.2299 -0.2907  0.7687
 7968TIP3    H245396   6.377   6.841  11.994 -0.2194  1.0070 -0.2649
 7969TIP3   OH245397   1.061   1.429   4.180 -0.5181  0.2371  0.0444
 7969TIP3    H145398   1.076   1.338   4.207 -0.4143  0.9733  2.7896
 7969TIP3    H245399   0.968   1.443   4.194 -0.5583  0.5302 -0.4952
 7970TIP3   OH245400   3.069   4.728  12.846  0.4353 -0.4654  0.9244
 7970TIP3    H145401   3.096   4.653  12.793  1.7015  1.1959 -0.9204
 7970TIP3    H245402   3.019   4.689  12.918 -0.5198 -2.9521 -0.9082
 7971TIP3   OH245403   3.923   4.968  15.579 -0.2655  0.3448  0.0006
 7971TIP3    H145404   3.827   4.974  15.576 -0.3382  0.0712  1.1933
 7971TIP3    H245405   3.945   4.987  15.670  0.8586  0.8328 -0.3601
 7972TIP3   OH245406   6.259   5.558   1.246  0.5079 -0.6276  0.0955
 7972TIP3    H145407   6.256   5.535   1.339 -1.4168 -0.1253  0.1862
 7972TIP3    H245408   6.322   5.630   1.242  2.2938 -2.0564  0.6300
 7973TIP3   OH245409   1.256   6.218   5.646  0.0182  0.7230  0.0790
 7973TIP3    H145410   1.314   6.263   5.586  0.9171  0.5339  0.7831
 7973TIP3    H245411   1.307   6.208   5.727 -0.8463  0.2000  0.5863
 7974TIP3   OH245412   6.225   1.414  10.355 -0.6042 -0.0188 -0.2717
 7974TIP3    H145413   6.306   1.371  10.327 -0.5792  0.3510 -0.7778
 7974TIP3    H245414   6.228   1.501  10.315 -1.0195  0.1769  0.1114
 7975TIP3   OH245415   1.003   2.464   0.731 -0.3409  0.3395  0.1580
 7975TIP3    H145416   0.996   2.483   0.825  0.0894 -0.1074  0.2881
 7975TIP3    H245417   0.955   2.383   0.719 -1.6329  1.1431 -0.2807
 7976TIP3   OH245418   4.681   4.283   3.758  0.0519  0.1782  0.1444
 7976TIP3    H145419   4.742   4.305   3.687 -0.2003 -1.0720 -0.4993
 7976TIP3    H245420   4.732   4.291   3.838  0.2250  2.0446 -0.1295
 7977TIP3   OH245421   4.672   5.568  16.031  0.3174  0.4464 -0.5705
 7977TIP3    H145422   4.706   5.657  16.024 -0.4312  0.7705 -0.1833
 7977TIP3    H245423   4.624   5.554  15.949  0.0236  0.5807 -0.4230
 7978TIP3   OH245424   2.685   0.379   3.756 -0.7941  0.2848  0.2074
 7978TIP3    H145425   2.739   0.349   3.829 -0.4837 -0.8224 -0.4529
 7978TIP3    H245426   2.620   0.310   3.744 -2.8734  1.8952  1.4370
 7979TIP3   OH245427   6.846   5.373  14.678  0.0493  0.0612 -0.1105
 7979TIP3    H145428   6.787   5.311  14.719  0.9456 -0.0252  1.1061
 7979TIP3    H245429   6.794   5.453  14.667 -0.4926 -0.2372  0.2678
 7980TIP3   OH245430   1.265   1.152   3.304 -0.5962 -0.0196  0.0392
 7980TIP3    H145431   1.182   1.149   3.351 -1.4134 -0.8702 -1.4010
 7980TIP3    H245432   1.302   1.237   3.327 -2.4040  0.8765 -0.1649
 7981TIP3   OH245433   2.203   6.195   4.062 -0.1181  0.1686  0.2879
 7981TIP3    H145434   2.282   6.147   4.037  0.1297  0.3582  0.6990
 7981TIP3    H245435   2.224   6.233   4.147  0.1347  2.0352 -0.5603
 7982TIP3   OH245436   0.261   6.272  15.352 -0.1552 -0.4663  0.3568
 7982TIP3    H145437   0.223   6.259  15.439 -0.3337 -1.5525  0.1265
 7982TIP3    H245438   0.355   6.282  15.369 -0.3256  0.6277  0.7765
 7983TIP3   OH245439   3.245   0.107   6.089 -0.0010 -0.5075 -0.5362
 7983TIP3    H145440   3.232   0.013   6.087 -0.4972 -0.4373 -2.3813
 7983TIP3    H245441   3.290   0.127   6.007 -1.3904  1.0376 -0.9875
 7984TIP3   OH245442   4.448   3.061  13.524  0.2042 -0.4838  0.0678
 7984TIP3    H145443   4.395   3.118  13.468  2.7245  0.2079 -1.7558
 7984TIP3    H245444   4.507   3.120  13.570  0.6284 -1.3676  0.6894
 7985TIP3   OH245445   0.991   1.865   2.324  0.5032  0.1250  0.0423
 7985TIP3    H145446   0.958   1.945   2.365 -0.7108 -0.5710  0.4853
 7985TIP3    H245447   0.936   1.853   2.246  0.3278 -0.5250  0.2528
 7986TIP3   OH245448   6.125   0.707  14.661 -0.2553  0.3188 -0.3201
 7986TIP3    H145449   6.075   0.667  14.590 -1.1014 -1.3231  1.1273
 7986TIP3    H245450   6.207   0.658  14.664 -0.9535 -0.8259  0.9320
 7987TIP3   OH245451   2.046   0.097  10.259 -0.3586  0.3295  0.0046
 7987TIP3    H145452   2.117   0.160  10.271  0.3765 -0.7066  1.4785
 7987TIP3    H245453   1.967   0.150  10.257  0.3959  1.4674 -1.0979
 7988TIP3   OH245454   6.577   5.183   4.080  0.2286 -0.1044 -0.0391
 7988TIP3    H145455   6.647   5.134   4.123 -0.6870  0.2273  1.9193
 7988TIP3    H245456   6.596   5.274   4.099 -1.3360 -0.0651  1.5382
 7989TIP3   OH245457   3.015   1.292  15.613  0.1038 -0.2284  1.3590
 7989TIP3    H145458   2.928   1.279  15.649 -1.0903  0.5378 -1.0723
 7989TIP3    H245459   3.038   1.381  15.639 -1.0198  0.5551 -0.2073
 7990TIP3   OH245460   4.190   4.887  12.155 -0.0094 -0.2419 -0.0778
 7990TIP3    H145461   4.187   4.906  12.061  1.3357 -1.3693 -0.3863
 7990TIP3    H245462   4.153   4.965  12.196 -1.5283 -0.0995 -1.5651
 7991TIP3   OH245463   1.751   6.257  16.998  0.1205 -0.7487 -0.0310
 7991TIP3    H145464   1.814   6.220  17.060 -0.0114 -0.9585 -0.0201
 7991TIP3    H245465   1.665   6.227  17.030 -0.2336  1.5609  1.4031
 7992TIP3   OH245466   2.791   4.086   1.575  0.3541  0.5390 -0.3005
 7992TIP3    H145467   2.737   4.022   1.530 -0.0189  0.0761  0.7684
 7992TIP3    H245468   2.735   4.120   1.645  1.2300  0.5089  0.4443
 7993TIP3   OH245469   4.986   3.879  14.859 -0.7138 -0.4282  0.0707
 7993TIP3    H145470   5.038   3.810  14.899 -0.4509  0.2866  1.0010
 7993TIP3    H245471   4.898   3.843  14.853 -0.0707 -1.8429 -1.9739
 7994TIP3   OH245472   2.897   2.565  11.123 -0.0743  0.4145  0.3499
 7994TIP3    H145473   2.920   2.578  11.031 -0.8870  1.4869  0.2907
 7994TIP3    H245474   2.833   2.494  11.122 -0.0689  0.4126  0.1016
 7995TIP3   OH245475   1.394   4.429  12.412  0.2301  0.0895 -0.5756
 7995TIP3    H145476   1.364   4.339  12.425  1.3553 -0.0279  1.6995
 7995TIP3    H245477   1.315   4.483  12.422 -0.4147 -0.5993 -1.7575
 7996TIP3   OH245478   5.282   0.331  12.177 -0.1683 -0.3688  0.6389
 7996TIP3    H145479   5.378   0.336  12.180 -0.1213 -1.4285  1.2669
 7996TIP3    H245480   5.256   0.408  12.125  1.0341 -0.2827  0.1259
 7997TIP3   OH245481   0.505   6.393   2.891  0.5857  0.8512 -0.4759
 7997TIP3    H145482   0.534   6.396   2.982 -0.2238  3.7322 -0.2224
 7997TIP3    H245483   0.521   6.481   2.858 -1.7347  0.6866 -2.2572
 7998TIP3   OH245484   5.825   4.429   4.446 -0.1140  0.1890  0.0840
 7998TIP3    H145485   5.777   4.428   4.364  1.1112  0.5848 -0.6663
 7998TIP3    H245486   5.759   4.412   4.513 -1.0831 -0.4390 -0.9966
 7999TIP3   OH245487   3.355   4.364   6.614  0.1380 -0.6019 -0.0147
 7999TIP3    H145488   3.351   4.289   6.673 -0.6586 -0.9043 -0.4305
 7999TIP3    H245489   3.358   4.440   6.671  2.7988 -0.9736  0.4437
 8000TIP3   OH245490   0.695   0.086   5.669 -0.3743  0.4590 -0.2904
 8000TIP3    H145491   0.788   0.107   5.678 -0.5357  1.1288 -0.1012
 8000TIP3    H245492   0.690  -0.008   5.685  0.3344  0.3244 -0.8186
 8001TIP3   OH245493   5.742   2.797   2.495 -0.6326  0.0066 -0.4048
 8001TIP3    H145494   5.820   2.746   2.516 -2.3444 -2.1968  1.0967
 8001TIP3    H245495   5.767   2.851   2.421  2.1682 -0.9258 -0.2292
 8002TIP3   OH245496   4.211   5.028   0.466 -0.2486  0.7549 -0.3344
 8002TIP3    H145497   4.118   5.006   0.475  0.1462 -1.0190 -0.3488
 8002TIP3    H245498   4.222   5.106   0.520 -1.7707  1.0829 -0.4386
 8003TIP3   OH245499   5.899   4.755  14.697 -0.3232 -0.4112 -0.0476
 8003TIP3    H145500   5.865   4.723  14.613  1.4351  0.0133 -0.9680
 8003TIP3    H245501   5.987   4.718  14.703 -0.8343 -1.4276  2.2243
 8004TIP3   OH245502   5.212   2.175  15.005 -0.4872  0.2592 -0.0415
 8004TIP3    H145503   5.239   2.142  15.091 -1.1094 -0.8199 -0.2352
 8004TIP3    H245504   5.142   2.237  15.025 -0.2725  0.4039  0.2670
 8005TIP3   OH245505   1.803   5.350  14.401 -0.1185  0.8455 -0.1644
 8005TIP3    H145506   1.715   5.346  14.364 -0.1652  0.1352  0.0004
 8005TIP3    H245507   1.831   5.258  14.406 -0.1163  0.9052  1.5548
 8006TIP3   OH245508   6.085   6.278  11.871 -0.2517  0.3838 -1.3014
 8006TIP3    H145509   6.077   6.337  11.946 -0.6313  0.2561 -1.2353
 8006TIP3    H245510   6.176   6.286  11.843  0.4728 -1.0653  0.4099
 8007TIP3   OH245511   2.050   3.795   5.786 -0.0407  0.3390  0.6000
 8007TIP3    H145512   2.111   3.868   5.798 -1.6355  1.4320  2.8798
 8007TIP3    H245513   2.076   3.731   5.853  0.0777 -0.2723 -0.0254
 8008TIP3   OH245514   5.189   2.542  13.908 -0.3192  0.4031 -0.0913
 8008TIP3    H145515   5.253   2.591  13.959  0.2940 -0.0768 -0.3863
 8008TIP3    H245516   5.134   2.499  13.973  1.0683 -1.0047  0.2064
 8009TIP3   OH245517   3.880   4.185  14.228  0.6143  0.3195  0.4163
 8009TIP3    H145518   3.906   4.160  14.317  0.5840  0.1631  0.3808
 8009TIP3    H245519   3.789   4.158  14.221  0.4905  0.7074  0.4798
 8010TIP3   OH245520   3.761   6.652   5.144  0.1119 -0.0866  0.3907
 8010TIP3    H145521   3.840   6.665   5.091  0.3017 -1.6260  0.2481
 8010TIP3    H245522   3.779   6.700   5.225  1.0273 -0.0786  0.1943
 8011TIP3   OH245523   4.828   6.076  13.429 -0.6025 -0.4716 -0.1620
 8011TIP3    H145524   4.814   6.047  13.519  0.1887  0.6799  0.3520
 8011TIP3    H245525   4.744   6.058  13.385  0.0802 -4.4855 -0.2246
 8012TIP3   OH245526   4.362   4.158  11.286  0.1459 -1.0077 -0.5800
 8012TIP3    H145527   4.413   4.199  11.356  2.1046 -0.9771 -1.9617
 8012TIP3    H245528   4.273   4.155  11.321  0.5869  1.1748  0.9756
 8013TIP3   OH245529   0.227   1.613  10.625 -0.4955  0.0520  0.0448
 8013TIP3    H145530   0.302   1.605  10.565 -0.8949  1.0880 -0.6134
 8013TIP3    H245531   0.151   1.622  10.567 -0.7891  2.0525  0.6815
 8014TIP3   OH245532   2.009   4.696  14.538 -0.2423 -0.3486 -0.3794
 8014TIP3    H145533   1.991   4.778  14.584  0.9768 -0.5850  0.5517
 8014TIP3    H245534   2.104   4.690  14.534 -0.2684 -2.2046  0.4938
 8015TIP3   OH245535   4.453   1.141  17.043 -0.1996  0.0359  0.0926
 8015TIP3    H145536   4.508   1.137  16.965  0.3241  0.3987  0.4323
 8015TIP3    H245537   4.363   1.141  17.010  0.0204  0.1709 -0.5071
 8016TIP3   OH245538   4.822   2.327  13.772  0.3984 -0.1936 -0.3668
 8016TIP3    H145539   4.860   2.387  13.709  1.4211  0.6371  0.9854
 8016TIP3    H245540   4.894   2.269  13.796  0.3656  0.2653  0.9060
 8017TIP3   OH245541   1.677   4.582  15.683 -0.7815 -0.0728 -0.2812
 8017TIP3    H145542   1.748   4.601  15.622 -0.2496  1.3834  0.7606
 8017TIP3    H245543   1.601   4.568  15.626 -0.0685  0.1305 -1.3224
 8018TIP3   OH245544   6.101   0.989  12.785 -0.0291 -0.0174 -0.4381
 8018TIP3    H145545   6.026   1.026  12.832  0.2738 -0.2275  0.2315
 8018TIP3    H245546   6.139   1.063  12.738 -0.2808  0.2206 -0.2690
 8019TIP3   OH245547   0.147   2.527   6.110  0.2287  0.3366  0.1271
 8019TIP3    H145548   0.222   2.471   6.130  0.8379  1.2740  0.5163
 8019TIP3    H245549   0.177   2.616   6.130 -0.1558  1.0132 -2.0418
 8020TIP3   OH245550   2.409   5.692  17.031 -0.5637  0.2864 -0.5658
 8020TIP3    H145551   2.475   5.757  17.005 -0.4146  1.2535  1.9843
 8020TIP3    H245552   2.438   5.611  16.989  2.1328  0.7432  0.2040
 8021TIP3   OH245553   3.736   4.196   4.635  0.7575  0.5689  0.7309
 8021TIP3    H145554   3.807   4.158   4.584 -0.7911 -0.5366 -0.7237
 8021TIP3    H245555   3.675   4.123   4.649 -1.3524  1.9836 -0.4206
 8022TIP3   OH245556   5.039   2.384   0.745  0.4655 -0.3070 -0.3257
 8022TIP3    H145557   5.001   2.306   0.786 -2.4183  1.3737  0.5356
 8022TIP3    H245558   5.046   2.361   0.653 -2.2159 -1.0347 -0.4433
 8023TIP3   OH245559   1.053   4.298   2.750  0.5024 -0.4669 -0.6966
 8023TIP3    H145560   1.023   4.384   2.779  0.1994 -0.9911  0.6612
 8023TIP3    H245561   1.057   4.246   2.831  0.4698 -1.7834 -1.5085
 8024TIP3   OH245562   3.135   6.264   1.374  0.0001 -0.3861  0.7664
 8024TIP3    H145563   3.102   6.354   1.373 -3.5134 -1.5391 -0.3615
 8024TIP3    H245564   3.131   6.238   1.466  0.3391  0.3486  0.9978
 8025TIP3   OH245565   2.841   6.467  11.658 -0.0233  0.6920  0.2759
 8025TIP3    H145566   2.874   6.392  11.708  1.3109  0.2213 -1.1906
 8025TIP3    H245567   2.747   6.469  11.676  0.1744 -0.3654  1.5794
 8026TIP3   OH245568   2.389   1.054  14.288  0.2209 -0.0570  0.1381
 8026TIP3    H145569   2.336   1.075  14.365 -0.3761  0.1853 -0.3242
 8026TIP3    H245570   2.451   0.988  14.318 -2.0389 -2.3248  0.1048
 8027TIP3   OH245571   1.212   2.990   4.214  0.4997 -0.0780  0.4047
 8027TIP3    H145572   1.129   2.946   4.232 -0.5196  0.4482 -2.4685
 8027TIP3    H245573   1.202   3.077   4.252 -1.9153  1.3313 -2.9715
 8028TIP3   OH245574   1.800   4.548  14.438 -0.0570  0.5195 -0.0975
 8028TIP3    H145575   1.891   4.566  14.461 -0.7954  2.6588  1.5183
 8028TIP3    H245576   1.773   4.478  14.497  1.1631 -2.0714 -2.3614
 8029TIP3   OH245577   3.588   1.860   1.839 -0.4480  0.0266 -0.4636
 8029TIP3    H145578   3.576   1.880   1.932 -0.6030  3.5567 -1.1290
 8029TIP3    H245579   3.655   1.921   1.809  0.7577 -2.0931 -2.4056
 8030TIP3   OH245580   2.226   1.374  16.658  0.0330 -0.0446 -0.3045
 8030TIP3    H145581   2.214   1.416  16.573 -2.1785  0.3013  0.1117
 8030TIP3    H245582   2.309   1.328  16.651 -0.8846 -1.4970 -3.2930
 8031TIP3   OH245583   1.711   5.105   4.800 -0.1321  0.2141  0.3526
 8031TIP3    H145584   1.751   5.185   4.767  2.3899 -1.1421 -0.1542
 8031TIP3    H245585   1.785   5.050   4.826 -1.8146 -1.2255  2.5031
 8032TIP3   OH245586   5.597   2.399   1.651  0.4210  0.3924 -0.1469
 8032TIP3    H145587   5.542   2.343   1.705  0.8240 -0.5749 -0.7294
 8032TIP3    H245588   5.567   2.383   1.561 -0.3741  2.1234 -0.2337
 8033TIP3   OH245589   2.280   3.635   5.074 -0.1333  0.3854 -0.0109
 8033TIP3    H145590   2.215   3.668   5.136  0.5851 -1.1638  1.6527
 8033TIP3    H245591   2.230   3.582   5.012 -0.4564 -1.3810  1.6691
 8034TIP3   OH245592   3.191   3.078   0.493 -0.0692 -0.0451 -0.1167
 8034TIP3    H145593   3.184   3.160   0.445 -2.1003 -0.9852 -1.5892
 8034TIP3    H245594   3.279   3.079   0.531  0.2492  2.4062 -0.7743
 8035TIP3   OH245595   3.891   4.081  13.804  0.8515 -0.5872 -0.3422
 8035TIP3    H145596   3.831   4.017  13.843 -1.3957  1.6842  0.1573
 8035TIP3    H245597   3.978   4.050  13.831 -0.0551 -3.5863 -0.4528
 8036TIP3   OH245598   6.335   1.704  14.076  0.5726 -0.0874 -0.8224
 8036TIP3    H145599   6.417   1.747  14.052  0.8506  0.2020  0.5323
 8036TIP3    H245600   6.353   1.663  14.161  0.0069 -2.0507 -1.5853
 8037TIP3   OH245601   3.837   1.101  11.496  0.4623  0.0710 -0.2901
 8037TIP3    H145602   3.787   1.158  11.554  0.9600 -0.8140  1.0599
 8037TIP3    H245603   3.797   1.014  11.508  1.6494 -0.4517  0.0381
 8038TIP3   OH245604   0.829   4.141  17.100  0.0505 -0.4732  0.6637
 8038TIP3    H145605   0.801   4.109  17.186 -1.4773 -0.7433  0.1014
 8038TIP3    H245606   0.905   4.087  17.079  0.2150 -0.6623  1.6863
 8039TIP3   OH245607   0.047   4.108  11.397 -0.0040  0.3030 -0.9158
 8039TIP3    H145608   0.106   4.034  11.383 -1.0990 -0.9732  0.7074
 8039TIP3    H245609   0.096   4.167  11.454 -0.5791 -1.2784  1.3642
 8040TIP3   OH245610   0.232   2.231   1.240  0.5375  0.3252 -0.2458
 8040TIP3    H145611   0.167   2.218   1.171  1.2915  0.5123 -1.0130
 8040TIP3    H245612   0.214   2.318   1.275 -1.0547 -0.5075  1.1299
 8041TIP3   OH245613   0.631   6.138  12.848  0.0788 -0.3267  0.0058
 8041TIP3    H145614   0.679   6.209  12.804  0.3840  0.1093  1.0057
 8041TIP3    H245615   0.683   6.119  12.926 -0.7745 -0.6527  0.5085
 8042TIP3   OH245616   5.704   5.168   4.092 -0.0769 -0.1999  0.3951
 8042TIP3    H145617   5.713   5.263   4.101 -0.3325 -0.1096 -0.3029
 8042TIP3    H245618   5.794   5.137   4.081  0.4151 -0.4144  3.8367
 8043TIP3   OH245619   2.827   5.831  15.572 -0.2434  0.0944 -0.6154
 8043TIP3    H145620   2.812   5.885  15.650  1.8556  2.5949 -1.8395
 8043TIP3    H245621   2.904   5.869  15.530  0.3459 -2.8707 -2.5009
 8044TIP3   OH245622   1.170   3.171   6.204 -0.1834 -0.4680  0.3328
 8044TIP3    H145623   1.229   3.246   6.198 -0.3408 -0.1577  2.0570
 8044TIP3    H245624   1.221   3.103   6.248 -0.2538 -1.1824 -0.6349
 8045TIP3   OH245625   3.592   1.131   2.344  0.1726 -0.4250  0.2742
 8045TIP3    H145626   3.588   1.070   2.417  1.1458 -0.8486 -0.0120
 8045TIP3    H245627   3.661   1.193   2.369 -0.8951  0.6905  0.6340
 8046TIP3   OH245628   1.255   3.476  14.138  0.0143 -0.1909 -0.1828
 8046TIP3    H145629   1.239   3.522  14.055  1.1095  0.3221 -0.1285
 8046TIP3    H245630   1.282   3.388  14.112 -0.2664 -0.2303 -0.3478
 8047TIP3   OH245631   1.484   3.790  11.890 -0.5138  0.0409  0.3241
 8047TIP3    H145632   1.514   3.880  11.901 -0.0101  0.0570 -0.9242
 8047TIP3    H245633   1.389   3.794  11.904 -0.3937  0.6295  0.9827
 8048TIP3   OH245634   4.729   5.203   4.542  0.5493 -0.0275  0.0823
 8048TIP3    H145635   4.669   5.212   4.469  1.1364 -0.2660 -0.4452
 8048TIP3    H245636   4.676   5.219   4.620 -0.1582 -0.1092 -0.3778
 8049TIP3   OH245637   2.820   4.139   5.358 -0.5238  0.8488 -0.2042
 8049TIP3    H145638   2.725   4.128   5.345 -0.2950  0.0115 -1.3035
 8049TIP3    H245639   2.857   4.054   5.336  0.5312  1.2890 -0.1813
 8050TIP3   OH245640   3.075   4.934  15.612 -0.8171 -0.3705  0.2721
 8050TIP3    H145641   3.143   4.878  15.573  0.0142 -1.8428  3.4745
 8050TIP3    H245642   3.121   5.013  15.639 -0.5030 -0.9382  1.5110
 8051TIP3   OH245643   1.552   2.343   1.820  0.1700  0.1653 -0.0016
 8051TIP3    H145644   1.551   2.415   1.757 -2.7286 -0.1357 -0.4232
 8051TIP3    H245645   1.645   2.321   1.830  1.1806  3.8837  0.1248
 8052TIP3   OH245646   5.160   5.999  15.886 -0.9441 -0.4688 -0.2883
 8052TIP3    H145647   5.227   5.939  15.852  0.4470  1.6147 -1.4941
 8052TIP3    H245648   5.171   5.996  15.981  3.0514  1.9153 -0.4410
 8053TIP3   OH245649   4.289   4.509  17.128  0.4421  0.2244 -0.2173
 8053TIP3    H145650   4.209   4.523  17.077  0.4531  0.3017 -0.2151
 8053TIP3    H245651   4.288   4.580  17.192  0.4786  0.1855 -0.1744
 8054TIP3   OH245652   2.147   4.212   0.509 -0.2694 -0.1913 -0.4549
 8054TIP3    H145653   2.099   4.252   0.581  0.5853  3.0746 -1.5155
 8054TIP3    H245654   2.079   4.177   0.452 -1.0440 -0.9064  0.8510
 8055TIP3   OH245655   1.353   4.301   3.803 -0.6312 -0.7256  0.0738
 8055TIP3    H145656   1.423   4.366   3.815 -0.9360 -0.6865  2.0932
 8055TIP3    H245657   1.372   4.260   3.719  0.7847  0.5230 -0.2632
 8056TIP3   OH245658   1.928   3.961  12.038 -0.1094 -0.1735  0.2160
 8056TIP3    H145659   1.974   3.877  12.042  0.2777  0.0596  0.7408
 8056TIP3    H245660   1.908   3.973  11.945  2.1812  0.4141 -0.2616
 8057TIP3   OH245661   1.381   2.368  13.679 -0.0276 -0.0911 -0.2281
 8057TIP3    H145662   1.444   2.396  13.745  0.5829 -0.5013 -0.6308
 8057TIP3    H245663   1.380   2.438  13.615  0.8290 -0.5607 -0.7715
 8058TIP3   OH245664   1.471   3.675   4.373 -0.1119 -0.6095  0.3642
 8058TIP3    H145665   1.441   3.721   4.295 -1.7016 -2.0328  0.0914
 8058TIP3    H245666   1.562   3.653   4.355  1.1772  3.3079  0.9682
 8059TIP3   OH245667   1.471   6.569   5.121  0.0521 -0.5064 -0.1323
 8059TIP3    H145668   1.393   6.514   5.132  0.0894 -0.4090  0.6919
 8059TIP3    H245669   1.437   6.656   5.102 -0.1662  0.1647  2.9031
 8060TIP3   OH245670   6.425   0.041   5.223 -0.5357 -0.4943 -0.5628
 8060TIP3    H145671   6.350   0.039   5.283  0.5146  0.2102  0.8396
 8060TIP3    H245672   6.499   0.069   5.278  0.7397 -1.0638 -1.9241
 8061TIP3   OH245673   4.344   6.507  15.907  0.1270 -0.0316 -0.1798
 8061TIP3    H145674   4.427   6.544  15.879 -0.1719  1.4804  0.7937
 8061TIP3    H245675   4.367   6.445  15.976  0.5572 -0.9244 -1.1048
 8062TIP3   OH245676   3.775   0.170   2.230  0.0309  0.3068  0.2356
 8062TIP3    H145677   3.853   0.119   2.208 -0.4693 -0.1910 -0.4326
 8062TIP3    H245678   3.759   0.224   2.153  1.0507  2.1650  1.2498
 8063TIP3   OH245679   0.006   1.291  14.343  0.6263 -0.0240 -0.0613
 8063TIP3    H145680   0.067   1.338  14.400  0.7051 -0.2938  0.0797
 8063TIP3    H245681   0.061   1.253  14.274  0.2974  2.1406 -1.6202
 8064TIP3   OH245682   4.527   6.157  15.428 -0.5098  0.4299  0.0475
 8064TIP3    H145683   4.584   6.228  15.400  0.8487 -0.4193  0.5449
 8064TIP3    H245684   4.535   6.156  15.524 -0.7165 -0.2240  0.0646
 8065TIP3   OH245685   5.475   3.309   4.214 -0.3380 -0.2403 -0.7155
 8065TIP3    H145686   5.539   3.350   4.154  0.8940 -1.9148 -0.6126
 8065TIP3    H245687   5.428   3.247   4.159 -0.4229 -0.5188 -0.3251
 8066TIP3   OH245688   4.479   2.658  15.065  0.3717  0.4838  0.6035
 8066TIP3    H145689   4.399   2.704  15.088 -0.2021 -0.4595  0.5428
 8066TIP3    H245690   4.463   2.622  14.978  1.6863  2.1093 -0.3747
 8067TIP3   OH245691   1.392   2.799  14.556 -0.3901 -0.6870  0.6293
 8067TIP3    H145692   1.444   2.879  14.549 -0.9596 -0.2663  1.1099
 8067TIP3    H245693   1.428   2.753  14.633  1.4329 -2.0321 -0.9159
 8068TIP3   OH245694   3.861   5.719  13.657 -0.0555  0.0433 -0.0006
 8068TIP3    H145695   3.855   5.759  13.744  2.0819 -1.0800  0.7294
 8068TIP3    H245696   3.888   5.790  13.600 -0.1316  0.5023  0.5257
 8069TIP3   OH245697   5.720   1.711  16.633 -0.3356 -0.2558 -0.2588
 8069TIP3    H145698   5.722   1.665  16.549 -0.1802 -1.1429  0.2155
 8069TIP3    H245699   5.804   1.757  16.637 -1.6123  2.4836 -2.0080
 8070TIP3   OH245700   1.098   5.736  15.020 -0.2951 -0.5654  0.6925
 8070TIP3    H145701   1.188   5.768  15.012 -0.5092 -0.3648 -1.4733
 8070TIP3    H245702   1.093   5.699  15.108  1.5937  0.3552  1.2240
 8071TIP3   OH245703   4.024   0.266   4.263  0.3644  0.0721 -0.5240
 8071TIP3    H145704   4.011   0.178   4.299 -2.1942  1.5540  2.5812
 8071TIP3    H245705   3.947   0.281   4.209  0.8043  0.4759 -1.0549
 8072TIP3   OH245706   1.925   3.821  14.773 -0.4856 -0.0482  0.2570
 8072TIP3    H145707   1.999   3.802  14.830  0.1419 -0.9533 -0.8198
 8072TIP3    H245708   1.848   3.811  14.829  0.1541  0.1533  1.1998
 8073TIP3   OH245709   3.196   4.667   5.366 -0.0090  0.2224 -0.2592
 8073TIP3    H145710   3.157   4.661   5.453 -0.3985 -2.1950 -0.5442
 8073TIP3    H245711   3.290   4.657   5.380 -0.1205 -0.7032 -0.1521
 8074TIP3   OH245712   5.993   1.242   0.751 -0.6174  0.0253 -0.1086
 8074TIP3    H145713   6.048   1.166   0.733 -0.0216  0.6661 -1.0468
 8074TIP3    H245714   5.954   1.223   0.837  0.6552 -0.6622  0.3442
 8075TIP3   OH245715   4.062   6.578  11.756  0.6428 -0.0388  0.2658
 8075TIP3    H145716   3.984   6.633  11.746  1.7194  1.6537  0.7248
 8075TIP3    H245717   4.094   6.598  11.844  1.5923 -0.6826  0.0772
 8076TIP3   OH245718   1.707   4.617   3.848  0.2237 -0.3255 -0.2067
 8076TIP3    H145719   1.765   4.582   3.781 -0.4800 -0.6391 -0.6621
 8076TIP3    H245720   1.683   4.541   3.901  0.2733 -0.1835  0.0259
 8077TIP3   OH245721   4.198   4.111  14.713 -0.3756 -0.1865  0.1928
 8077TIP3    H145722   4.249   4.032  14.733  0.8143  0.1202 -1.4393
 8077TIP3    H245723   4.112   4.093  14.751  0.3744 -1.5068  1.4184
 8078TIP3   OH245724   3.884   1.314   3.054 -0.0390 -0.0460 -0.2213
 8078TIP3    H145725   3.884   1.238   2.994 -0.0840 -0.5002  0.3461
 8078TIP3    H245726   3.812   1.368   3.022 -1.1667 -1.1055  0.4260
 8079TIP3   OH245727   6.304   6.225  16.415  0.7884 -0.0462 -0.4772
 8079TIP3    H145728   6.250   6.156  16.375 -0.4361  0.2466  0.6398
 8079TIP3    H245729   6.361   6.178  16.476 -1.1803  0.0202  1.5267
 8080TIP3   OH245730   4.116   3.355   3.096  0.3438  0.1130 -0.1758
 8080TIP3    H145731   4.097   3.438   3.054  0.1385  0.0724 -0.1628
 8080TIP3    H245732   4.146   3.298   3.025  0.6178  0.2365 -0.1631
 8081TIP3   OH245733   3.463   3.303   6.059 -1.1031 -0.1955 -0.6879
 8081TIP3    H145734   3.386   3.336   6.012 -1.3254 -0.7489 -0.7103
 8081TIP3    H245735   3.506   3.245   5.997 -2.7095 -2.8956  0.5330
 8082TIP3   OH245736   2.977   5.748   2.935 -0.0752  0.6829 -0.0133
 8082TIP3    H145737   3.042   5.714   2.996  2.6122 -0.4157 -3.1592
 8082TIP3    H245738   3.026   5.812   2.882 -1.9203  0.7819 -1.6955
 8083TIP3   OH245739   6.126   0.342   2.793 -0.2810  0.1444  0.5806
 8083TIP3    H145740   6.202   0.336   2.735 -2.1072 -0.0592 -1.9418
 8083TIP3    H245741   6.110   0.252   2.822 -0.2022  0.0227  0.2484
 8084TIP3   OH245742   3.679   0.832  11.157  0.0940  0.1731 -0.5539
 8084TIP3    H145743   3.610   0.792  11.211  1.8771 -0.7060  1.1989
 8084TIP3    H245744   3.677   0.924  11.181  0.6512 -0.1538  0.8498
 8085TIP3   OH245745   2.588   4.913  13.950  0.0517  0.1091 -0.4121
 8085TIP3    H145746   2.554   5.001  13.964  1.4766  0.8391 -1.4090
 8085TIP3    H245747   2.512   4.863  13.920 -0.5784  1.2173 -0.7180
 8086TIP3   OH245748   2.593   5.815   2.383 -0.0305 -0.4867  0.0585
 8086TIP3    H145749   2.644   5.847   2.309  0.3449 -1.6967 -0.2273
 8086TIP3    H245750   2.658   5.782   2.445 -0.3056  1.0149  1.2108
 8087TIP3   OH245751   3.211   0.285   0.305  0.2340 -0.3707 -0.7148
 8087TIP3    H145752   3.234   0.243   0.387 -1.6632  0.4661  0.3130
 8087TIP3    H245753   3.116   0.297   0.310  0.2870  1.1633 -2.3276
 8088TIP3   OH245754   1.484   5.367   4.647  0.1982 -0.1726  0.2125
 8088TIP3    H145755   1.496   5.407   4.561  0.4475 -0.1798  0.2433
 8088TIP3    H245756   1.544   5.293   4.649 -2.5627 -2.6592 -1.1091
 8089TIP3   OH245757   5.774   0.425   3.840  0.1075  0.7332 -0.2860
 8089TIP3    H145758   5.696   0.467   3.804 -0.9349 -0.8282  0.0233
 8089TIP3    H245759   5.741   0.369   3.910  1.1861 -1.4614 -1.4022
 8090TIP3   OH245760   1.310   2.413   4.359  0.3773  0.1505  0.1948
 8090TIP3    H145761   1.401   2.394   4.337  0.6043  1.1170  0.2724
 8090TIP3    H245762   1.315   2.462   4.441 -0.2447 -0.1740  0.4349
 8091TIP3   OH245763   1.464   3.375   5.863 -0.0765  0.1308  0.7738
 8091TIP3    H145764   1.559   3.380   5.852  0.1868 -1.2282  2.0190
 8091TIP3    H245765   1.439   3.298   5.811 -0.5212  0.5854  0.3160
 8092TIP3   OH245766   0.301   6.709  12.375  0.2461 -0.1265 -0.1165
 8092TIP3    H145767   0.285   6.735  12.285  0.7006 -0.3869 -0.2752
 8092TIP3    H245768   0.345   6.785  12.414  2.5679 -1.0159 -0.8795
 8093TIP3   OH245769   2.673   3.339  13.250  0.0673  0.4856 -0.2033
 8093TIP3    H145770   2.740   3.383  13.197  0.5924  0.0224  0.0643
 8093TIP3    H245771   2.661   3.398  13.325  0.1657  0.5801 -0.2605
 8094TIP3   OH245772   3.010   2.477  13.905 -0.1004 -0.1866  0.1350
 8094TIP3    H145773   3.104   2.492  13.920  0.2543 -0.3130 -1.6286
 8094TIP3    H245774   2.972   2.565  13.908 -0.1636 -0.2554  2.1087
 8095TIP3   OH245775   6.419   0.735   0.722  0.7231 -0.1140 -0.1866
 8095TIP3    H145776   6.502   0.766   0.758  1.9728 -0.7906 -2.2691
 8095TIP3    H245777   6.442   0.702   0.635 -1.5189 -1.5791 -0.3035
 8096TIP3   OH245778   5.495   3.131  14.555  0.5695 -0.5691 -0.6796
 8096TIP3    H145779   5.532   3.201  14.501 -1.0382  2.1243  1.3986
 8096TIP3    H245780   5.400   3.140  14.543  0.2431 -0.8839  1.3331
 8097TIP3   OH245781   5.311   5.554   0.505  0.3274 -0.1166 -0.2759
 8097TIP3    H145782   5.309   5.463   0.475  2.2082 -1.1067  2.2244
 8097TIP3    H245783   5.382   5.593   0.454  0.9291 -0.6778  0.1099
 8098TIP3   OH245784   3.691   4.224  14.689  0.5858  0.3053  0.2252
 8098TIP3    H145785   3.657   4.226  14.599  0.2624 -0.7311  0.3103
 8098TIP3    H245786   3.665   4.308  14.726 -1.8762 -0.4109  0.2708
 8099TIP3   OH245787   4.543   0.046  16.170 -0.1369 -0.6774  0.4175
 8099TIP3    H145788   4.504  -0.037  16.144  1.2306 -0.8476 -1.2809
 8099TIP3    H245789   4.548   0.097  16.088 -0.4188  0.8574  1.3179
 8100TIP3   OH245790   6.517   3.801  14.556 -0.4102  0.2670  0.1747
 8100TIP3    H145791   6.485   3.711  14.547  1.4516 -0.4669  0.3049
 8100TIP3    H245792   6.479   3.832  14.638  0.1256 -0.9871  0.9346
 8101TIP3   OH245793   3.924   0.922   1.891  0.7568  0.1225  0.3201
 8101TIP3    H145794   3.960   0.992   1.946 -0.8170  1.5239 -0.3320
 8101TIP3    H245795   3.891   0.857   1.953  2.1297  0.0038  0.9478
 8102TIP3   OH245796   2.114   0.130  16.592 -0.5361  0.0709  0.1297
 8102TIP3    H145797   2.120   0.164  16.681 -0.3652  1.7786 -0.4917
 8102TIP3    H245798   2.165   0.192  16.539 -3.2951  1.0140 -1.6493
 8103TIP3   OH245799   3.081   3.367   3.307 -0.0248  0.0628  0.2369
 8103TIP3    H145800   3.099   3.372   3.401  0.5421 -1.3557  0.2324
 8103TIP3    H245801   3.160   3.402   3.266  0.3814 -0.7570  0.2901
 8104TIP3   OH245802   5.877   2.172  13.778  0.3286  0.4574  0.2211
 8104TIP3    H145803   5.902   2.104  13.840  0.5003  0.2157 -0.1073
 8104TIP3    H245804   5.944   2.169  13.710  0.5598  1.2357  0.4082
 8105TIP3   OH245805   4.568   4.249   2.920  0.4297  0.3028  0.3779
 8105TIP3    H145806   4.531   4.177   2.970  0.6534  1.2090  1.9279
 8105TIP3    H245807   4.639   4.210   2.869  0.9466 -0.4769  1.6608
 8106TIP3   OH245808   3.201   5.506   5.857  0.4891  0.3657 -0.2652
 8106TIP3    H145809   3.114   5.545   5.849  1.1001  1.9867  0.5979
 8106TIP3    H245810   3.206   5.476   5.947  0.5124 -0.5334 -0.5597
 8107TIP3   OH245811   1.143   5.539   3.082  0.2752 -0.0030  0.7082
 8107TIP3    H145812   1.236   5.515   3.073  0.0057 -0.4051 -1.7425
 8107TIP3    H245813   1.122   5.584   3.001 -1.8398 -0.4457  0.9454
 8108TIP3   OH245814   4.125   5.559   0.231 -0.0555  0.7100  0.2588
 8108TIP3    H145815   4.139   5.464   0.238  1.3637  0.7759 -1.1981
 8108TIP3    H245816   4.180   5.595   0.301 -1.6551  0.4449  1.7270
 8109TIP3   OH245817   5.854   3.518   1.353 -0.1173  0.1087 -0.0124
 8109TIP3    H145818   5.916   3.590   1.349 -0.9079  0.7650 -1.0611
 8109TIP3    H245819   5.884   3.456   1.287 -0.5256  0.4034 -0.4849
 8110TIP3   OH245820   3.638   4.942  17.107  0.5347  0.2096 -0.3734
 8110TIP3    H145821   3.557   4.991  17.113 -0.5843 -1.4336 -1.1185
 8110TIP3    H245822   3.628   4.890  17.027  2.4607  0.1910 -0.6467
 8111TIP3   OH245823   3.005   5.647  11.869 -0.9173  0.9820 -0.0065
 8111TIP3    H145824   3.051   5.589  11.808  0.1310  1.3653  0.3992
 8111TIP3    H245825   2.993   5.728  11.821 -1.5353  0.7553 -0.2450
 8112TIP3   OH245826   1.072   4.183   2.268  0.4647  0.0691 -0.1589
 8112TIP3    H145827   0.998   4.218   2.218  0.5700  1.6945  0.7510
 8112TIP3    H245828   1.031   4.140   2.343  0.3983  0.8301  0.2603
 8113TIP3   OH245829   4.753   1.016   1.214 -0.5114  0.5464 -0.4425
 8113TIP3    H145830   4.663   1.034   1.239 -0.2679 -0.0425  0.9832
 8113TIP3    H245831   4.760   1.047   1.124 -3.0505 -2.4126 -1.8279
 8114TIP3   OH245832   5.867   3.870  13.678  0.0660 -0.0548  0.1939
 8114TIP3    H145833   5.849   3.961  13.655  0.3478  0.1182  0.6532
 8114TIP3    H245834   5.784   3.825  13.662  0.1059  0.1464 -0.6797
 8115TIP3   OH245835   4.905   0.194  15.760  0.3151  0.2927  0.1349
 8115TIP3    H145836   4.940   0.245  15.832 -1.1692  1.9922 -0.2668
 8115TIP3    H245837   4.857   0.257  15.706 -0.5434 -1.3052 -1.0959
 8116TIP3   OH245838   0.176   5.263  13.591 -0.3478  0.3806  0.1878
 8116TIP3    H145839   0.162   5.232  13.502 -2.6694 -1.0424  0.9476
 8116TIP3    H245840   0.259   5.224  13.618 -1.1870 -1.8980 -0.3120
 8117TIP3   OH245841   5.330   3.542  15.779 -0.2004  0.3531 -0.7660
 8117TIP3    H145842   5.242   3.511  15.760 -0.3194  0.2444 -0.0600
 8117TIP3    H245843   5.368   3.561  15.693 -1.2000  1.2263 -1.0293
 8118TIP3   OH245844   5.259   3.441   5.649 -0.1270  0.0021 -0.0431
 8118TIP3    H145845   5.310   3.439   5.729  1.0553 -1.1287 -0.7948
 8118TIP3    H245846   5.292   3.368   5.597 -2.1311 -0.4495 -0.8034
 8119TIP3   OH245847   4.912   2.219   4.315 -0.1459 -0.0361 -0.5244
 8119TIP3    H145848   4.839   2.277   4.338 -0.4147 -0.5307 -0.1134
 8119TIP3    H245849   4.904   2.208   4.220  0.4281  1.2849 -0.7464
 8120TIP3   OH245850   3.955   1.683  11.589  0.1204  0.0658  0.5564
 8120TIP3    H145851   3.864   1.663  11.610 -0.3761 -0.4631 -1.8037
 8120TIP3    H245852   3.958   1.778  11.583 -0.7738  0.0211 -1.1533
 8121TIP3   OH245853   2.238   5.706   0.857  0.1569  0.0180 -0.3798
 8121TIP3    H145854   2.246   5.680   0.949  1.6708  0.2473 -0.4222
 8121TIP3    H245855   2.192   5.790   0.860  1.8461  0.9520  0.3333
 8122TIP3   OH245856   5.686   3.813  12.638 -0.0568  0.0487 -0.2370
 8122TIP3    H145857   5.671   3.791  12.546  0.7716  0.9865 -0.6122
 8122TIP3    H245858   5.610   3.866  12.662 -0.2984 -0.2347 -0.3616
 8123TIP3   OH245859   1.267   1.317  10.915  0.4643  0.4245 -0.4585
 8123TIP3    H145860   1.295   1.305  10.824  0.0300  0.5597 -0.6127
 8123TIP3    H245861   1.318   1.392  10.946  0.2403  0.7007 -0.7545
 8124TIP3   OH245862   0.234   6.015   2.577  0.4173 -0.2832 -0.2053
 8124TIP3    H145863   0.187   5.935   2.599 -0.8491  0.5099  0.1013
 8124TIP3    H245864   0.209   6.077   2.647  0.6346  0.6545 -0.9376
 8125TIP3   OH245865   2.730   3.952  15.489  0.4177  0.4206 -0.1912
 8125TIP3    H145866   2.678   3.942  15.569  1.0501  3.8533  0.8244
 8125TIP3    H245867   2.673   3.999  15.429  0.3965 -1.0013 -1.3181
 8126TIP3   OH245868   1.331   0.124  15.320 -0.2158 -0.3554 -0.1600
 8126TIP3    H145869   1.357   0.039  15.356  0.5020  1.1809  3.3715
 8126TIP3    H245870   1.409   0.179  15.331 -1.1641  1.1935 -0.8412
 8127TIP3   OH245871   3.488   3.836   4.727 -0.1190 -0.0779  0.7140
 8127TIP3    H145872   3.575   3.874   4.738  0.0477 -0.2399  0.0000
 8127TIP3    H245873   3.429   3.898   4.770  0.2263  0.6341  0.1872
 8128TIP3   OH245874   3.519   3.922  14.237  0.3998  0.0668 -1.0801
 8128TIP3    H145875   3.552   3.832  14.230 -0.8236 -0.3842 -1.2100
 8128TIP3    H245876   3.464   3.921  14.315 -2.0573 -0.1200 -2.7264
 8129TIP3   OH245877   2.171   3.125   0.684  0.1952 -0.2932  0.3948
 8129TIP3    H145878   2.195   3.144   0.593 -1.6628 -1.7551 -0.4748
 8129TIP3    H245879   2.252   3.136   0.734  1.3003  0.3673 -1.4532
 8130TIP3   OH245880   6.818   4.971   3.422  0.2658  0.0821 -0.0978
 8130TIP3    H145881   6.840   4.896   3.477  1.5851  0.3735 -0.1871
 8130TIP3    H245882   6.754   5.020   3.472 -1.3801 -1.5723 -0.4381
 8131TIP3   OH245883   2.239   1.877  15.081  0.4528  0.4323  0.4573
 8131TIP3    H145884   2.250   1.803  15.141 -3.0503 -0.7440 -0.1322
 8131TIP3    H245885   2.328   1.907  15.064  1.8816 -2.2174  2.4794
 8132TIP3   OH245886   3.607   2.324   2.618  0.3459 -0.1684  0.5560
 8132TIP3    H145887   3.654   2.242   2.630 -1.5443 -1.6215 -1.1615
 8132TIP3    H245888   3.581   2.351   2.707  0.8789 -1.5166  1.1410
 8133TIP3   OH245889   4.031   3.093   3.373 -0.1085  0.1588 -0.2549
 8133TIP3    H145890   4.046   3.033   3.299 -0.7089 -1.1856  0.6827
 8133TIP3    H245891   4.108   3.082   3.428 -0.3330  0.0820  0.0409
 8134TIP3   OH245892   2.171   5.664  16.619  0.6376  0.0382 -0.0650
 8134TIP3    H145893   2.183   5.620  16.703  1.7524  1.3265  0.4838
 8134TIP3    H245894   2.077   5.655  16.601  0.5134 -0.9220  0.9237
 8135TIP3   OH245895   4.861   2.264   5.817 -0.2758 -0.3262 -0.4385
 8135TIP3    H145896   4.770   2.282   5.838 -0.0692 -1.2917  1.4797
 8135TIP3    H245897   4.882   2.186   5.868  1.6257 -0.1351 -0.8599
 8136TIP3   OH245898   6.756   0.111  12.421 -0.0996 -0.8988 -0.1720
 8136TIP3    H145899   6.840   0.135  12.381  0.4575  0.4374  1.6721
 8136TIP3    H245900   6.700   0.186  12.404 -0.1834 -0.7794  0.6278
 8137TIP3   OH245901   1.736   5.573   2.960 -0.8687 -0.0527 -0.3289
 8137TIP3    H145902   1.670   5.641   2.969 -0.9519 -0.0961 -0.6345
 8137TIP3    H245903   1.796   5.588   3.034 -1.5336 -0.3673  0.2830
 8138TIP3   OH245904   3.560   1.057   3.989 -0.1597  0.5470  0.0616
 8138TIP3    H145905   3.472   1.023   3.971  0.6406 -0.2804 -2.7218
 8138TIP3    H245906   3.610   0.981   4.017  0.6664  0.0388 -2.5066
 8139TIP3   OH245907   2.064   4.768  16.236  0.1869  0.5747 -0.4160
 8139TIP3    H145908   1.999   4.717  16.285 -0.0547 -0.4457 -1.7256
 8139TIP3    H245909   2.042   4.751  16.144  0.4786  2.6152 -0.8969
 8140TIP3   OH245910   6.368   0.804   1.154  0.3149  0.3429 -0.6045
 8140TIP3    H145911   6.444   0.778   1.206 -0.8098 -0.2096  0.8059
 8140TIP3    H245912   6.338   0.886   1.194 -0.1223  0.3004 -0.8392
 8141TIP3   OH245913   3.548   6.702  12.357  0.0304 -0.3359 -0.0476
 8141TIP3    H145914   3.633   6.690  12.401  0.0577 -1.8105 -0.4406
 8141TIP3    H245915   3.556   6.650  12.277 -0.5315  1.1570 -1.1135
 8142TIP3   OH245916   3.428   4.039   3.903 -0.1028  0.0961  0.1762
 8142TIP3    H145917   3.339   4.027   3.936  0.3505 -0.7375  1.1659
 8142TIP3    H245918   3.464   3.950   3.899  0.8362  0.4659  0.2399
 8143TIP3   OH245919   0.522   6.580  15.708 -0.1874  0.2422 -0.0882
 8143TIP3    H145920   0.608   6.548  15.681 -0.8081 -1.0558 -0.6203
 8143TIP3    H245921   0.501   6.529  15.786 -0.4527  0.6017  0.0803
 8144TIP3   OH245922   5.407   0.646  13.817 -0.3592  0.1473  0.4532
 8144TIP3    H145923   5.401   0.740  13.834  0.7916  0.2130  0.5473
 8144TIP3    H245924   5.501   0.627  13.815 -0.5476 -1.4320  2.8277
 8145TIP3   OH245925   0.729   3.073   1.032 -0.4237 -0.2052 -0.3633
 8145TIP3    H145926   0.682   2.990   1.031  0.1717 -0.5607  0.4878
 8145TIP3    H245927   0.800   3.061   0.968 -1.0913  0.1140 -1.1871
 8146TIP3   OH245928   6.027   2.921  12.994 -0.1882  0.5962 -0.3890
 8146TIP3    H145929   6.034   2.868  13.074  0.1038 -0.0023 -0.8032
 8146TIP3    H245930   5.944   2.967  13.004 -1.0945 -0.9079 -0.5726
 8147TIP3   OH245931   0.459   3.419  15.498 -0.0416  0.0277 -0.0010
 8147TIP3    H145932   0.375   3.464  15.489 -0.7472 -1.4740 -1.5723
 8147TIP3    H245933   0.514   3.479  15.547 -2.2073  0.8317  1.5896
 8148TIP3   OH245934   4.907   0.382  14.655 -1.0664  0.3807 -0.1978
 8148TIP3    H145935   4.896   0.417  14.566 -0.4593  0.4052 -0.2660
 8148TIP3    H245936   4.855   0.441  14.710 -2.0518 -0.0688 -0.6226
 8149TIP3   OH245937   1.693   4.629  16.669 -0.0011 -0.1478  0.0214
 8149TIP3    H145938   1.623   4.642  16.605 -0.6250 -1.3991  0.4163
 8149TIP3    H245939   1.668   4.549  16.715  1.7992 -0.7419  0.0260
 8150TIP3   OH245940   4.587   3.881   0.123 -0.3014 -0.3283 -0.1318
 8150TIP3    H145941   4.637   3.934   0.062 -0.2363 -1.6424 -1.2642
 8150TIP3    H245942   4.653   3.834   0.175 -0.3365  1.4312  1.6087
 8151TIP3   OH245943   0.133   1.871   5.155 -0.2097 -0.2641 -0.3649
 8151TIP3    H145944   0.220   1.850   5.120 -0.7734  0.1298 -2.1355
 8151TIP3    H245945   0.127   1.966   5.145 -1.1306 -0.3803 -1.0239
 8152TIP3   OH245946   2.579   3.846  10.781 -0.3710 -0.3570 -0.9681
 8152TIP3    H145947   2.557   3.753  10.792  0.0554 -0.2804  0.7476
 8152TIP3    H245948   2.662   3.846  10.734  0.6726 -0.9509  0.7708
 8153TIP3   OH245949   3.304   3.394  10.996 -0.0766  0.4828 -0.0487
 8153TIP3    H145950   3.372   3.448  10.956 -0.1527  1.0487  0.5683
 8153TIP3    H245951   3.343   3.360  11.076 -0.5478  0.8999  0.3654
 8154TIP3   OH245952   3.555   2.260   0.059  0.5130  0.4015 -0.1395
 8154TIP3    H145953   3.530   2.185   0.114  1.8759 -1.1033 -1.4482
 8154TIP3    H245954   3.488   2.326   0.076 -1.0143 -1.2859  0.7320
 8155TIP3   OH245955   0.041   2.779  10.575  0.3868 -0.8421  0.0438
 8155TIP3    H145956   0.095   2.764  10.498  1.0438 -0.2664  0.3878
 8155TIP3    H245957   0.038   2.874  10.585  2.1348 -0.9341  1.9811
 8156TIP3   OH245958   3.042   2.382   4.586 -0.2921  0.3085 -0.1009
 8156TIP3    H145959   3.040   2.415   4.676  0.9838  2.9496 -0.9282
 8156TIP3    H245960   3.045   2.287   4.595  0.3657  0.4997  2.6523
 8157TIP3   OH245961   4.688   3.439   0.445  0.0995 -0.7112  0.3321
 8157TIP3    H145962   4.615   3.478   0.494  0.1329 -1.2225  0.8003
 8157TIP3    H245963   4.646   3.381   0.382  0.0509  0.0545 -0.3534
 8158TIP3   OH245964   2.933   6.638   4.688  0.1041 -0.1062  0.0905
 8158TIP3    H145965   2.990   6.714   4.701  0.4500 -0.5521  1.3067
 8158TIP3    H245966   2.847   6.668   4.717 -0.0550  0.2324 -0.7179
 8159TIP3   OH245967   3.447   1.142  15.091  0.3542  0.3265  0.3316
 8159TIP3    H145968   3.387   1.210  15.062 -2.5226 -1.0676  2.4366
 8159TIP3    H245969   3.417   1.063  15.045  1.7945 -0.0732  0.0415
 8160TIP3   OH245970   4.093   3.724  15.608 -0.2128 -0.2118  0.2578
 8160TIP3    H145971   4.105   3.810  15.567  2.7295 -1.3896 -1.6926
 8160TIP3    H245972   4.161   3.719  15.675 -2.2376  0.0063  2.4408
 8161TIP3   OH245973   6.820   0.083  16.944 -0.0614  0.7094 -0.6833
 8161TIP3    H145974   6.842  -0.007  16.969 -0.6760  0.6483 -0.3426
 8161TIP3    H245975   6.895   0.135  16.971  0.0904  0.3685 -0.4440
 8162TIP3   OH245976   1.152   5.807   1.638 -0.0590  0.3406  0.1283
 8162TIP3    H145977   1.196   5.723   1.654 -1.2832 -0.3911 -0.1877
 8162TIP3    H245978   1.112   5.796   1.552 -1.0795  0.8769  0.5271
 8163TIP3   OH245979   2.480   1.803   2.589  0.2247  0.7685 -0.2492
 8163TIP3    H145980   2.565   1.836   2.616  1.4980 -2.4568  0.0902
 8163TIP3    H245981   2.449   1.750   2.663 -0.7881 -0.2990 -1.3728
 8164TIP3   OH245982   2.959   0.450   5.557  0.3952 -0.8858  0.0337
 8164TIP3    H145983   2.901   0.477   5.628 -1.7507 -0.2123 -1.8567
 8164TIP3    H245984   2.909   0.383   5.510  1.8370 -1.4578 -0.7395
 8165TIP3   OH245985   2.759   5.597   4.757 -0.1707 -0.0564 -0.1303
 8165TIP3    H145986   2.677   5.567   4.796  0.1124 -0.9224 -0.1749
 8165TIP3    H245987   2.762   5.690   4.777  0.6780 -0.6639  3.3160
 8166TIP3   OH245988   0.293   3.892  12.745  0.0493  0.4350  0.1826
 8166TIP3    H145989   0.322   3.923  12.659  1.2405  0.8455  0.7000
 8166TIP3    H245990   0.199   3.906  12.745  0.1833  1.5133 -0.6347
 8167TIP3   OH245991   6.084   2.326   2.512  0.6279  0.0208 -0.3346
 8167TIP3    H145992   6.107   2.375   2.591 -1.4696 -1.4123  1.2752
 8167TIP3    H245993   6.005   2.369   2.479  1.4409  0.5589 -1.6686
 8168TIP3   OH245994   5.413   5.310   3.804  0.5864  0.4647  1.0412
 8168TIP3    H145995   5.349   5.240   3.820  1.4169 -0.3044  1.0744
 8168TIP3    H245996   5.498   5.270   3.822  1.0731  1.5472  1.2573
 8169TIP3   OH245997   6.204   0.763   0.919 -0.2010 -0.0579 -0.0069
 8169TIP3    H145998   6.263   0.776   0.845  0.7924 -0.9088  0.6136
 8169TIP3    H245999   6.260   0.771   0.996 -0.8015 -1.3645  0.5896
 8170TIP3   OH246000   5.748   4.675   2.958 -0.8001 -0.1662 -0.0870
 8170TIP3    H146001   5.772   4.590   2.921 -1.1830 -1.3695  2.2170
 8170TIP3    H246002   5.805   4.684   3.035 -2.3839  0.4913  1.0719
 8171TIP3   OH246003   6.814   0.318  11.150  0.1260  0.3093 -0.2077
 8171TIP3    H146004   6.858   0.269  11.220 -0.3556  1.3834  0.8942
 8171TIP3    H246005   6.721   0.301  11.165  0.0157  0.6583 -0.4965
 8172TIP3   OH246006   2.799   2.796   1.597  0.3105 -0.7878  0.1587
 8172TIP3    H146007   2.731   2.852   1.634 -0.3220 -1.9483  0.8266
 8172TIP3    H246008   2.824   2.839   1.516 -1.2455 -0.3292 -0.1235
 8173TIP3   OH246009   1.028   6.182   0.955 -0.9302 -0.5272 -0.2455
 8173TIP3    H146010   1.088   6.256   0.966  0.3900 -1.7128  0.7567
 8173TIP3    H246011   1.036   6.159   0.862 -1.0150  0.2777 -0.4646
 8174TIP3   OH246012   0.399   6.411  13.309 -0.0405  0.1485  0.4142
 8174TIP3    H146013   0.479   6.412  13.361  1.0415  1.4369 -1.1747
 8174TIP3    H246014   0.354   6.492  13.333  0.4468  0.7316 -0.5710
 8175TIP3   OH246015   2.107   6.527  14.507 -0.4983  0.3098 -0.3849
 8175TIP3    H146016   2.124   6.517  14.600  0.5656  1.0385 -0.4925
 8175TIP3    H246017   2.193   6.537  14.467 -0.9728  0.5569 -1.3829
 8176TIP3   OH246018   1.405   0.081   0.552  0.0517  0.4897 -0.2135
 8176TIP3    H146019   1.434   0.100   0.463  1.1305  1.1220  0.2475
 8176TIP3    H246020   1.458   0.006   0.580 -2.5400 -1.8903 -1.1869
 8177TIP3   OH246021   2.380   5.771   4.153  0.1742 -0.4221 -0.2285
 8177TIP3    H146022   2.290   5.751   4.178 -0.2959  0.8138 -0.8702
 8177TIP3    H246023   2.414   5.689   4.119 -0.9719 -0.7214 -0.7121
 8178TIP3   OH246024   4.299   2.531  14.487  0.3906 -0.2695 -0.1669
 8178TIP3    H146025   4.292   2.473  14.411  0.3925  0.8308 -1.0420
 8178TIP3    H246026   4.392   2.553  14.492  0.4375 -0.5809  0.3509
 8179TIP3   OH246027   5.710   4.442  14.241  0.1951  0.2060 -0.0848
 8179TIP3    H146028   5.694   4.426  14.334  1.3304  0.3707  0.1476
 8179TIP3    H246029   5.654   4.378  14.196 -0.2483  0.0258  0.7035
 8180TIP3   OH246030   6.828   0.845   1.252 -0.1081  0.2889  0.4034
 8180TIP3    H146031   6.836   0.775   1.316 -0.0436  1.7562  2.0994
 8180TIP3    H246032   6.740   0.880   1.266 -0.9381 -0.7099 -1.8495
 8181TIP3   OH246033   4.440   2.271  10.787  0.1039 -0.0387 -0.0667
 8181TIP3    H146034   4.345   2.280  10.795 -0.0880 -1.8880  0.3690
 8181TIP3    H246035   4.466   2.342  10.729 -1.9199 -0.9775 -2.3137
 8182TIP3   OH246036   4.739   2.722  12.028 -0.3501  0.2521 -0.2313
 8182TIP3    H146037   4.749   2.779  12.104 -1.2048 -0.8989  0.7616
 8182TIP3    H246038   4.826   2.684  12.015  0.3252  1.9837 -1.1178
 8183TIP3   OH246039   0.431   3.984  12.021 -0.3331 -0.5203  0.0192
 8183TIP3    H146040   0.507   3.943  12.063 -0.5868 -0.0310  1.0090
 8183TIP3    H246041   0.391   4.036  12.091  0.6888  2.4836 -1.4590
 8184TIP3   OH246042   4.062   5.280  11.831 -0.3889  0.0285  0.3632
 8184TIP3    H146043   4.033   5.363  11.794 -0.6663 -0.3464 -0.2792
 8184TIP3    H246044   4.093   5.229  11.756  0.2938 -0.2452  0.8190
 8185TIP3   OH246045   6.552   3.173   5.608  0.1581  0.0185 -0.0764
 8185TIP3    H146046   6.503   3.126   5.541  0.6238 -0.6341  0.0295
 8185TIP3    H246047   6.489   3.187   5.679  0.1201 -0.8148  0.0629
 8186TIP3   OH246048   3.341   4.451   1.326 -0.1259 -0.5080 -0.4927
 8186TIP3    H146049   3.397   4.495   1.389  1.3387 -0.1446 -1.9816
 8186TIP3    H246050   3.252   4.465   1.359  0.4333  1.6162  0.2852
 8187TIP3   OH246051   3.765   2.781   3.730 -0.7544  0.0029 -0.0012
 8187TIP3    H146052   3.814   2.859   3.757 -0.5462 -0.4999  1.1388
 8187TIP3    H246053   3.824   2.708   3.747 -1.7332 -0.5875  1.0716
 8188TIP3   OH246054   0.640   5.726  14.248 -0.0992  0.0092 -0.1606
 8188TIP3    H146055   0.679   5.728  14.335 -1.5801  2.6357  0.5241
 8188TIP3    H246056   0.550   5.698  14.263  0.1826 -1.5857 -1.1749
 8189TIP3   OH246057   5.844   2.637  14.230  0.8495 -0.8417 -0.5606
 8189TIP3    H146058   5.902   2.586  14.287  2.4512  0.4342 -0.9874
 8189TIP3    H246059   5.824   2.716  14.280  0.3870 -0.7569 -0.8733
 8190TIP3   OH246060   3.842   5.799   0.648 -0.2235 -0.4785  0.0443
 8190TIP3    H146061   3.763   5.840   0.612  0.1811  1.3076  1.0785
 8190TIP3    H246062   3.810   5.728   0.703 -1.3124  1.4216  2.0138
 8191TIP3   OH246063   0.876   1.884   6.194  0.7213  0.3825 -0.2664
 8191TIP3    H146064   0.930   1.951   6.153  2.5280  0.2684  1.7472
 8191TIP3    H246065   0.911   1.801   6.160 -1.6289  0.3291 -2.8991
 8192TIP3   OH246066   4.999   3.545   3.423  0.8810 -0.4530  0.5798
 8192TIP3    H146067   5.013   3.557   3.517  1.5685  1.2004  0.2970
 8192TIP3    H246068   5.000   3.634   3.387  3.8497 -1.1650 -1.4294
 8193TIP3   OH246069   1.224   1.941   1.014  0.2163  0.2756  0.4570
 8193TIP3    H146070   1.306   1.945   1.063  1.6088  2.2819 -1.8748
 8193TIP3    H246071   1.222   2.021   0.962 -3.0440  0.0903  0.0889
 8194TIP3   OH246072   1.389   1.665   3.323  0.2676 -0.1693  0.4932
 8194TIP3    H146073   1.422   1.739   3.374  2.5028 -1.6313  1.3186
 8194TIP3    H246074   1.303   1.693   3.293  1.2487  2.9692  0.2974
 8195TIP3   OH246075   6.039   4.947  16.844  0.5849 -0.3129  0.5392
 8195TIP3    H146076   6.035   5.033  16.886  0.0496 -0.4642  0.8088
 8195TIP3    H246077   5.980   4.954  16.769  1.4486 -0.0805 -0.1374
 8196TIP3   OH246078   3.829   5.030   2.773  0.1322  0.3547  0.8049
 8196TIP3    H146079   3.888   5.048   2.846 -1.3702 -0.8806  2.3761
 8196TIP3    H246080   3.742   5.054   2.805 -0.6662 -0.9457 -0.2749
 8197TIP3   OH246081   2.185   3.891  11.891  0.4009  0.5987 -0.2134
 8197TIP3    H146082   2.252   3.894  11.823  1.6610  1.3306  1.0091
 8197TIP3    H246083   2.102   3.887  11.843  1.3025 -1.7833 -1.7880
 8198TIP3   OH246084   1.054   2.173   5.160  0.0436 -0.4357 -0.5169
 8198TIP3    H146085   1.121   2.215   5.214 -0.5328  1.8332 -1.4214
 8198TIP3    H246086   1.102   2.116   5.101  1.1658  0.7936 -0.8435
 8199TIP3   OH246087   6.398   2.279   6.689 -0.2826 -0.4539  0.1113
 8199TIP3    H146088   6.482   2.243   6.659  0.2020  1.0305 -0.3926
 8199TIP3    H246089   6.367   2.215   6.754  0.7799 -1.4956 -0.3577
 8200TIP3   OH246090   1.536   0.488  17.048 -0.4537  0.2401 -0.2339
 8200TIP3    H146091   1.560   0.403  17.013  0.4986  0.4052  0.0018
 8200TIP3    H246092   1.584   0.551  16.994  0.6480  0.5161  1.0393
 8201TIP3   OH246093   3.875   6.079  16.313 -0.4773 -0.2435 -0.4172
 8201TIP3    H146094   3.877   5.987  16.338 -0.0938 -0.8258 -2.4072
 8201TIP3    H246095   3.785   6.107  16.330 -0.1665 -0.4758  1.7923
 8202TIP3   OH246096   5.474   2.561   2.215  0.0787  0.0352 -0.0971
 8202TIP3    H146097   5.483   2.541   2.122  0.0844  0.4090 -0.1785
 8202TIP3    H246098   5.467   2.657   2.218 -1.5593 -0.0761  0.1443
 8203TIP3   OH246099   1.239   1.559  12.672  0.0982 -0.6064  0.1533
 8203TIP3    H146100   1.334   1.558  12.687  0.0430 -0.2616  0.5420
 8203TIP3    H246101   1.205   1.619  12.739 -0.3082 -0.1101 -0.4919
 8204TIP3   OH246102   3.205   3.770  16.977  0.2219 -0.2296  0.2449
 8204TIP3    H146103   3.132   3.727  17.020 -0.7035 -0.1854 -1.2151
 8204TIP3    H246104   3.181   3.863  16.975  0.8989 -0.0246  0.8315
 8205TIP3   OH246105   1.234   2.656   5.425 -0.1250 -0.1434 -0.4165
 8205TIP3    H146106   1.274   2.607   5.496  0.4669  0.0555 -0.6084
 8205TIP3    H246107   1.171   2.714   5.468 -0.5406 -0.7809 -0.1564
 8206TIP3   OH246108   3.337   0.424   4.512  0.0387 -0.1036 -0.2426
 8206TIP3    H146109   3.317   0.423   4.418  1.1240 -0.1435 -0.4943
 8206TIP3    H246110   3.322   0.514   4.539  2.2588  0.5930 -1.0796
 8207TIP3   OH246111   0.817   4.579  13.064  0.2286  0.2443  0.3243
 8207TIP3    H146112   0.839   4.523  13.139 -0.2908 -0.6606 -0.1765
 8207TIP3    H246113   0.743   4.632  13.095  0.3052  0.1909  0.5993
 8208TIP3   OH246114   4.258   4.429  14.337  0.3828 -0.2071 -0.0350
 8208TIP3    H146115   4.163   4.437  14.339  0.0789 -2.9249  0.5135
 8208TIP3    H246116   4.278   4.367  14.406  2.5407  0.0406 -0.3769
 8209TIP3   OH246117   0.765   2.517  11.767  0.4451 -0.2164  0.0821
 8209TIP3    H146118   0.720   2.557  11.692 -1.5720  0.0455  1.3367
 8209TIP3    H246119   0.737   2.426  11.766  1.2693 -0.4752 -0.0784
 8210TIP3   OH246120   1.309   5.953   5.594  0.2208  0.4379  0.5276
 8210TIP3    H146121   1.273   6.041   5.611  0.8410  0.7009  0.4958
 8210TIP3    H246122   1.255   5.895   5.647  1.7054  1.1593  3.0127
 8211TIP3   OH246123   4.439   2.678   5.545 -0.5636  0.3717  0.4201
 8211TIP3    H146124   4.491   2.614   5.593  0.0037  0.2211 -0.3693
 8211TIP3    H246125   4.451   2.760   5.593 -0.7551  0.0353  1.0541
 8212TIP3   OH246126   4.084   1.335  16.458 -0.1286 -0.1424  0.1265
 8212TIP3    H146127   4.037   1.390  16.395  0.3386  1.0083  0.7497
 8212TIP3    H246128   4.060   1.371  16.543  1.3572  0.0686  0.4885
 8213TIP3   OH246129   0.968   1.317  11.575 -0.3893 -0.1080  0.4026
 8213TIP3    H146130   0.901   1.386  11.582 -1.9598 -1.4932 -0.2539
 8213TIP3    H246131   0.952   1.260  11.650 -0.5767 -0.9516 -0.2567
 8214TIP3   OH246132   6.679   3.094  12.912  0.1423 -0.1716 -0.1903
 8214TIP3    H146133   6.591   3.057  12.909  0.1232 -0.1422 -3.4520
 8214TIP3    H246134   6.734   3.027  12.870  1.3567  0.5451  0.2275
 8215TIP3   OH246135   0.833   3.988  14.018  0.4934 -0.9351 -0.6319
 8215TIP3    H146136   0.763   3.933  14.051  0.0804 -0.6892 -1.0938
 8215TIP3    H246137   0.794   4.036  13.945  0.4188  1.0647  0.6640
 8216TIP3   OH246138   1.854   1.193  14.645 -0.7760  0.2552 -0.0554
 8216TIP3    H146139   1.811   1.209  14.729  0.4002  0.0530  0.6219
 8216TIP3    H246140   1.923   1.130  14.666  0.1049  0.8751 -0.9996
 8217TIP3   OH246141   5.172   6.108  13.603 -0.4104  0.3602  0.2212
 8217TIP3    H146142   5.081   6.111  13.634 -0.4325 -0.4872  0.2470
 8217TIP3    H246143   5.166   6.072  13.515  0.0061 -0.9952  0.7137
 8218TIP3   OH246144   6.227   4.642  16.676 -0.9118 -0.5075  0.0241
 8218TIP3    H146145   6.183   4.661  16.593 -1.6687 -0.5030  0.4147
 8218TIP3    H246146   6.291   4.712  16.686  1.3837 -2.1413 -2.0294
 8219TIP3   OH246147   3.283   2.694   2.039  0.0932 -0.4418 -0.2651
 8219TIP3    H146148   3.194   2.665   2.020  0.1979 -0.2033 -1.1616
 8219TIP3    H246149   3.302   2.657   2.125 -1.3717  0.6554  0.5975
 8220TIP3   OH246150   1.708   2.679  14.629 -0.4587 -0.4930 -0.1743
 8220TIP3    H146151   1.627   2.662  14.679 -0.5261 -0.8767 -0.4134
 8220TIP3    H246152   1.772   2.704  14.696 -0.0697 -2.6559  0.3331
 8221TIP3   OH246153   4.299   4.707  16.519 -0.3566  0.1423  0.5277
 8221TIP3    H146154   4.328   4.697  16.609 -0.6631  0.1641  0.6283
 8221TIP3    H246155   4.255   4.625  16.498  0.7857 -0.3458 -0.0044
 8222TIP3   OH246156   0.066   3.333  14.634 -0.1803 -0.3202  0.2277
 8222TIP3    H146157   0.031   3.418  14.660 -0.0534 -0.3965  0.6584
 8222TIP3    H246158   0.104   3.349  14.547 -1.5193 -0.3112 -0.3813
 8223TIP3   OH246159   1.867   6.577  14.399 -0.0087  0.1822 -0.6725
 8223TIP3    H146160   1.953   6.535  14.405  0.0300  0.1887 -1.1620
 8223TIP3    H246161   1.864   6.637  14.473  0.9256  1.1297 -1.3804
 8224TIP3   OH246162   1.224   3.083  13.732 -0.1853 -0.0917  0.2644
 8224TIP3    H146163   1.240   3.174  13.705 -1.4556 -0.0752 -0.5250
 8224TIP3    H246164   1.195   3.039  13.652 -1.4074 -0.7251  1.0227
 8225TIP3   OH246165   1.524   2.714   1.465  0.0699 -0.0822  0.1878
 8225TIP3    H146166   1.613   2.693   1.437  1.3772  1.8435  2.5127
 8225TIP3    H246167   1.506   2.800   1.427 -0.3471  0.0327  0.6249
 8226TIP3   OH246168   6.819   1.845  14.296  0.8709 -0.4761  0.2781
 8226TIP3    H146169   6.843   1.831  14.204  2.1688 -0.6114  0.6153
 8226TIP3    H246170   6.736   1.893  14.293  1.6549  0.8637 -0.9729
 8227TIP3   OH246171   4.163   2.469   1.613  0.2540  0.6055  0.9373
 8227TIP3    H146172   4.190   2.476   1.704  0.9181 -0.3203  0.8286
 8227TIP3    H246173   4.233   2.418   1.571 -0.2822  0.5950  0.0206
 8228TIP3   OH246174   0.966   2.994   1.632 -0.3937 -0.8428  0.0399
 8228TIP3    H146175   1.009   3.018   1.550 -0.0278 -0.4158  0.3544
 8228TIP3    H246176   0.920   3.074   1.659 -0.5425 -0.9934  0.2316
 8229TIP3   OH246177   3.983   3.162  14.503 -0.4191  0.2737 -0.2473
 8229TIP3    H146178   3.931   3.091  14.466 -1.1190  1.5596 -1.8758
 8229TIP3    H246179   3.992   3.225  14.432  0.0889  1.8739  1.1524
 8230TIP3   OH246180   2.488   0.157   6.242  0.1090  0.0166 -0.4003
 8230TIP3    H146181   2.426   0.113   6.299 -1.7333  0.3792 -2.0245
 8230TIP3    H246182   2.505   0.241   6.284 -1.1192  0.2230 -0.2861
 8231TIP3   OH246183   4.902   5.696   3.683  0.3770  0.3891 -0.6194
 8231TIP3    H146184   4.867   5.767   3.737  2.8168  0.8923  0.4609
 8231TIP3    H246185   4.846   5.694   3.606 -0.7805  2.3664  0.0980
 8232TIP3   OH246186   1.346   4.342  17.032  0.4695  0.3354 -0.9482
 8232TIP3    H146187   1.325   4.328  17.125  1.2477 -0.6472 -0.9072
 8232TIP3    H246188   1.260   4.350  16.989  0.0662 -0.4976 -0.3343
 8233TIP3   OH246189   2.496   0.569   1.202 -0.0057  0.0139  0.2737
 8233TIP3    H146190   2.445   0.627   1.259 -0.6382  0.2814 -0.5583
 8233TIP3    H246191   2.431   0.519   1.153  0.5104 -1.7475  1.2769
 8234TIP3   OH246192   2.712   4.448  12.010 -0.2724 -0.1016 -0.2152
 8234TIP3    H146193   2.662   4.447  11.928 -1.2177 -2.4576  0.2814
 8234TIP3    H246194   2.747   4.359  12.017 -0.5076 -0.0665  2.0742
 8235TIP3   OH246195   3.661   0.539  13.842 -0.0344 -0.1974  0.0667
 8235TIP3    H146196   3.677   0.536  13.748  1.1984  0.0413  0.2579
 8235TIP3    H246197   3.690   0.454  13.874 -0.2854 -0.2119  0.2626
 8236TIP3   OH246198   4.308   1.245   0.884 -0.5346 -0.9565 -0.0037
 8236TIP3    H146199   4.380   1.301   0.855 -0.9564  0.2635  1.1575
 8236TIP3    H246200   4.344   1.195   0.957 -1.1131  0.5471  1.3991
 8237TIP3   OH246201   6.103   5.246  13.901  0.1192 -0.1667  0.0596
 8237TIP3    H146202   6.173   5.196  13.944 -0.6785 -0.3179  1.2397
 8237TIP3    H246203   6.024   5.222  13.949 -0.8589 -0.4640 -1.6301
 8238TIP3   OH246204   3.497   0.852  16.675 -0.1981  0.1293  0.3517
 8238TIP3    H146205   3.536   0.770  16.703  0.4009  0.6459  1.0702
 8238TIP3    H246206   3.547   0.920  16.720 -2.4319  0.7944  2.0031
 8239TIP3   OH246207   3.858   0.940   1.099  0.5729  0.2667  0.0925
 8239TIP3    H146208   3.857   0.872   1.166 -0.5582  0.7832  0.6319
 8239TIP3    H246209   3.909   0.903   1.027  0.5470 -0.8732  0.6448
 8240TIP3   OH246210   3.080   4.086   2.352  0.0567 -0.1547  0.2365
 8240TIP3    H146211   3.116   4.039   2.427  0.2545  1.0334  0.9112
 8240TIP3    H246212   3.085   4.024   2.280 -1.2598 -1.7469  1.4628
 8241TIP3   OH246213   5.334   5.266  11.891 -0.9227 -0.5058  0.2866
 8241TIP3    H146214   5.289   5.340  11.931 -1.3124 -0.4471 -0.2395
 8241TIP3    H246215   5.264   5.213  11.852 -0.5168  0.0487 -1.3093
 8242TIP3   OH246216   5.782   1.972  14.917  0.0305  0.0678 -0.3232
 8242TIP3    H146217   5.802   2.034  14.846 -1.2336 -0.6091 -1.2933
 8242TIP3    H246218   5.860   1.917  14.923  1.6266  2.2911  1.2358
 8243TIP3   OH246219   0.520   2.379  13.765 -0.4826  0.1844  0.1813
 8243TIP3    H146220   0.457   2.450  13.751  0.3569  0.8536 -0.3380
 8243TIP3    H246221   0.511   2.357  13.858  0.5429  2.2882  0.8479
 8244TIP3   OH246222   5.737   6.821  15.244 -0.1527  0.2444 -0.0868
 8244TIP3    H146223   5.825   6.815  15.281  0.3359 -1.8513 -1.3946
 8244TIP3    H246224   5.680   6.833  15.319  1.0543 -0.6893  1.0161
 8245TIP3   OH246225   2.374   5.562  11.536 -0.2318  1.0849 -0.2660
 8245TIP3    H146226   2.393   5.601  11.451  1.0388 -0.9704 -1.0009
 8245TIP3    H246227   2.456   5.569  11.585 -0.4335  0.7112  0.1321
 8246TIP3   OH246228   3.199   2.852  13.113  0.2151 -0.5020 -0.8314
 8246TIP3    H146229   3.174   2.939  13.083  0.0306 -0.1249  0.3622
 8246TIP3    H246230   3.118   2.813  13.145  0.8544  0.3657  2.1829
 8247TIP3   OH246231   4.117   4.526   3.794 -0.0609 -0.5261 -0.1670
 8247TIP3    H146232   4.067   4.474   3.857  0.4147 -2.6516 -1.4143
 8247TIP3    H246233   4.105   4.480   3.711  0.0145  1.6998 -1.4872
 8248TIP3   OH246234   0.977   5.155   3.510 -0.3709  0.4103 -0.0259
 8248TIP3    H146235   0.960   5.119   3.597 -2.5690  2.8710  0.6828
 8248TIP3    H246236   0.896   5.140   3.461 -1.0798  3.4011  0.0458
 8249TIP3   OH246237   2.007   4.988   2.888  0.2244 -0.6694  0.1005
 8249TIP3    H146238   1.937   4.981   2.823  0.8754  0.5019 -0.7672
 8249TIP3    H246239   2.079   5.029   2.841  0.7125  0.2307  1.5596
 8250TIP3   OH246240   1.056   2.215  15.616  0.5381 -0.2233  0.6698
 8250TIP3    H146241   1.062   2.155  15.690 -0.5303 -1.6700 -0.3647
 8250TIP3    H246242   0.974   2.191  15.572  0.9160  0.9017 -0.7203
 8251TIP3   OH246243   3.593   6.014   1.701  0.0408  0.2542  0.3020
 8251TIP3    H146244   3.687   6.023   1.718  0.0803  0.0328  0.2075
 8251TIP3    H246245   3.555   5.990   1.786  0.2089 -0.6436  0.1359
 8252TIP3   OH246246   3.660   4.926   4.804  0.6371 -0.3242  0.3197
 8252TIP3    H146247   3.654   5.021   4.813  0.5691 -0.4755  2.3741
 8252TIP3    H246248   3.734   4.911   4.746 -0.9424  1.0054 -2.1890
 8253TIP3   OH246249   1.462   2.054   0.836 -0.2401 -0.4177 -0.0445
 8253TIP3    H146250   1.494   2.111   0.766  1.7157  0.3891  1.4046
 8253TIP3    H246251   1.374   2.086   0.855  0.3100  1.2687 -0.1679
 8254TIP3   OH246252   5.668   3.446   5.266  0.3783 -0.4779 -0.6231
 8254TIP3    H146253   5.574   3.433   5.257 -0.0240  0.9678  1.0559
 8254TIP3    H246254   5.690   3.406   5.350  0.7937  1.2503  0.1354
 8255TIP3   OH246255   1.668   4.277   6.004  0.3330 -0.4605  0.0175
 8255TIP3    H146256   1.610   4.348   6.029  0.3594  0.0692 -1.3472
 8255TIP3    H246257   1.610   4.206   5.977  0.1972  0.7934 -3.3974
 8256TIP3   OH246258   5.531   5.751  13.091 -0.1054  0.4153  0.4785
 8256TIP3    H146259   5.539   5.813  13.019 -0.2185  0.6872  0.6996
 8256TIP3    H246260   5.480   5.797  13.158 -0.2155  0.0776  0.6348
 8257TIP3   OH246261   6.534   0.833  14.198  0.0030  0.4398  0.0323
 8257TIP3    H146262   6.629   0.845  14.200 -0.1149  1.2691  1.0885
 8257TIP3    H246263   6.519   0.780  14.119  1.7002 -2.9113  1.7363
 8258TIP3   OH246264   2.247   4.288  12.491 -0.0955 -0.7292 -0.1033
 8258TIP3    H146265   2.165   4.263  12.449 -0.5045 -0.6044  0.5977
 8258TIP3    H246266   2.259   4.380  12.467 -0.9030 -0.3319  0.9252
 8259TIP3   OH246267   3.848   1.957  12.618  0.6141 -0.2092  0.2298
 8259TIP3    H146268   3.811   1.875  12.586  0.4750 -0.1443  0.2264
 8259TIP3    H246269   3.934   1.962  12.575  1.3512 -1.1743  1.5173
 8260TIP3   OH246270   1.687   5.760  13.414  0.0422  0.0648  0.4805
 8260TIP3    H146271   1.733   5.810  13.347  0.5465 -0.2616  0.5807
 8260TIP3    H246272   1.595   5.761  13.386  0.5442 -2.2366 -1.6454
 8261TIP3   OH246273   2.956   1.384  13.510 -0.2643 -0.0457 -0.1022
 8261TIP3    H146274   2.916   1.461  13.549  1.7759  0.7969  0.4543
 8261TIP3    H246275   2.967   1.323  13.583 -0.1086 -0.0860 -0.1582
 8262TIP3   OH246276   2.041   1.890  17.046  0.3502 -0.1129 -0.2527
 8262TIP3    H146277   2.105   1.819  17.043  0.7996  0.2369  0.7297
 8262TIP3    H246278   2.089   1.966  17.014  0.3039  0.0621  0.0962
 8263TIP3   OH246279   6.498   6.455   3.796 -0.2455  0.1060  0.0100
 8263TIP3    H146280   6.500   6.375   3.744  1.4049  0.2626 -0.2243
 8263TIP3    H246281   6.450   6.432   3.875  0.2162 -1.1155 -0.0509
 8264TIP3   OH246282   1.285   1.782  11.837  0.2350 -0.5706 -0.3682
 8264TIP3    H146283   1.280   1.692  11.805  1.6083 -1.1723  0.9871
 8264TIP3    H246284   1.349   1.824  11.780 -0.7326 -0.2850 -1.2854
 8265TIP3   OH246285   6.624   3.958  17.025  0.0483 -0.8668  0.3636
 8265TIP3    H146286   6.682   4.026  16.990  1.8677 -0.8742  3.0522
 8265TIP3    H246287   6.629   3.888  16.960  0.3565  0.4432 -1.1030
 8266TIP3   OH246288   2.073   3.308  16.984 -0.1355  0.1920 -0.7081
 8266TIP3    H146289   2.116   3.385  16.947  0.9731 -0.4781 -0.8582
 8266TIP3    H246290   2.058   3.251  16.909 -1.1794  0.3373 -0.6335
 8267TIP3   OH246291   6.322   6.471  16.167 -0.3971 -0.2659  0.2167
 8267TIP3    H146292   6.401   6.503  16.122 -0.7283 -0.2433 -0.3528
 8267TIP3    H246293   6.340   6.487  16.259 -0.5132  1.5256 -0.0242
 8268TIP3   OH246294   3.855   0.895  13.621  0.1902  0.0455  0.0340
 8268TIP3    H146295   3.816   0.852  13.545 -0.6382 -0.4452  0.7112
 8268TIP3    H246296   3.809   0.856  13.696  0.3368  1.1908  0.7324
 8269TIP3   OH246297   1.758   4.223   2.822  0.2114 -0.1658  0.4050
 8269TIP3    H146298   1.729   4.314   2.829 -0.3305 -0.3483  0.5658
 8269TIP3    H246299   1.695   4.182   2.763  2.0663  0.2259 -2.0166
 8270TIP3   OH246300   6.300   2.893  10.766  0.0139 -0.0787 -0.0722
 8270TIP3    H146301   6.353   2.929  10.695 -2.4836 -1.1524 -2.6816
 8270TIP3    H246302   6.218   2.942  10.762 -0.4335 -0.5838  1.7376
 8271TIP3   OH246303   5.061   3.771   0.535  0.2274 -0.2652 -0.2202
 8271TIP3    H146304   5.004   3.697   0.559 -0.5344  0.1091 -0.8136
 8271TIP3    H246305   5.146   3.731   0.516 -0.5558 -1.2159 -1.9993
 8272TIP3   OH246306   1.899   2.993   6.216  0.4734 -0.1872  0.1046
 8272TIP3    H146307   1.808   2.992   6.244 -0.0106  2.1128 -1.1970
 8272TIP3    H246308   1.949   3.000   6.297 -0.4304 -1.7379  0.8536
 8273TIP3   OH246309   6.169   1.857  16.741  0.9988 -0.1563  0.3461
 8273TIP3    H146310   6.211   1.925  16.794  2.1240 -0.7236  0.2087
 8273TIP3    H246311   6.241   1.816  16.692  0.4292 -1.7706  0.7902
 8274TIP3   OH246312   1.386   2.167  13.460 -0.2132 -0.3761  0.4572
 8274TIP3    H146313   1.382   2.073  13.441  1.0165 -0.5189  0.8327
 8274TIP3    H246314   1.312   2.183  13.519 -2.0699 -0.5654 -1.7023
 8275TIP3   OH246315   4.789   4.958   2.294  0.9665  0.1748  0.4987
 8275TIP3    H146316   4.791   5.052   2.311  0.4042  0.2271  0.2794
 8275TIP3    H246317   4.744   4.921   2.370 -0.3060  0.2672 -0.1772
 8276TIP3   OH246318   0.182   0.735   3.056  0.2351 -0.0994 -0.1534
 8276TIP3    H146319   0.270   0.720   3.022  0.3667  0.8417 -0.2640
 8276TIP3    H246320   0.127   0.671   3.010  0.9471 -1.0994  0.3623
 8277TIP3   OH246321   0.806   3.433  15.754  0.7573 -0.5330 -0.1461
 8277TIP3    H146322   0.716   3.467  15.748  0.9273 -0.0727 -0.1244
 8277TIP3    H246323   0.815   3.407  15.846  0.6785 -0.4909 -0.1260
 8278TIP3   OH246324   6.556   2.745   5.266  0.2127  0.3261  0.3442
 8278TIP3    H146325   6.463   2.754   5.283  0.0296 -0.1149 -0.3721
 8278TIP3    H246326   6.597   2.743   5.352 -0.4811  0.1362  0.6700
 8279TIP3   OH246327   2.693   1.312   4.128  0.0642  0.6800  0.3401
 8279TIP3    H146328   2.705   1.234   4.181 -0.9217  1.1261  1.2682
 8279TIP3    H246329   2.755   1.375   4.164  1.1113  0.2415 -0.6377
 8280TIP3   OH246330   5.116   1.846   5.081  0.1382  0.9601  0.0183
 8280TIP3    H146331   5.107   1.824   5.173 -2.1041 -0.3087 -0.4510
 8280TIP3    H246332   5.034   1.890   5.058  0.1437  0.1883 -1.6341
 8281TIP3   OH246333   6.580   0.725   4.886 -0.2455  0.3349 -0.3755
 8281TIP3    H146334   6.648   0.791   4.875 -1.5240  1.8232  0.2687
 8281TIP3    H246335   6.626   0.651   4.926  1.3465  0.5469 -1.6736
 8282TIP3   OH246336   6.044   0.238  13.880  0.1420 -0.1449 -0.5094
 8282TIP3    H146337   6.122   0.288  13.858  0.7026 -1.3902 -1.4926
 8282TIP3    H246338   5.976   0.272  13.823  0.2963  0.0514 -0.5776
 8283TIP3   OH246339   3.154   5.733   1.408 -0.6047 -0.0440  0.1400
 8283TIP3    H146340   3.156   5.641   1.433 -3.1027  0.3161  2.0481
 8283TIP3    H246341   3.063   5.749   1.385 -0.2221  1.9576 -0.1222
 8284TIP3   OH246342   6.457   4.031   2.581  0.5481 -0.0904 -0.1782
 8284TIP3    H146343   6.492   4.087   2.511 -0.4537  1.7318  0.6917
 8284TIP3    H246344   6.487   3.943   2.559  2.3743  0.7992 -1.5290
 8285TIP3   OH246345   4.819   0.008  16.276 -0.4559 -0.2767 -0.2768
 8285TIP3    H146346   4.811   0.050  16.190 -1.6323 -1.2687 -0.6831
 8285TIP3    H246347   4.741  -0.047  16.283 -0.6705  0.2110  1.6855
 8286TIP3   OH246348   1.384   4.482   5.813  0.5558  0.4794 -0.6074
 8286TIP3    H146349   1.356   4.519   5.897  0.9741  1.2278 -0.7883
 8286TIP3    H246350   1.365   4.388   5.821 -0.4698  0.7131 -0.1198
 8287TIP3   OH246351   2.268   2.055   3.035 -0.4058 -0.0047  0.2924
 8287TIP3    H146352   2.209   2.030   3.107  0.8237  0.3691  1.4724
 8287TIP3    H246353   2.254   1.988   2.968 -2.0733  0.0214  0.5831
 8288TIP3   OH246354   6.106   3.868   5.501  0.1183 -0.1792  0.1030
 8288TIP3    H146355   6.059   3.936   5.453 -1.7029  1.5973  3.9904
 8288TIP3    H246356   6.039   3.818   5.546  1.6913 -0.9761  1.7087
 8289TIP3   OH246357   2.275   0.133  11.336 -0.1282 -0.1788 -0.3708
 8289TIP3    H146358   2.338   0.123  11.265 -1.4161 -1.0089 -1.4411
 8289TIP3    H246359   2.227   0.213  11.316 -0.4357 -0.3656 -0.3900
 8290TIP3   OH246360   5.340   0.642   3.555  0.4903 -0.0366  0.8306
 8290TIP3    H146361   5.282   0.576   3.517  0.3995 -0.1325  1.1319
 8290TIP3    H246362   5.342   0.712   3.491  1.3360 -0.7381  0.0725
 8291TIP3   OH246363   4.435   0.021   3.660  0.2138 -0.5226 -0.6019
 8291TIP3    H146364   4.417   0.103   3.614 -0.9584 -1.0787 -1.1705
 8291TIP3    H246365   4.410   0.038   3.751 -0.3000 -0.3253 -0.7744
 8292TIP3   OH246366   2.779   4.531   2.400  0.3171 -0.1706 -0.4128
 8292TIP3    H146367   2.817   4.449   2.432  2.7076  0.7646 -0.6444
 8292TIP3    H246368   2.811   4.538   2.310 -2.2219 -0.3247 -1.4032
 8293TIP3   OH246369   5.717   5.954   0.037  0.4890  0.1638 -0.2130
 8293TIP3    H146370   5.802   5.968   0.078  1.1799 -1.0220 -1.1646
 8293TIP3    H246371   5.733   5.969  -0.056 -0.6871  1.3215 -0.2505
 8294TIP3   OH246372   3.945   4.125  15.834 -0.0783 -0.0783  0.1763
 8294TIP3    H146373   4.013   4.143  15.768 -0.2462 -1.4738 -0.4180
 8294TIP3    H246374   3.980   4.162  15.915  0.7243  0.5304 -0.4332
 8295TIP3   OH246375   4.929   6.817   4.002  0.8337  0.1890  0.2541
 8295TIP3    H146376   4.955   6.865   4.081 -1.0428  1.0549  0.4130
 8295TIP3    H246377   4.968   6.730   4.013  3.4960  1.3134  0.4253
 8296TIP3   OH246378   4.560   5.045  11.164 -0.2125  0.6077 -0.3100
 8296TIP3    H146379   4.533   5.133  11.139  0.4476  1.1160  0.6832
 8296TIP3    H246380   4.496   4.987  11.124 -0.8488  1.5639 -0.6956
 8297TIP3   OH246381   0.851   0.557  11.962 -0.6057 -0.0266  0.7155
 8297TIP3    H146382   0.770   0.591  12.001 -0.2949  0.4112  0.9811
 8297TIP3    H246383   0.897   0.634  11.930  0.5844 -0.0729  2.2170
 8298TIP3   OH246384   4.444   0.153  17.030  0.2072  0.2435  0.3304
 8298TIP3    H146385   4.466   0.066  17.066  1.8942  0.9230  1.0390
 8298TIP3    H246386   4.529   0.193  17.011 -0.5808  1.0332 -1.8158
 8299TIP3   OH246387   5.433   5.383  15.961 -0.3817  0.2075  0.2124
 8299TIP3    H146388   5.344   5.415  15.975 -1.0301 -0.6130 -1.6475
 8299TIP3    H246389   5.466   5.435  15.888  0.7091  0.5269  0.9072
 8300TIP3   OH246390   0.719   6.537   0.770 -0.4804  0.4096 -0.1229
 8300TIP3    H146391   0.773   6.586   0.832 -0.2397  1.0696 -0.8314
 8300TIP3    H246392   0.766   6.544   0.687 -1.4624  0.6759 -0.6719
 8301TIP3   OH246393   5.463   4.837   2.669 -0.3726 -0.1340 -0.1429
 8301TIP3    H146394   5.394   4.856   2.732 -1.3994  0.1880 -1.3317
 8301TIP3    H246395   5.423   4.851   2.583  1.2135  0.2301 -0.8749
 8302TIP3   OH246396   3.198   4.941   5.728  0.2778  0.0374 -0.7779
 8302TIP3    H146397   3.208   5.015   5.788  0.4413  0.4567 -1.3013
 8302TIP3    H246398   3.110   4.951   5.692 -0.2954 -0.9238  0.2965
 8303TIP3   OH246399   2.247   0.285   1.353  0.7634  0.2851  0.8991
 8303TIP3    H146400   2.239   0.373   1.314  1.6436 -0.5120 -1.2368
 8303TIP3    H246401   2.332   0.253   1.323  0.6290 -1.1516  1.9687
 8304TIP3   OH246402   6.626   5.507   6.315 -0.1230  0.7771 -0.0747
 8304TIP3    H146403   6.666   5.432   6.359  1.5416  0.2083 -2.3849
 8304TIP3    H246404   6.683   5.581   6.338  1.6428  0.2113 -2.2760
 8305TIP3   OH246405   0.136   6.628  10.591  0.3797  0.0191 -0.6514
 8305TIP3    H146406   0.050   6.587  10.599  0.2510  0.1362 -1.3226
 8305TIP3    H246407   0.116   6.719  10.570  0.6521  0.6233  1.5273
 8306TIP3   OH246408   1.245   5.586  15.450 -0.7792 -0.0786 -0.4045
 8306TIP3    H146409   1.328   5.613  15.490 -1.3985  0.3624  0.6099
 8306TIP3    H246410   1.260   5.495  15.424  0.1090  0.0808 -0.4819
 8307TIP3   OH246411   0.719   6.427  15.072 -0.1542 -0.1266 -0.3371
 8307TIP3    H146412   0.748   6.416  14.981 -0.0066 -1.5797 -0.1424
 8307TIP3    H246413   0.669   6.347  15.090 -0.6715  0.4137  0.6832
 8308TIP3   OH246414   6.328   2.001  16.905 -1.1278  0.3356 -0.5286
 8308TIP3    H146415   6.338   1.965  16.993 -1.3550  0.3550 -0.4953
 8308TIP3    H246416   6.407   2.053  16.891 -1.9663  1.9016  0.4057
 8309TIP3   OH246417   2.763   3.189   6.108 -0.5927 -1.2276 -0.9130
 8309TIP3    H146418   2.713   3.224   6.182  0.7135  0.0317 -0.5817
 8309TIP3    H246419   2.846   3.161   6.146 -0.1343 -1.1241 -1.8080
 8310TIP3   OH246420   3.518   4.189  15.009 -0.7120 -0.3577  0.1536
 8310TIP3    H146421   3.423   4.191  14.995 -1.1490  0.3304  2.6259
 8310TIP3    H246422   3.548   4.276  14.983 -0.8694 -0.3697 -0.0629
 8311TIP3   OH246423   0.158   0.835  15.804 -0.1648 -0.1927 -0.5487
 8311TIP3    H146424   0.156   0.929  15.791 -0.1342  0.0918  1.2340
 8311TIP3    H246425   0.102   0.800  15.735  0.3917  1.0524 -1.6662
 8312TIP3   OH246426   3.380   3.046  15.818  0.3845 -0.9140 -0.6620
 8312TIP3    H146427   3.463   3.000  15.828  1.3219  0.8564  0.1391
 8312TIP3    H246428   3.331   3.024  15.897  1.3764  0.4206  0.3952
 8313TIP3   OH246429   2.507   2.846   3.834 -0.2632 -0.1601 -0.0806
 8313TIP3    H146430   2.441   2.777   3.828 -1.0052  0.6189 -1.4992
 8313TIP3    H246431   2.457   2.927   3.839  0.5942  0.3114  1.5913
 8314TIP3   OH246432   6.704   5.905  11.800 -0.5031  0.0334 -0.1074
 8314TIP3    H146433   6.622   5.857  11.793 -0.2038 -0.3018 -2.0796
 8314TIP3    H246434   6.683   5.994  11.771 -0.5088  0.4058  1.0117
 8315TIP3   OH246435   4.740   3.397  12.062  0.1584 -0.3608 -0.3288
 8315TIP3    H146436   4.817   3.365  12.015  2.5000  1.8402  1.6995
 8315TIP3    H246437   4.762   3.386  12.155 -1.5011  1.3439  0.3287
 8316TIP3   OH246438   2.809   0.630  16.568  0.6082 -0.4604 -0.2183
 8316TIP3    H146439   2.858   0.659  16.490  1.2959  0.7992  0.6492
 8316TIP3    H246440   2.731   0.587  16.532 -0.1469  1.9036 -1.6083
 8317TIP3   OH246441   2.594   4.011  12.501 -0.3278  0.2190 -0.3608
 8317TIP3    H146442   2.541   4.023  12.422  1.1797  2.7049 -1.1312
 8317TIP3    H246443   2.546   4.057  12.570 -0.4088  0.2586 -0.4435
 8318TIP3   OH246444   4.428   6.773  12.555  0.4023 -0.9966 -0.4114
 8318TIP3    H146445   4.392   6.731  12.477 -0.9493  0.2195 -0.4731
 8318TIP3    H246446   4.404   6.715  12.627  0.0590 -1.1969 -0.6890
 8319TIP3   OH246447   4.187   2.921  11.208  0.3989  0.3655 -0.1177
 8319TIP3    H146448   4.193   2.912  11.113  0.7416  0.4673 -0.1048
 8319TIP3    H246449   4.261   2.976  11.232  1.2609 -0.9504  0.3814
 8320TIP3   OH246450   5.403   6.146   4.280  0.4082 -0.0208 -0.0165
 8320TIP3    H146451   5.459   6.107   4.348  0.7774  0.4817 -0.0230
 8320TIP3    H246452   5.463   6.201   4.229 -0.4608  2.3751  1.3869
 8321TIP3   OH246453   6.383   5.975   5.038  0.2961  0.8257  0.7023
 8321TIP3    H146454   6.412   5.892   5.001 -0.4366 -0.2021  2.2910
 8321TIP3    H246455   6.464   6.021   5.060  0.7280  0.0699  0.7478
 8322TIP3   OH246456   4.684   4.346  13.287  0.8056  0.0370 -0.0709
 8322TIP3    H146457   4.709   4.309  13.202  1.6563  1.1880 -0.3534
 8322TIP3    H246458   4.645   4.431  13.265 -2.4765 -1.2181  0.4467
 8323TIP3   OH246459   2.582   2.591   4.819 -0.0223 -0.2709 -0.1195
 8323TIP3    H146460   2.626   2.560   4.898 -0.3854 -1.2169 -0.2793
 8323TIP3    H246461   2.642   2.569   4.748  0.6805  1.3024 -0.0721
 8324TIP3   OH246462   0.384   6.170   1.791  0.5028  0.1775 -0.1133
 8324TIP3    H146463   0.410   6.262   1.789 -0.7564  0.5457 -0.5826
 8324TIP3    H246464   0.297   6.168   1.750  1.0231 -1.3907 -1.2724
 8325TIP3   OH246465   0.665   4.305   6.744 -0.6232  0.1294  0.1997
 8325TIP3    H146466   0.699   4.262   6.823 -3.2815 -0.1873  1.3090
 8325TIP3    H246467   0.666   4.398   6.765 -1.0657  0.0652  0.5365
 8326TIP3   OH246468   0.403   5.461   5.765 -0.4537 -0.3347  0.2675
 8326TIP3    H146469   0.309   5.469   5.749 -0.3258  0.0855 -0.3277
 8326TIP3    H246470   0.418   5.515   5.843 -0.5925  0.2297 -0.0851
 8327TIP3   OH246471   1.902   0.267   4.365  0.1887 -0.5464 -0.4347
 8327TIP3    H146472   1.952   0.347   4.349  0.4913 -0.0621  2.3160
 8327TIP3    H246473   1.812   0.290   4.343  0.4234  0.2564 -0.5882
 8328TIP3   OH246474   3.192   0.201  13.856 -0.2248  0.0895  0.7683
 8328TIP3    H146475   3.107   0.245  13.846 -0.1108  0.1375 -0.0826
 8328TIP3    H246476   3.225   0.193  13.766  0.8275  0.3849  1.1134
 8329TIP3   OH246477   3.679   4.981  10.932 -0.2665  0.4323  0.2265
 8329TIP3    H146478   3.632   5.062  10.914  1.4748  1.1216 -1.5134
 8329TIP3    H246479   3.691   4.939  10.847 -2.0053 -2.2453  1.1584
 8330TIP3   OH246480   0.305   4.630  11.621 -1.0024  0.0628 -0.5703
 8330TIP3    H146481   0.282   4.647  11.530  0.1564 -0.7309 -1.0228
 8330TIP3    H246482   0.251   4.555  11.646  1.3212 -2.1815 -1.8161
 8331TIP3   OH246483   6.052   1.645  16.901 -0.0004  0.6075  0.0193
 8331TIP3    H146484   5.976   1.677  16.949  1.0548  2.9924  0.2343
 8331TIP3    H246485   6.092   1.723  16.863  1.9235 -0.6481 -0.7347
 8332TIP3   OH246486   0.297   1.417  14.726  0.0181 -0.1560 -0.1355
 8332TIP3    H146487   0.325   1.402  14.817 -0.0295  1.1471  0.1120
 8332TIP3    H246488   0.339   1.499  14.701 -2.7845  1.4429 -0.0266
 8333TIP3   OH246489   2.473   4.954   2.623  0.6440  0.5056 -0.3188
 8333TIP3    H146490   2.501   5.041   2.594 -0.3876  0.9785  0.0582
 8333TIP3    H246491   2.388   4.941   2.582  0.8327 -0.3766 -0.4477
 8334TIP3   OH246492   5.636   0.437  15.217 -0.2504 -0.3827  0.3210
 8334TIP3    H146493   5.693   0.372  15.176 -0.5956 -0.0189 -0.7935
 8334TIP3    H246494   5.609   0.397  15.300  3.8041  0.5467  2.3569
 8335TIP3   OH246495   3.218   6.056   6.062  0.3280  0.2132 -0.0617
 8335TIP3    H146496   3.300   6.064   6.013  0.5875  2.1874  0.6165
 8335TIP3    H246497   3.245   6.052   6.154 -0.1665 -3.2929  0.0492
 8336TIP3   OH246498   4.397   3.678  10.337 -0.2590  0.4071 -0.2544
 8336TIP3    H146499   4.488   3.706  10.337 -0.2960  0.7810  2.2977
 8336TIP3    H246500   4.401   3.584  10.355 -0.3572  0.0640 -1.8972
 8337TIP3   OH246501   0.991   3.053  13.176 -0.0940  0.5796  0.2267
 8337TIP3    H146502   0.939   2.994  13.231 -0.2793  0.4578 -0.0775
 8337TIP3    H246503   0.964   3.141  13.203 -0.7294  0.5174 -0.1821
 8338TIP3   OH246504   0.998   0.011   4.736 -0.3299 -0.1190  0.6797
 8338TIP3    H146505   0.979   0.092   4.689  2.2677 -0.4715 -1.1899
 8338TIP3    H246506   0.941  -0.055   4.694 -1.0445  0.3385  0.9074
 8339TIP3   OH246507   1.719   5.428   1.896  0.3909 -0.2516  0.4696
 8339TIP3    H146508   1.763   5.476   1.826 -1.0679  2.0110  0.9822
 8339TIP3    H246509   1.756   5.464   1.977 -1.8948  1.3653  0.9004
 8340TIP3   OH246510   2.403   5.625  15.290 -0.6539  0.7526  0.2734
 8340TIP3    H146511   2.478   5.683  15.301 -0.9153  1.4532 -1.3164
 8340TIP3    H246512   2.415   5.557  15.356  1.6976  0.5184 -0.2966
 8341TIP3   OH246513   5.326   0.531  15.841  0.3281  0.2642  0.3006
 8341TIP3    H146514   5.311   0.508  15.750  0.0099 -1.3694  0.7312
 8341TIP3    H246515   5.410   0.489  15.862 -0.0229 -0.1141  0.9816
 8342TIP3   OH246516   3.579   5.501  12.070  0.2335 -0.7525  0.6015
 8342TIP3    H146517   3.573   5.415  12.112  0.1236 -0.7243  0.6466
 8342TIP3    H246518   3.670   5.527  12.081  0.2205 -0.7728  0.7721
 8343TIP3   OH246519   4.779   1.266  12.806  0.0591  0.1371 -0.1396
 8343TIP3    H146520   4.713   1.312  12.859  1.0242  1.3019  0.1065
 8343TIP3    H246521   4.852   1.252  12.866  0.6367  0.2478 -0.8070
 8344TIP3   OH246522   5.383   6.660   2.023 -0.4832  0.1649 -0.1098
 8344TIP3    H146523   5.454   6.659   2.087  0.1386 -2.9484 -0.6610
 8344TIP3    H246524   5.303   6.660   2.075 -0.0034 -0.9053  0.6630
 8345TIP3   OH246525   2.745   5.770   5.518 -0.3569 -0.2683  0.5416
 8345TIP3    H146526   2.662   5.817   5.513 -0.7855 -1.0654 -0.1122
 8345TIP3    H246527   2.799   5.822   5.577 -1.0493  0.6728  0.3612
 8346TIP3   OH246528   5.722   0.469  14.366 -0.0750 -0.2050 -0.1798
 8346TIP3    H146529   5.736   0.552  14.321 -0.0874 -0.6524 -1.0156
 8346TIP3    H246530   5.668   0.417  14.306  1.3954 -1.4816 -0.4608
 8347TIP3   OH246531   0.843   4.633  13.425 -0.0934 -0.3648 -0.0776
 8347TIP3    H146532   0.882   4.621  13.512  1.8153  1.3056 -0.6002
 8347TIP3    H246533   0.859   4.550  13.380  1.6158 -0.2537  0.2409
 8348TIP3   OH246534   1.584   0.871   3.931  0.6429  0.1740 -0.4577
 8348TIP3    H146535   1.539   0.787   3.942  0.1184  0.5345  0.2496
 8348TIP3    H246536   1.641   0.858   3.855  0.2227 -0.6681 -0.6421
 8349TIP3   OH246537   4.035   6.270  15.078 -0.0786  0.0063  0.2179
 8349TIP3    H146538   4.030   6.224  15.161 -2.5087  0.6004  0.5020
 8349TIP3    H246539   3.960   6.237  15.028 -0.4906  1.8433 -0.4828
 8350TIP3   OH246540   2.963   2.073   3.308 -0.4290  0.4673 -0.1018
 8350TIP3    H146541   2.903   2.068   3.383  1.0052 -0.6132  1.0184
 8350TIP3    H246542   3.019   2.148   3.327  0.2329 -0.0847  0.1423
 8351TIP3   OH246543   6.522   0.937   3.334  0.4088  0.0529  0.3573
 8351TIP3    H146544   6.552   0.957   3.423 -0.0811 -0.0336  0.5452
 8351TIP3    H246545   6.427   0.927   3.343  0.3436  0.1676 -0.1989
 8352TIP3   OH246546   0.619   0.905   3.071  0.0815 -0.0630 -0.0928
 8352TIP3    H146547   0.538   0.940   3.108 -0.6125  0.1033 -1.6606
 8352TIP3    H246548   0.656   0.977   3.020  0.6994 -0.4297 -0.1797
 8353TIP3   OH246549   5.447   0.304   6.354 -0.2170 -0.1033 -0.1074
 8353TIP3    H146550   5.494   0.230   6.315  2.0532  1.7587 -1.1678
 8353TIP3    H246551   5.362   0.303   6.310  0.1092 -1.5023 -0.7955
 8354TIP3   OH246552   1.458   5.328   1.631 -0.5557 -0.4937 -0.1618
 8354TIP3    H146553   1.424   5.239   1.617  0.5264 -1.0690  0.7446
 8354TIP3    H246554   1.445   5.344   1.725 -0.5692  0.2348 -0.2848
 8355TIP3   OH246555   2.704   0.056   0.633  0.4090 -0.9444  0.4892
 8355TIP3    H146556   2.669   0.105   0.559  0.2126  1.5678  2.1444
 8355TIP3    H246557   2.775   0.111   0.667  0.0492 -1.6843  2.5798
 8356TIP3   OH246558   2.551   0.424   5.539 -0.0387  0.4801  0.1034
 8356TIP3    H146559   2.475   0.482   5.534 -1.1945 -0.7719  1.8217
 8356TIP3    H246560   2.517   0.343   5.577  1.9255 -0.5914 -0.2700
 8357TIP3   OH246561   2.603   6.251   2.122 -0.6564  0.6111 -0.3538
 8357TIP3    H146562   2.586   6.189   2.051 -1.0645 -1.2486  1.2460
 8357TIP3    H246563   2.524   6.303   2.128 -1.4415 -0.5812 -0.0084
 8358TIP3   OH246564   6.118   1.697   1.667 -0.1150  0.0874 -0.3330
 8358TIP3    H146565   6.201   1.697   1.714  0.3148 -0.8862 -1.0499
 8358TIP3    H246566   6.097   1.789   1.655  0.2010  0.3598  0.9741
 8359TIP3   OH246567   3.920   6.355   1.102 -0.5077  0.1103  0.0608
 8359TIP3    H146568   3.913   6.329   1.010  0.1154 -0.4484  0.1548
 8359TIP3    H246569   3.877   6.440   1.107 -1.3422 -0.2615 -0.5662
 8360TIP3   OH246570   2.234   1.530   0.930 -0.1561 -0.2433 -0.9446
 8360TIP3    H146571   2.282   1.573   1.001 -1.2210  0.3614 -0.5653
 8360TIP3    H246572   2.301   1.509   0.865  0.6066  0.6490 -0.4707
 8361TIP3   OH246573   0.809   1.990   3.135 -0.2693  0.4753  0.0290
 8361TIP3    H146574   0.868   2.065   3.121  0.1315  0.4700  1.5190
 8361TIP3    H246575   0.801   1.983   3.230 -2.1708  0.0610 -0.1120
 8362TIP3   OH246576   3.703   0.610  12.238  0.1371 -0.5345  0.0356
 8362TIP3    H146577   3.658   0.594  12.322 -1.7846 -1.7309 -1.1263
 8362TIP3    H246578   3.756   0.532  12.225  0.1059 -0.5430 -0.0409
 8363TIP3   OH246579   4.154   1.111  13.850  0.1597 -0.1413 -0.3950
 8363TIP3    H146580   4.230   1.144  13.802  1.0478 -0.9550  0.4146
 8363TIP3    H246581   4.124   1.186  13.901  0.5312  0.1421 -0.5845
 8364TIP3   OH246582   6.405   2.445  12.181  0.8484 -0.1176  0.7735
 8364TIP3    H146583   6.376   2.498  12.255 -0.9403 -0.5053  0.3946
 8364TIP3    H246584   6.361   2.361  12.194  1.2953 -0.5104 -0.2015
 8365TIP3   OH246585   2.946   6.218   5.275 -0.5678 -0.3840  0.8095
 8365TIP3    H146586   2.913   6.280   5.339  1.6329 -0.2821  1.9453
 8365TIP3    H246587   2.897   6.137   5.292 -2.3296  0.5597  0.3683
 8366TIP3   OH246588   2.607   3.374  11.388  0.0809  0.3482 -0.7695
 8366TIP3    H146589   2.530   3.349  11.440 -0.2611  1.8046 -0.5160
 8366TIP3    H246590   2.585   3.347  11.298  0.4423 -1.6791 -0.2964
 8367TIP3   OH246591   4.109   2.806   1.350 -0.8856 -0.5754 -0.0712
 8367TIP3    H146592   4.058   2.757   1.415  0.0346 -0.8587  0.4651
 8367TIP3    H246593   4.166   2.740   1.310  0.5354  0.0540  0.8226
 8368TIP3   OH246594   1.801   6.390  15.287 -0.1473  0.2317 -0.2642
 8368TIP3    H146595   1.836   6.327  15.224  1.0701 -0.5016  1.1043
 8368TIP3    H246596   1.706   6.384  15.276  0.0222  0.3659 -2.2234
 8369TIP3   OH246597   5.554   4.792  11.238 -0.1617 -0.8054  0.0505
 8369TIP3    H146598   5.535   4.711  11.191 -0.8303 -0.7207  0.1634
 8369TIP3    H246599   5.647   4.786  11.260  0.1910 -0.7947 -1.3576
 8370TIP3   OH246600   5.187   0.654  11.828  0.6719  0.2265 -0.0721
 8370TIP3    H146601   5.171   0.744  11.798  0.2895  0.5075  0.9493
 8370TIP3    H246602   5.110   0.605  11.798  1.4719 -0.0762 -1.7778
 8371TIP3   OH246603   0.330   1.027  15.138 -0.3221 -0.2145 -0.1158
 8371TIP3    H146604   0.278   1.060  15.212 -0.0381 -2.6823  1.2940
 8371TIP3    H246605   0.417   1.011  15.175  0.6969  1.1954 -1.7597
 8372TIP3   OH246606   3.258   2.315  11.457  0.0013  0.7090 -0.3047
 8372TIP3    H146607   3.192   2.264  11.410  0.3571  0.4309 -0.5100
 8372TIP3    H246608   3.223   2.324  11.545  0.7096 -1.3778  0.2411
 8373TIP3   OH246609   2.495   4.711   0.352 -0.1136 -0.4147  0.7777
 8373TIP3    H146610   2.526   4.801   0.367  0.0466 -0.3462  0.0937
 8373TIP3    H246611   2.409   4.708   0.394 -1.8063  1.1950 -2.2360
 8374TIP3   OH246612   6.601   0.780  15.067 -0.1358 -0.0678  0.2520
 8374TIP3    H146613   6.659   0.836  15.016  1.0403 -1.8719 -0.4668
 8374TIP3    H246614   6.513   0.810  15.044  0.4136  0.5290 -1.2155
 8375TIP3   OH246615   3.644   4.659   2.177  0.7432 -0.1861 -0.3745
 8375TIP3    H146616   3.650   4.745   2.217 -0.7711  0.3716 -1.2580
 8375TIP3    H246617   3.705   4.605   2.227  3.2987  1.8428 -1.0901
 8376TIP3   OH246618   1.759   3.555   1.192  0.4708  0.0527 -0.2336
 8376TIP3    H146619   1.738   3.544   1.100 -0.2108 -0.2886 -0.0388
 8376TIP3    H246620   1.786   3.647   1.200  0.2608  0.1547 -0.7132
 8377TIP3   OH246621   5.682   2.836   4.626 -0.0938 -0.2135  0.4544
 8377TIP3    H146622   5.627   2.897   4.579 -0.4022 -0.4049  0.5654
 8377TIP3    H246623   5.679   2.755   4.575  1.9383  0.4374 -0.8251
 8378TIP3   OH246624   4.150   1.397   3.058  0.3188  0.2333  0.0757
 8378TIP3    H146625   4.057   1.378   3.072  0.3994 -0.5359 -0.4008
 8378TIP3    H246626   4.194   1.359   3.134  0.4930 -1.6899 -0.9341
 8379TIP3   OH246627   2.079   1.764  12.704 -0.5590 -0.3046 -0.7567
 8379TIP3    H146628   2.003   1.771  12.762  0.3096 -0.6388  0.4769
 8379TIP3    H246629   2.043   1.769  12.616 -1.8805  0.8149 -0.1920
 8380TIP3   OH246630   2.711   5.050   5.108 -0.4304 -0.7054 -0.1766
 8380TIP3    H146631   2.775   5.112   5.143 -0.0419 -0.4469 -1.2950
 8380TIP3    H246632   2.628   5.074   5.149 -0.1289  0.0548 -0.0073
 8381TIP3   OH246633   2.380   2.689  13.221  0.7626 -0.0814  0.1089
 8381TIP3    H146634   2.336   2.647  13.295  0.2974  0.8184  0.3529
 8381TIP3    H246635   2.436   2.620  13.185  0.2322 -0.8309  0.6717
 8382TIP3   OH246636   0.402   4.451  16.167  0.3835  0.3536 -0.0165
 8382TIP3    H146637   0.323   4.499  16.192 -0.9585 -1.3913 -0.7034
 8382TIP3    H246638   0.410   4.381  16.232  0.4621 -0.3951 -0.8036
 8383TIP3   OH246639   0.610   4.875  15.078  0.2187  0.0922  0.6481
 8383TIP3    H146640   0.601   4.968  15.055 -1.4611  0.0037  0.8344
 8383TIP3    H246641   0.563   4.866  15.161 -0.2752 -1.0583  0.2630
 8384TIP3   OH246642   2.234   1.809  13.685  0.1231  0.0545  0.5969
 8384TIP3    H146643   2.165   1.744  13.668  1.9221 -1.7485 -0.2802
 8384TIP3    H246644   2.251   1.848  13.599  1.6238 -1.0817  0.3346
 8385TIP3   OH246645   5.202   3.194  11.093 -0.2104 -0.1945 -0.3744
 8385TIP3    H146646   5.269   3.189  11.024 -1.2451  0.1690 -1.4427
 8385TIP3    H246647   5.121   3.215  11.046 -1.1503 -0.9688  0.8487
 8386TIP3   OH246648   2.870   2.149   2.824  0.3781 -0.3940  0.3296
 8386TIP3    H146649   2.822   2.230   2.838  2.0032  0.9483 -1.3376
 8386TIP3    H246650   2.872   2.107   2.910 -2.9971 -0.1742  0.6408
 8387TIP3   OH246651   0.566   5.691   2.568 -0.0553  0.1833 -0.7043
 8387TIP3    H146652   0.545   5.676   2.660  0.2625  1.0557 -0.4741
 8387TIP3    H246653   0.631   5.624   2.546  2.5176  2.0122  0.7250
 8388TIP3   OH246654   2.068   4.832   4.088 -0.1058  0.3581  0.1794
 8388TIP3    H146655   2.148   4.797   4.050  1.2979  0.3914  2.8995
 8388TIP3    H246656   2.003   4.824   4.018  1.7379 -1.5776 -1.4395
 8389TIP3   OH246657   4.311   5.819   1.705  0.1137 -0.3768  0.2428
 8389TIP3    H146658   4.238   5.873   1.675  0.5812 -0.4015 -1.0116
 8389TIP3    H246659   4.270   5.742   1.745 -0.5429  0.3004  0.8924
 8390TIP3   OH246660   6.157   3.708   3.424  0.2651 -0.3203  0.0803
 8390TIP3    H146661   6.073   3.717   3.469 -0.2983  0.1906 -1.0351
 8390TIP3    H246662   6.188   3.621   3.450 -1.2016 -1.0429 -0.4190
 8391TIP3   OH246663   6.280   3.964  15.083 -0.1698 -0.0190  0.0848
 8391TIP3    H146664   6.375   3.957  15.098  0.0120  0.9932 -0.4839
 8391TIP3    H246665   6.240   3.919  15.157  0.7573 -0.4663  0.3261
 8392TIP3   OH246666   1.101   3.038  11.279 -0.8171  0.2230  0.1129
 8392TIP3    H146667   1.095   3.029  11.375 -3.1461  0.4739  0.0556
 8392TIP3    H246668   1.194   3.042  11.261 -0.2686  3.1488  2.6770
 8393TIP3   OH246669   2.385   3.110  13.042 -0.6843 -0.2351  0.4340
 8393TIP3    H146670   2.471   3.138  13.009 -0.5742 -2.2313 -1.1523
 8393TIP3    H246671   2.324   3.173  13.004 -0.0811  0.3057  0.3300
 8394TIP3   OH246672   5.622   5.914   2.316  0.0435  0.1828  0.6975
 8394TIP3    H146673   5.590   5.913   2.225 -1.0828 -0.8771  1.0713
 8394TIP3    H246674   5.542   5.924   2.368  0.5820 -0.2131  1.6063
 8395TIP3   OH246675   3.245   0.535  10.682 -0.1998 -0.3887 -0.2378
 8395TIP3    H146676   3.174   0.588  10.719 -0.8344 -1.6168  0.3723
 8395TIP3    H246677   3.293   0.595  10.624 -0.7114  0.9078  0.6485
 8396TIP3   OH246678   5.558   6.775  14.374 -0.6436 -0.2990  0.2463
 8396TIP3    H146679   5.527   6.789  14.464 -0.1156  0.9947  0.2442
 8396TIP3    H246680   5.504   6.703  14.341 -2.9331  1.1639  0.5947
 8397TIP3   OH246681   4.509   4.990   5.761 -0.0092 -0.3338  0.4858
 8397TIP3    H146682   4.585   5.032   5.720  0.4481  0.4638  2.0736
 8397TIP3    H246683   4.504   4.904   5.720  0.5052  0.3596 -1.1170
 8398TIP3   OH246684   6.261   6.205   0.442  0.2071  0.0782 -0.4815
 8398TIP3    H146685   6.346   6.166   0.460  0.1467  0.1364 -0.0459
 8398TIP3    H246686   6.271   6.247   0.356  1.0839  1.3829  0.2253
 8399TIP3   OH246687   6.607   4.040  13.942 -0.0218  0.2037 -0.5124
 8399TIP3    H146688   6.670   3.977  13.977  0.4530  0.4093 -0.9861
 8399TIP3    H246689   6.584   4.095  14.016  2.0715  1.5589 -0.7850
 8400TIP3   OH246690   0.335   2.853  14.607 -0.3521 -0.0125 -0.2162
 8400TIP3    H146691   0.294   2.932  14.642  0.3107  0.9425 -1.4946
 8400TIP3    H246692   0.397   2.826  14.674 -1.1274  0.1038  0.5601
 8401TIP3   OH246693   2.885   4.542  15.183 -0.1277 -0.6395  0.0140
 8401TIP3    H146694   2.856   4.568  15.271 -0.7236 -2.3430  0.3658
 8401TIP3    H246695   2.806   4.552  15.129  0.1943  0.2424 -0.3087
 8402TIP3   OH246696   2.135   0.192   3.896 -0.0134 -0.1005 -0.3652
 8402TIP3    H146697   2.185   0.112   3.889 -2.4896 -2.1081  2.4433
 8402TIP3    H246698   2.148   0.222   3.986  1.1187  2.9944 -1.3990
 8403TIP3   OH246699   1.953   3.578  14.946 -0.3444  0.0919 -0.2220
 8403TIP3    H146700   1.895   3.523  14.893 -0.5998  0.0828  0.0641
 8403TIP3    H246701   2.040   3.566  14.906 -0.3365 -0.7760  0.0322
 8404TIP3   OH246702   1.260   0.646  11.477 -0.0665 -0.0609 -0.7925
 8404TIP3    H146703   1.273   0.599  11.395 -1.3715 -1.7767 -0.0839
 8404TIP3    H246704   1.179   0.695  11.464 -0.4973 -0.6535 -0.4312
 8405TIP3   OH246705   2.772   6.395  16.987  0.1171 -0.3723 -0.2249
 8405TIP3    H146706   2.716   6.429  16.918  0.3370 -0.0009 -0.2271
 8405TIP3    H246707   2.767   6.300  16.979  0.4853 -0.3306 -1.0334
 8406TIP3   OH246708   3.567   0.990   1.316 -0.5353  0.6244 -0.0848
 8406TIP3    H146709   3.584   1.046   1.240 -2.0362  0.0304 -0.8848
 8406TIP3    H246710   3.563   0.901   1.281  2.4089 -0.1677  1.2500
 8407TIP3   OH246711   5.187   6.099  14.561 -0.2223  0.4385 -0.2658
 8407TIP3    H146712   5.230   6.160  14.620 -0.7844 -0.4484  1.1028
 8407TIP3    H246713   5.197   6.139  14.474  1.5423  1.2440  0.2654
 8408TIP3   OH246714   5.232   4.384  14.769  0.1215 -0.1317  0.6040
 8408TIP3    H146715   5.197   4.294  14.776  1.8618 -0.7472  1.9387
 8408TIP3    H246716   5.165   4.430  14.718 -0.1570 -2.5283 -1.4466
 8409TIP3   OH246717   1.369   2.235  11.965  0.1776 -0.2540 -0.7398
 8409TIP3    H146718   1.416   2.151  11.964 -1.0852 -0.9934 -0.3469
 8409TIP3    H246719   1.289   2.218  11.915 -1.4935 -0.1583  1.7414
 8410TIP3   OH246720   6.459   4.342  15.903 -0.8584  0.4360  0.5496
 8410TIP3    H146721   6.374   4.386  15.893 -1.7337 -1.1458  0.6914
 8410TIP3    H246722   6.446   4.257  15.861  1.1194  0.6872 -0.6779
 8411TIP3   OH246723   2.829   1.347  13.266 -0.1369  0.0292  0.0867
 8411TIP3    H146724   2.860   1.382  13.350 -1.4725 -0.3147  0.7584
 8411TIP3    H246725   2.735   1.335  13.279 -0.5274  0.7970 -1.7756
 8412TIP3   OH246726   0.180   6.814  12.113 -0.1492  0.1493  0.7579
 8412TIP3    H146727   0.217   6.848  12.031 -0.1693 -2.3219 -0.3603
 8412TIP3    H246728   0.085   6.828  12.103  0.0040  2.0160  1.4752
 8413TIP3   OH246729   5.798   4.377  13.203 -0.3962 -0.0741 -0.1488
 8413TIP3    H146730   5.813   4.282  13.196 -0.5746 -0.1746  0.7300
 8413TIP3    H246731   5.836   4.413  13.122  0.9111 -0.7531  0.1248
 8414TIP3   OH246732   3.057   2.790   2.529  0.7994  0.0398 -0.8594
 8414TIP3    H146733   3.061   2.796   2.434 -0.5368 -0.7348 -0.9833
 8414TIP3    H246734   3.130   2.732   2.552 -0.8906 -2.6638 -1.7736
 8415TIP3   OH246735   2.542   0.998  14.683  0.0616 -0.2586  0.2161
 8415TIP3    H146736   2.457   1.040  14.665  0.3476  0.0317 -0.5089
 8415TIP3    H246737   2.523   0.932  14.750 -1.0125 -1.1473 -0.9122
 8416TIP3   OH246738   3.023   5.651   6.156 -0.1269 -0.1254  0.0353
 8416TIP3    H146739   3.019   5.574   6.213 -1.2570 -0.5256 -0.5584
 8416TIP3    H246740   2.932   5.682   6.151  0.1615  0.6534 -0.5416
 8417TIP3   OH246741   0.522   4.196  11.210  0.3192  0.4075 -0.5969
 8417TIP3    H146742   0.611   4.220  11.236 -0.4524  3.6085 -0.5695
 8417TIP3    H246743   0.466   4.237  11.276 -1.2568  0.4220 -1.8969
 8418TIP3   OH246744   5.325   3.954  17.075 -0.1878 -0.2541  0.0509
 8418TIP3    H146745   5.299   4.046  17.078 -0.3189 -0.2274 -1.2633
 8418TIP3    H246746   5.408   3.954  17.029 -0.8727 -0.9063 -1.2465
 8419TIP3   OH246747   1.868   5.174  11.799  0.0333  0.6693  0.6084
 8419TIP3    H146748   1.947   5.144  11.755 -0.6089  1.6316 -1.2898
 8419TIP3    H246749   1.891   5.261  11.832 -0.6452  1.6190 -1.2978
 8420TIP3   OH246750   3.000   3.107   2.191  0.2344  0.6730 -0.1017
 8420TIP3    H146751   3.078   3.159   2.171  0.9555  1.5723  4.1103
 8420TIP3    H246752   3.015   3.074   2.280 -2.7476 -2.0035 -0.4207
 8421TIP3   OH246753   2.297   3.550  14.539 -0.3314  0.5896 -0.2813
 8421TIP3    H146754   2.327   3.641  14.532 -0.0573  0.4604 -0.8732
 8421TIP3    H246755   2.373   3.498  14.512 -0.7493  0.2185 -0.7637
 8422TIP3   OH246756   0.283   1.137   3.565 -0.2737  0.5851 -0.4557
 8422TIP3    H146757   0.347   1.137   3.636 -1.0484 -1.6209  0.3091
 8422TIP3    H246758   0.327   1.091   3.493  0.2415  2.1757 -1.2064
 8423TIP3   OH246759   0.132   3.090  16.274 -0.3213  0.0330  0.3062
 8423TIP3    H146760   0.067   3.023  16.295  0.5704 -0.5192  1.4123
 8423TIP3    H246761   0.123   3.103  16.180  0.1465 -2.3781 -0.1357
 8424TIP3   OH246762   2.473   0.895  17.019 -0.4271  0.4187 -0.4536
 8424TIP3    H146763   2.543   0.855  16.967  0.1637 -0.6252  1.0969
 8424TIP3    H246764   2.517   0.930  17.096 -1.4215  1.1594 -0.2005
 8425TIP3   OH246765   1.431   4.741  13.603 -0.4410 -0.1200  0.5688
 8425TIP3    H146766   1.514   4.703  13.633 -0.0887  0.5628  0.4706
 8425TIP3    H246767   1.423   4.712  13.512 -0.2686 -0.1238  0.5534
 8426TIP3   OH246768   2.868   0.231   0.183 -0.0830 -0.2633 -0.2892
 8426TIP3    H146769   2.951   0.208   0.141  0.2838  1.4587 -0.5795
 8426TIP3    H246770   2.830   0.299   0.127 -0.1726  1.2293  1.4854
 8427TIP3   OH246771   5.951   6.713  13.007  0.1655 -0.2079  0.0731
 8427TIP3    H146772   5.993   6.720  12.921  0.8953  0.7856  0.4851
 8427TIP3    H246773   5.945   6.804  13.038 -0.8681 -0.4749  0.7098
 8428TIP3   OH246774   0.682   6.720  15.973  0.2096 -0.1647  0.5249
 8428TIP3    H146775   0.692   6.651  16.038 -0.0474 -1.7554 -1.0658
 8428TIP3    H246776   0.589   6.721  15.952  0.3133  0.2105  0.0595
 8429TIP3   OH246777   6.138   5.872  16.595  0.0890 -0.2424  0.0706
 8429TIP3    H146778   6.155   5.922  16.675 -1.6041  1.7602 -0.7529
 8429TIP3    H246779   6.108   5.936  16.532  0.1490 -1.9789 -1.8221
 8430TIP3   OH246780   4.368   4.393   4.336  0.0317 -0.3219 -0.4078
 8430TIP3    H146781   4.443   4.386   4.276 -0.3734 -0.4304 -0.9083
 8430TIP3    H246782   4.292   4.399   4.278 -0.4164 -0.9967  0.1021
 8431TIP3   OH246783   5.725   1.906   0.993  0.1741  0.2913 -0.2243
 8431TIP3    H146784   5.756   1.823   0.957 -0.9312  0.0754 -0.7360
 8431TIP3    H246785   5.804   1.957   1.008  0.8827 -0.8766  0.1764
 8432TIP3   OH246786   0.709   1.284   0.275 -0.3161 -0.1231 -0.2712
 8432TIP3    H146787   0.742   1.309   0.189  0.7248 -0.2911  0.0648
 8432TIP3    H246788   0.733   1.357   0.332  1.3653 -1.1287  0.3963
 8433TIP3   OH246789   6.747   1.108   2.150  0.1545 -0.2025  0.4672
 8433TIP3    H146790   6.719   1.167   2.080 -1.2811  0.4467  1.5410
 8433TIP3    H246791   6.711   1.023   2.127  0.9060 -0.3223 -0.2942
 8434TIP3   OH246792   6.357   5.184   0.677 -0.2485 -0.3923  0.4343
 8434TIP3    H146793   6.444   5.180   0.716 -0.1542 -0.9380  0.1781
 8434TIP3    H246794   6.348   5.102   0.629 -0.5945  0.0035 -0.2014
 8435TIP3   OH246795   0.183   6.142   4.197 -0.1303  0.0482 -0.3942
 8435TIP3    H146796   0.167   6.069   4.137  1.2125 -1.2612  0.7475
 8435TIP3    H246797   0.209   6.215   4.141 -3.7025  0.4559 -1.7950
 8436TIP3   OH246798   6.429   4.627  13.761 -0.3889 -0.1990  0.3172
 8436TIP3    H146799   6.404   4.719  13.757  0.7977  0.1012 -2.1752
 8436TIP3    H246800   6.383   4.587  13.687  1.6297 -0.8647 -0.6578
 8437TIP3   OH246801   4.656   1.693  12.862 -0.3356  0.6877  0.2168
 8437TIP3    H146802   4.666   1.714  12.769 -0.0078  2.9603  0.7243
 8437TIP3    H246803   4.724   1.743  12.906 -0.3329 -0.5470  1.6969
 8438TIP3   OH246804   0.383   5.762  15.707 -0.1533 -0.3443 -0.3577
 8438TIP3    H146805   0.347   5.759  15.796  0.2007 -0.0058 -0.1987
 8438TIP3    H246806   0.322   5.816  15.658  1.2805  2.2218  0.4747
 8439TIP3   OH246807   1.711   0.407   1.375  0.1586 -0.1254  0.2805
 8439TIP3    H146808   1.689   0.350   1.301  1.8356 -0.3347 -0.0785
 8439TIP3    H246809   1.657   0.485   1.361 -1.0228 -0.9669 -0.0584
 8440TIP3   OH246810   6.317   4.842  12.264 -0.1681 -0.1416 -0.2218
 8440TIP3    H146811   6.223   4.827  12.261 -0.1389 -0.7344  1.0139
 8440TIP3    H246812   6.355   4.755  12.279  0.2800  0.4588  2.9803
 8441TIP3   OH246813   4.858   0.352   0.099  0.3657  0.3391  0.1184
 8441TIP3    H146814   4.922   0.422   0.104 -1.1406  1.8174 -0.3464
 8441TIP3    H246815   4.905   0.274   0.128  2.0513  1.5509  0.7853
 8442TIP3   OH246816   5.196   4.682  13.173 -0.0417 -0.1758  0.3753
 8442TIP3    H146817   5.238   4.768  13.174 -0.4550  0.0323 -0.1271
 8442TIP3    H246818   5.124   4.690  13.111  1.9901 -1.8814 -2.4567
 8443TIP3   OH246819   4.910   0.307  15.388 -0.5379  0.8593  0.1932
 8443TIP3    H146820   4.887   0.219  15.416 -0.1216  0.5473 -0.4106
 8443TIP3    H246821   4.958   0.294  15.306  0.8315  1.5425  0.8503
 8444TIP3   OH246822   2.669   1.095   3.353  0.4116  0.2995 -0.3144
 8444TIP3    H146823   2.583   1.137   3.351  0.6886  0.8599 -0.7613
 8444TIP3    H246824   2.688   1.083   3.446 -0.9995 -1.6303 -0.2165
 8445TIP3   OH246825   0.484   1.935  15.807 -0.1626 -0.1925  0.1165
 8445TIP3    H146826   0.415   1.935  15.742 -0.0392  1.1724 -0.0493
 8445TIP3    H246827   0.562   1.903  15.761 -0.1893  0.3097 -0.2775
 8446TIP3   OH246828   5.183   2.414   1.439 -0.4624  0.5617  0.0762
 8446TIP3    H146829   5.090   2.409   1.462 -0.5544 -0.9226 -0.4814
 8446TIP3    H246830   5.228   2.380   1.516 -0.3760  1.1169  0.2783
 8447TIP3   OH246831   2.568   3.210  11.906 -0.7077 -0.2645  0.2426
 8447TIP3    H146832   2.652   3.175  11.937  0.7536  1.3395 -1.6279
 8447TIP3    H246833   2.547   3.281  11.967 -1.0142 -0.9982  1.0149
 8448TIP3   OH246834   1.660   1.132  13.716  0.1345  0.3845 -0.1222
 8448TIP3    H146835   1.679   1.226  13.710  0.6131  0.3151  0.2530
 8448TIP3    H246836   1.608   1.124  13.796 -1.3811  0.5498 -1.0517
 8449TIP3   OH246837   5.871   5.446   3.196 -0.8192  0.1177  0.1529
 8449TIP3    H146838   5.844   5.402   3.276 -3.5020 -1.6071 -1.5151
 8449TIP3    H246839   5.891   5.536   3.223  0.3127 -0.8714  2.9825
 8450TIP3   OH246840   1.468   3.238   1.902  0.7454 -0.1024  0.1225
 8450TIP3    H146841   1.429   3.234   1.989  0.1133  1.2492 -0.0660
 8450TIP3    H246842   1.477   3.147   1.875  1.1098 -0.5462  1.6600
 8451TIP3   OH246843   2.459   6.519  12.790 -0.3244 -0.2855 -0.4542
 8451TIP3    H146844   2.499   6.576  12.857 -0.3679 -0.6528 -0.1111
 8451TIP3    H246845   2.421   6.580  12.727 -2.7237  0.1615  1.2809
 8452TIP3   OH246846   6.154   0.601   0.540  0.1237  0.2883  0.2216
 8452TIP3    H146847   6.082   0.537   0.542 -0.3263  0.7541 -0.7030
 8452TIP3    H246848   6.113   0.681   0.507  0.7393  0.9935  1.1228
 8453TIP3   OH246849   3.976   1.105   3.646 -0.3063  0.3970 -0.4127
 8453TIP3    H146850   3.903   1.137   3.699  0.2639  0.5185  0.3078
 8453TIP3    H246851   3.937   1.086   3.560 -1.4309 -0.6546  0.3040
 8454TIP3   OH246852   3.519   4.656  12.502 -0.8061  0.3430  0.0265
 8454TIP3    H146853   3.549   4.578  12.455  0.2036  2.4736 -3.1417
 8454TIP3    H246854   3.430   4.670  12.471 -0.1289  1.7698 -1.4297
 8455TIP3   OH246855   0.435   6.671   5.041 -0.0780 -0.1859  0.6225
 8455TIP3    H146856   0.511   6.617   5.019  1.1948  0.3256  3.3509
 8455TIP3    H246857   0.393   6.625   5.114 -1.5871  0.2802  0.0766
 8456TIP3   OH246858   1.797   2.997   0.135  0.0316 -0.0024 -0.0622
 8456TIP3    H146859   1.808   2.944   0.056  1.7024 -0.3025  0.3416
 8456TIP3    H246860   1.708   2.977   0.165 -0.4152 -0.3368 -1.5145
 8457TIP3   OH246861   4.298   3.337  16.331 -0.1274  0.4009 -0.5782
 8457TIP3    H146862   4.390   3.330  16.356 -0.4260  0.0127  0.4618
 8457TIP3    H246863   4.271   3.424  16.361 -0.4137  0.0429  0.2218
 8458TIP3   OH246864   4.923   3.510  13.798 -0.2887  0.2333  0.2233
 8458TIP3    H146865   4.974   3.432  13.818  0.3227  0.6747  0.4210
 8458TIP3    H246866   4.985   3.569  13.756 -0.6546  0.7447  0.3899
 8459TIP3   OH246867   0.148   4.401   6.025  0.4870 -0.4107 -0.5340
 8459TIP3    H146868   0.099   4.320   6.038 -1.7053  1.1436  1.8435
 8459TIP3    H246869   0.227   4.389   6.078 -0.6428 -0.3921  1.2187
 8460TIP3   OH246870   0.245   1.370  11.206 -0.0832 -0.0342 -0.0194
 8460TIP3    H146871   0.174   1.391  11.268  1.4122  0.3094  1.6613
 8460TIP3    H246872   0.242   1.274  11.199 -1.3584  0.0354 -0.8194
 8461TIP3   OH246873   0.027   5.374   2.721 -0.5414  0.3256 -0.0278
 8461TIP3    H146874   0.105   5.430   2.723  0.3221 -0.8317  1.7836
 8461TIP3    H246875  -0.032   5.412   2.787 -1.0674  0.5687 -0.6273
 8462TIP3   OH246876   6.700   4.390  11.614  0.0909  0.0387  0.3029
 8462TIP3    H146877   6.762   4.399  11.541 -0.3588  0.1568 -0.0714
 8462TIP3    H246878   6.701   4.296  11.634  0.2609  0.0139  0.1822
 8463TIP3   OH246879   3.947   3.685   1.941  0.7282 -0.3193  0.1989
 8463TIP3    H146880   3.966   3.622   2.011  5.4799  0.9897  0.4407
 8463TIP3    H246881   3.918   3.764   1.987  0.5974 -0.4777  0.3906
 8464TIP3   OH246882   4.311   5.793  15.829  0.4673 -0.0548 -0.3728
 8464TIP3    H146883   4.372   5.841  15.885  0.4421  0.4604 -0.7802
 8464TIP3    H246884   4.343   5.703  15.831 -1.1733 -0.7252  2.7940
 8465TIP3   OH246885   4.221   6.699   3.894  0.6347 -0.1648 -0.9187
 8465TIP3    H146886   4.286   6.650   3.945  2.7596 -0.3985 -3.5848
 8465TIP3    H246887   4.245   6.682   3.803 -3.5496 -0.6434 -2.1365
 8466TIP3   OH246888   4.701   5.729   2.382  0.0704 -0.4470 -0.3801
 8466TIP3    H146889   4.779   5.716   2.329  0.7033  0.7583  0.2129
 8466TIP3    H246890   4.636   5.764   2.321  0.2871 -0.5693 -0.6820
 8467TIP3   OH246891   5.779   6.439  11.417 -0.2887  0.8605 -0.8298
 8467TIP3    H146892   5.804   6.366  11.473  0.0506  1.9290  0.4656
 8467TIP3    H246893   5.683   6.444  11.427 -0.5447 -0.4377 -2.2748
 8468TIP3   OH246894   3.139   1.141   0.692 -0.0285 -0.2013 -0.0042
 8468TIP3    H146895   3.128   1.231   0.722 -0.1802 -0.1803 -0.1215
 8468TIP3    H246896   3.117   1.087   0.769  1.1535 -0.1248  0.4046
 8469TIP3   OH246897   4.843   3.222  14.011  0.0690 -1.1029  0.1847
 8469TIP3    H146898   4.921   3.173  14.039  1.3101 -0.1297 -1.3772
 8469TIP3    H246899   4.851   3.307  14.055  0.1991 -0.8037 -0.4040
 8470TIP3   OH246900   1.505   0.096   5.245 -0.0244 -0.1748 -0.2889
 8470TIP3    H146901   1.594   0.128   5.229  0.0320 -0.5694 -0.8149
 8470TIP3    H246902   1.449   0.157   5.197  0.0295 -0.4221 -0.6725
 8471TIP3   OH246903   1.407   0.748   5.408 -0.0613  0.1000 -0.1479
 8471TIP3    H146904   1.356   0.735   5.489  0.8223  1.5459  0.6613
 8471TIP3    H246905   1.341   0.748   5.339 -1.0782  0.9698  0.7858
 8472TIP3   OH246906   2.612   4.586  14.557  0.0584 -0.6513 -0.8997
 8472TIP3    H146907   2.589   4.562  14.646  1.4015  0.4048 -0.2234
 8472TIP3    H246908   2.603   4.682  14.555  1.1980 -0.5295 -1.5089
 8473TIP3   OH246909   4.363   5.173  12.187  0.5705 -0.2522  0.1702
 8473TIP3    H146910   4.371   5.163  12.282  0.4646 -1.1197  0.0942
 8473TIP3    H246911   4.446   5.140  12.153  0.5661 -0.0386 -0.0469
 8474TIP3   OH246912   4.213   1.140  12.928 -0.1599  0.1042 -0.0436
 8474TIP3    H146913   4.123   1.163  12.950 -0.1222 -0.2943  0.5578
 8474TIP3    H246914   4.262   1.154  13.009  0.0687 -0.9559  0.0129
 8475TIP3   OH246915   5.453   6.805  17.062  0.1898  1.0225 -0.5849
 8475TIP3    H146916   5.491   6.717  17.055 -0.0732  0.8689 -0.1470
 8475TIP3    H246917   5.488   6.840  17.143 -0.7713  0.7882 -0.0559
 8476TIP3   OH246918   0.936   4.895  11.408  0.2824 -0.3953 -0.0461
 8476TIP3    H146919   0.871   4.834  11.442 -0.5758  1.1739  1.2554
 8476TIP3    H246920   0.907   4.916  11.319 -1.9961  1.4934  1.0302
 8477TIP3   OH246921   2.494   1.560   4.040  0.1050  0.0406  0.3324
 8477TIP3    H146922   2.410   1.535   4.003 -0.1390  0.2073  0.7595
 8477TIP3    H246923   2.489   1.533   4.132  0.0748  1.0692  0.6472
 8478TIP3   OH246924   3.796   5.517   2.976 -0.5928 -0.2691 -0.0144
 8478TIP3    H146925   3.729   5.527   2.909  0.5737  0.3778 -1.1227
 8478TIP3    H246926   3.758   5.457   3.040 -1.4223 -1.5767 -1.6689
 8479TIP3   OH246927   5.540   4.383  13.757  0.1109  0.0874 -0.2607
 8479TIP3    H146928   5.569   4.422  13.674  0.1821  0.0882 -0.2364
 8479TIP3    H246929   5.471   4.441  13.788 -1.5310 -1.1418 -1.4457
 8480TIP3   OH246930   5.439   6.588  15.605  0.1361  0.3284 -0.0258
 8480TIP3    H146931   5.403   6.656  15.661 -2.9681 -0.6430 -0.6685
 8480TIP3    H246932   5.508   6.548  15.657 -1.1838  0.8729  2.2460
 8481TIP3   OH246933   5.892   6.551   2.379 -0.0626  0.4479  0.0700
 8481TIP3    H146934   5.872   6.640   2.351  1.1359  1.1140  1.2080
 8481TIP3    H246935   5.923   6.507   2.300  0.4663  1.3980 -0.2616
 8482TIP3   OH246936   0.391   5.902   5.627 -0.2213 -0.1048 -0.0217
 8482TIP3    H146937   0.404   5.854   5.546  0.7852 -1.9519  1.1601
 8482TIP3    H246938   0.316   5.859   5.668 -2.3802  2.4340 -1.0374
 8483TIP3   OH246939   6.364   5.144  14.972 -0.0081 -0.3607  0.3397
 8483TIP3    H146940   6.442   5.093  14.950 -0.2066 -0.9154  0.8951
 8483TIP3    H246941   6.291   5.082  14.962 -0.4701  0.3584 -0.9368
 8484TIP3   OH246942   6.756   0.661  15.798 -0.2593  0.5756 -0.0245
 8484TIP3    H146943   6.740   0.677  15.891 -0.9698 -0.3577  0.0311
 8484TIP3    H246944   6.798   0.574  15.795 -2.3392 -0.4827 -0.6875
 8485TIP3   OH246945   2.209   0.564  15.629  0.1420 -0.3728 -0.0328
 8485TIP3    H146946   2.143   0.530  15.568  1.0341  0.9309 -1.8306
 8485TIP3    H246947   2.175   0.649  15.656  0.3905 -0.3500  0.2096
 8486TIP3   OH246948   1.315   5.578   5.138  1.1003  0.1708  0.4245
 8486TIP3    H146949   1.325   5.495   5.092 -0.7025 -0.4068  1.0041
 8486TIP3    H246950   1.233   5.569   5.187  1.4092  1.8989  1.3361
 8487TIP3   OH246951   2.605   1.646  10.425 -0.1060  0.0916 -0.1335
 8487TIP3    H146952   2.601   1.741  10.416  0.5537 -0.0175 -1.8488
 8487TIP3    H246953   2.524   1.614  10.385  0.4964 -0.1400 -1.2050
 8488TIP3   OH246954   3.834   0.576  12.816 -0.1296 -0.4311 -0.4513
 8488TIP3    H146955   3.813   0.492  12.777 -2.6873  0.5529 -1.4489
 8488TIP3    H246956   3.756   0.598  12.868  1.9615 -0.3330  2.9274
 8489TIP3   OH246957   4.870   1.225  13.577 -0.1990 -0.4467 -0.2756
 8489TIP3    H146958   4.841   1.150  13.629 -0.2036 -0.6220 -0.5287
 8489TIP3    H246959   4.947   1.193  13.531  1.2446  0.4023  1.4109
 8490TIP3   OH246960   4.313   5.233  14.962  0.0273 -0.3089  0.2452
 8490TIP3    H146961   4.274   5.158  14.918  0.5177 -0.1409 -0.4992
 8490TIP3    H246962   4.269   5.237  15.047 -1.1813 -0.4504 -0.3493
 8491TIP3   OH246963   6.015   0.711   1.509  0.0481  0.1201  0.6118
 8491TIP3    H146964   5.982   0.675   1.427  0.4894  0.4359  0.2870
 8491TIP3    H246965   6.053   0.636   1.554 -1.8391 -0.4264  1.3915
 8492TIP3   OH246966   3.304   4.455   4.616  0.3298  0.2725 -0.4707
 8492TIP3    H146967   3.322   4.366   4.586 -0.4703 -0.2238  0.4309
 8492TIP3    H246968   3.222   4.479   4.572 -1.4238 -0.8541  1.8965
 8493TIP3   OH246969   6.346   0.819   5.033  0.0596 -0.0221 -0.6353
 8493TIP3    H146970   6.346   0.902   4.985 -1.7945 -0.2377 -1.0693
 8493TIP3    H246971   6.432   0.781   5.014  0.8997  1.7061 -0.5331
 8494TIP3   OH246972   5.687   0.483  15.542 -0.2900 -0.1132 -0.3230
 8494TIP3    H146973   5.782   0.487  15.539 -0.3340  1.5071  0.0375
 8494TIP3    H246974   5.660   0.567  15.579 -1.8258 -0.8840  0.4073
 8495TIP3   OH246975   3.560   2.066  11.266  0.3459 -0.3344  0.4731
 8495TIP3    H146976   3.604   2.076  11.181  1.1986  0.5701  1.0074
 8495TIP3    H246977   3.552   2.155  11.299  0.4457 -0.7238  1.5682
 8496TIP3   OH246978   1.998   4.251  15.558 -0.1692  0.3731 -0.0364
 8496TIP3    H146979   1.930   4.274  15.494 -1.7804 -0.0826  1.4481
 8496TIP3    H246980   1.958   4.266  15.643  1.3916 -0.5085  0.9082
 8497TIP3   OH246981   4.318   1.961   2.184  0.3574  0.4730  0.2096
 8497TIP3    H146982   4.290   2.030   2.245 -0.7814  1.7054 -1.6029
 8497TIP3    H246983   4.398   1.995   2.144  0.3868  0.2704  0.0927
 8498TIP3   OH246984   5.066   5.187   2.953 -0.1295  0.1172 -0.0162
 8498TIP3    H146985   5.116   5.201   2.873  0.1063 -0.1328  0.0848
 8498TIP3    H246986   5.130   5.198   3.023 -0.0532 -0.9352  0.0857
 8499TIP3   OH246987   6.561   2.543  15.614 -0.4310 -1.3705 -0.1753
 8499TIP3    H146988   6.478   2.590  15.598  0.4376  0.3978  0.2593
 8499TIP3    H246989   6.602   2.539  15.527 -0.0686 -0.4107 -0.0604
 8500TIP3   OH246990   6.834   3.903   0.092 -0.6032  0.0435  0.1085
 8500TIP3    H146991   6.859   3.994   0.078  0.8682 -0.5944 -1.9097
 8500TIP3    H246992   6.761   3.888   0.032 -0.8180 -0.1262  0.4073
 8501TIP3   OH246993   5.444   3.849   4.259 -0.1745 -0.3215  0.4050
 8501TIP3    H146994   5.384   3.896   4.317  1.3839  0.7290  1.2526
 8501TIP3    H246995   5.435   3.892   4.174 -0.4918 -0.0585  0.5727
 8502TIP3   OH246996   6.342   6.537  12.201 -0.1830 -0.5077  0.2675
 8502TIP3    H146997   6.333   6.590  12.122 -0.0360 -1.2675 -0.2677
 8502TIP3    H246998   6.301   6.590  12.270  1.6538  1.1451  0.1559
 8503TIP3   OH246999   1.781   3.895  16.542  0.2995 -0.1180  0.4368
 8503TIP3    H147000   1.875   3.878  16.532  0.4025  1.0569 -0.8684
 8503TIP3    H247001   1.742   3.809  16.556  1.1814 -1.0685 -2.3160
 8504TIP3   OH247002   1.468   1.945  16.615  0.0899  0.3396  0.3127
 8504TIP3    H147003   1.460   2.018  16.553  2.5133  0.5670  0.1990
 8504TIP3    H247004   1.466   1.867  16.559  0.2562  0.4450  0.1583
 8505TIP3   OH247005   0.082   1.379   5.020  0.5249  0.2944  0.4709
 8505TIP3    H147006   0.133   1.378   4.939  1.2945 -1.6399  0.9394
 8505TIP3    H247007  -0.004   1.347   4.994  0.9050 -0.7618  0.4772
 8506TIP3   OH247008   2.152   3.730  12.298 -0.0695 -0.0868 -0.0140
 8506TIP3    H147009   2.179   3.822  12.305  3.1316 -0.9966  2.3729
 8506TIP3    H247010   2.119   3.721  12.209  2.6266  2.6978 -1.5046
 8507TIP3   OH247011   5.524   2.001  16.243  0.3601  0.1083  0.4559
 8507TIP3    H147012   5.594   1.991  16.308  0.5644 -2.2218 -0.0148
 8507TIP3    H247013   5.568   1.996  16.159 -0.2696 -0.7434  0.1558
 8508TIP3   OH247014   1.921   5.556   4.147  0.0123  0.9566 -0.4778
 8508TIP3    H147015   1.948   5.464   4.144 -1.6428  0.1857  3.0955
 8508TIP3    H247016   1.844   5.560   4.090  0.2751  0.2078 -0.8973
 8509TIP3   OH247017   1.833   0.699  15.383  0.1833  0.4589  0.4017
 8509TIP3    H147018   1.829   0.677  15.476 -0.0896  0.7151  0.4510
 8509TIP3    H247019   1.756   0.753  15.368 -0.1115 -0.0925 -0.1130
 8510TIP3   OH247020   0.394   4.226  13.512 -0.2641  0.3705 -0.3205
 8510TIP3    H147021   0.379   4.216  13.606  0.4363 -1.0292 -0.3405
 8510TIP3    H247022   0.308   4.250  13.476 -0.7044  0.1367  0.5640
 8511TIP3   OH247023   4.530   0.284   3.328 -0.7100 -0.0954  0.7977
 8511TIP3    H147024   4.446   0.319   3.298 -1.3023 -1.7470  0.4080
 8511TIP3    H247025   4.510   0.195   3.356  0.8685 -0.4159  0.9930
 8512TIP3   OH247026   4.521   0.187   0.211 -0.3891 -0.1043  0.0719
 8512TIP3    H147027   4.584   0.168   0.281  0.6548 -1.6885 -1.2176
 8512TIP3    H247028   4.496   0.101   0.177 -0.6084  0.6170 -1.7058
 8513TIP3   OH247029   6.474   3.930  13.228  0.1887 -0.0175 -0.7811
 8513TIP3    H147030   6.392   3.881  13.220  0.0809 -0.2133  1.1002
 8513TIP3    H247031   6.543   3.864  13.216  0.0454 -0.5734  1.2205
 8514TIP3   OH247032   2.177   0.460  17.089  0.5763  0.5084 -0.2533
 8514TIP3    H147033   2.157   0.483  17.180 -1.2990 -0.7400 -0.2827
 8514TIP3    H247034   2.184   0.545  17.044  0.5831  1.1188  0.8652
 8515TIP3   OH247035   6.590   1.684  15.974 -0.3268  0.0909 -0.2530
 8515TIP3    H147036   6.613   1.668  16.065  0.1854 -0.3775 -0.4573
 8515TIP3    H247037   6.536   1.609  15.949  1.2245 -0.8557 -0.9133
 8516TIP3   OH247038   2.788   3.652  11.794 -0.3685  0.2589 -0.1658
 8516TIP3    H147039   2.749   3.683  11.712  1.0838  0.5557 -0.7758
 8516TIP3    H247040   2.724   3.673  11.861 -0.3633  2.6555 -0.8515
 8517TIP3   OH247041   6.622   0.065   1.387  0.0867  0.6621  0.2160
 8517TIP3    H147042   6.717   0.058   1.388  0.1503  1.4674  1.1018
 8517TIP3    H247043   6.603   0.118   1.309  0.2046 -1.1012 -1.0756
 8518TIP3   OH247044   4.746   6.653   4.250 -0.2014 -0.2470 -0.0880
 8518TIP3    H147045   4.741   6.633   4.157 -1.0014 -3.5808  0.5314
 8518TIP3    H247046   4.654   6.666   4.277 -0.0226  0.1977  0.3243
 8519TIP3   OH247047   0.592   6.289  13.803 -0.1267 -0.4321  0.4140
 8519TIP3    H147048   0.588   6.381  13.827 -0.3103 -0.0606 -0.9703
 8519TIP3    H247049   0.638   6.287  13.719  1.6840 -1.8014  1.3627
 8520TIP3   OH247050   0.965   5.175   0.078  0.0770 -0.4164  0.5277
 8520TIP3    H147051   1.042   5.169   0.021  0.8342 -1.3130  1.5785
 8520TIP3    H247052   0.947   5.268   0.086  0.3437 -0.2543 -0.6563
 8521TIP3   OH247053   3.058   5.938   3.682 -0.0615  0.2935 -0.0993
 8521TIP3    H147054   3.111   6.017   3.693  1.8355 -0.9087 -0.2142
 8521TIP3    H247055   2.968   5.970   3.686  0.6140  2.2602  1.3234
 8522TIP3   OH247056   1.074   6.256  11.778 -0.6390  0.4839  0.0951
 8522TIP3    H147057   1.059   6.337  11.828  0.9224  0.1154  1.2189
 8522TIP3    H247058   1.076   6.187  11.844  0.1408 -0.2042 -0.6209
 8523TIP3   OH247059   6.564   2.595  13.198  0.3303  0.3887 -0.1520
 8523TIP3    H147060   6.482   2.545  13.206 -0.2120  1.1015 -1.0434
 8523TIP3    H247061   6.619   2.542  13.141  0.2051  0.2690 -0.1633
 8524TIP3   OH247062   2.952   6.796  12.520 -0.1794  0.5620 -0.3276
 8524TIP3    H147063   3.033   6.755  12.488 -0.1894  0.3332 -0.0605
 8524TIP3    H247064   2.963   6.889  12.499 -0.9748  0.2122 -2.6987
 8525TIP3   OH247065   2.284   0.242   3.091 -0.1640  0.1251  0.3293
 8525TIP3    H147066   2.189   0.251   3.089 -0.0782  2.0900  1.5598
 8525TIP3    H247067   2.317   0.331   3.076  1.3707  0.0227  2.4692
 8526TIP3   OH247068   5.697   4.564  11.570  0.2024 -0.4440  0.4923
 8526TIP3    H147069   5.776   4.558  11.518  0.4594  0.7523  0.6979
 8526TIP3    H247070   5.687   4.658  11.588 -0.4334 -0.7151  1.7271
 8527TIP3   OH247071   4.001   1.453   0.599  0.1044  0.3500  0.0696
 8527TIP3    H147072   3.992   1.359   0.583 -0.8334  0.3962  0.2799
 8527TIP3    H247073   4.042   1.458   0.685  0.0503  0.1351  0.1093
 8528TIP3   OH247074   5.961   0.948  13.649  0.1092  0.1255 -0.3163
 8528TIP3    H147075   5.986   0.888  13.579  2.2793  0.1121  0.3858
 8528TIP3    H247076   5.909   1.015  13.605  1.2838  0.0419 -1.9418
 8529TIP3   OH247077   5.482   1.728   5.098  0.0977 -0.3738 -0.6561
 8529TIP3    H147078   5.485   1.646   5.148 -3.7153 -0.5411 -0.4029
 8529TIP3    H247079   5.459   1.795   5.163  0.7003  0.4869 -1.3015
 8530TIP3   OH247080   5.097   3.500  12.835  0.2414  0.0056  0.3654
 8530TIP3    H147081   5.177   3.527  12.880  0.1787  2.7296 -0.9273
 8530TIP3    H247082   5.122   3.419  12.789  2.5603  1.2010 -0.6495
 8531TIP3   OH247083   3.013   3.285   1.509  0.0433 -0.1843  0.4016
 8531TIP3    H147084   3.000   3.293   1.414  0.6862  2.0015  0.4333
 8531TIP3    H247085   2.949   3.346   1.546 -0.6383 -1.4861  1.4441
 8532TIP3   OH247086   5.260   4.607  12.437  0.1816  0.1088  0.4856
 8532TIP3    H147087   5.181   4.627  12.487  0.4474  1.6799  0.3363
 8532TIP3    H247088   5.244   4.521  12.399 -2.3428  1.2041 -1.2082
 8533TIP3   OH247089   5.179   0.816   0.770  0.0030 -0.0016  0.1940
 8533TIP3    H147090   5.195   0.731   0.729 -1.7731  0.3429 -1.4009
 8533TIP3    H247091   5.194   0.879   0.700 -0.2852  0.8720  0.9019
 8534TIP3   OH247092   6.750   0.743   3.248  0.2180 -0.2399 -0.4293
 8534TIP3    H147093   6.696   0.790   3.311  2.7643 -0.9414  2.4781
 8534TIP3    H247094   6.701   0.664   3.228 -0.4616 -0.2197  1.0550
 8535TIP3   OH247095   5.941   0.754   6.050  0.0500 -0.0321 -0.1465
 8535TIP3    H147096   5.888   0.809   6.107 -1.8328 -1.3064 -0.5796
 8535TIP3    H247097   5.957   0.807   5.972 -0.1125  0.5632  0.2285
 8536TIP3   OH247098   4.542   2.723  14.545  0.0221 -0.0543 -0.3930
 8536TIP3    H147099   4.625   2.682  14.570  0.1208 -0.1255 -0.8322
 8536TIP3    H247100   4.554   2.747  14.453 -0.2245  0.4946 -0.2838
 8537TIP3   OH247101   1.292   5.253  14.898 -0.9663  0.0365  0.5274
 8537TIP3    H147102   1.226   5.241  14.830 -0.8684  0.4095  0.3617
 8537TIP3    H247103   1.321   5.164  14.919 -1.0018 -0.0837  0.0814
 8538TIP3   OH247104   1.366   2.130   3.565  1.1516  0.7166  0.5017
 8538TIP3    H147105   1.308   2.130   3.642  0.0268  3.0001 -0.2424
 8538TIP3    H247106   1.397   2.220   3.559  1.8254  0.4034 -1.2957
 8539TIP3   OH247107   3.249   1.640   4.416 -0.0855  0.0540  0.3164
 8539TIP3    H147108   3.330   1.591   4.400 -0.2808  0.1982 -1.2269
 8539TIP3    H247109   3.229   1.681   4.332 -1.4745  0.4550  0.8260
 8540TIP3   OH247110   5.687   4.874  17.121 -0.1607 -0.3415 -0.0438
 8540TIP3    H147111   5.695   4.876  17.216  1.0688  1.8001 -0.1318
 8540TIP3    H247112   5.738   4.797  17.094 -0.8959 -1.2381  0.9980
 8541TIP3   OH247113   3.290   1.610   2.923  0.3367  0.0052  0.0222
 8541TIP3    H147114   3.281   1.535   2.982  0.6759  0.2464  0.3832
 8541TIP3    H247115   3.290   1.686   2.980  2.5536  0.1571 -0.0879
 8542TIP3   OH247116   3.436   2.046  13.760  0.5658  0.0662 -0.1785
 8542TIP3    H147117   3.361   2.098  13.733  1.1380  0.8871 -0.2424
 8542TIP3    H247118   3.429   1.965  13.710 -0.2228  0.1631 -0.2400
 8543TIP3   OH247119   3.453   3.082  15.390  0.6926  0.0285 -0.6910
 8543TIP3    H147120   3.520   3.149  15.403  1.3409 -0.2798 -2.2341
 8543TIP3    H247121   3.372   3.131  15.379  0.6539  0.4141  0.9736
 8544TIP3   OH247122   2.759   6.783   1.181  0.1535  0.1251 -0.4417
 8544TIP3    H147123   2.836   6.789   1.238 -0.0578 -0.2906 -0.1048
 8544TIP3    H247124   2.769   6.699   1.137 -0.1747  0.0081 -0.2937
 8545TIP3   OH247125   4.483   6.204   2.761  0.7614 -0.4882 -0.1786
 8545TIP3    H147126   4.463   6.292   2.793  0.0768 -1.2910  1.7750
 8545TIP3    H247127   4.459   6.147   2.833  4.6948 -2.0285  0.1770
 8546TIP3   OH247128   4.903   6.539  16.680 -0.5778  0.7803  0.3623
 8546TIP3    H147129   4.831   6.476  16.685 -0.8459  0.9496 -1.0764
 8546TIP3    H247130   4.944   6.535  16.767  0.9328 -3.1462 -0.2956
 8547TIP3   OH247131   3.071   6.631  14.165 -0.1886  0.0507  0.1409
 8547TIP3    H147132   3.102   6.698  14.103 -0.1973 -0.6540 -0.6396
 8547TIP3    H247133   3.115   6.551  14.137 -0.3708 -0.3300  0.9214
 8548TIP3   OH247134   1.582   4.907   6.460 -0.4116 -0.0962 -0.4865
 8548TIP3    H147135   1.662   4.859   6.482 -0.9663 -0.8984 -0.1534
 8548TIP3    H247136   1.581   4.981   6.520 -1.3417 -1.6525  1.5360
 8549TIP3   OH247137   2.812   4.647   0.024 -0.1263 -0.2751 -0.6892
 8549TIP3    H147138   2.860   4.685   0.098 -1.6096  0.3692 -0.0076
 8549TIP3    H247139   2.733   4.609   0.064 -0.5056 -0.7374 -1.8409
 8550TIP3   OH247140   4.055   1.964  13.681 -0.5120  0.5007 -0.8099
 8550TIP3    H147141   4.028   1.878  13.712 -1.2353  0.3408 -1.8332
 8550TIP3    H247142   4.010   1.975  13.597  0.7859  1.2276 -1.4415
 8551TIP3   OH247143   2.939   4.555   4.280 -0.1340 -0.3716  0.3008
 8551TIP3    H147144   3.012   4.584   4.227 -0.1684 -0.1930  0.3490
 8551TIP3    H247145   2.900   4.636   4.314 -0.6866 -0.4349 -0.1643
 8552TIP3   OH247146   3.474   1.511   4.266  0.3374  0.3532  0.8283
 8552TIP3    H147147   3.531   1.570   4.217  0.9439 -0.5948  0.3623
 8552TIP3    H247148   3.456   1.439   4.205  1.2986 -0.9636  2.0374
 8553TIP3   OH247149   3.176   5.857  15.729  0.1231  0.2916  0.3851
 8553TIP3    H147150   3.194   5.846  15.635  2.8471 -0.6886  0.9310
 8553TIP3    H247151   3.124   5.781  15.753  0.6988 -0.2476 -0.0543
 8554TIP3   OH247152   1.043   3.272   5.719  0.1357  0.6114 -0.1149
 8554TIP3    H147153   0.976   3.204   5.711  1.6514 -0.9424 -0.0770
 8554TIP3    H247154   1.073   3.266   5.810  1.0942  0.5304 -0.4288
 8555TIP3   OH247155   4.423   5.593  14.992  0.0224 -0.0203  0.1159
 8555TIP3    H147156   4.482   5.526  14.957  1.0505 -0.1588  2.0043
 8555TIP3    H247157   4.428   5.665  14.928  1.5675 -0.3731 -0.2029
 8556TIP3   OH247158   6.552   1.418  15.250 -0.5038  0.3939 -0.4555
 8556TIP3    H147159   6.558   1.334  15.205  1.1291 -0.0395  0.4966
 8556TIP3    H247160   6.477   1.461  15.210 -1.2522 -1.4182 -1.1112
 8557TIP3   OH247161   6.419   2.494  15.940 -0.2691 -0.8312  0.0813
 8557TIP3    H147162   6.478   2.567  15.924 -1.9343  0.7883  1.0159
 8557TIP3    H247163   6.348   2.505  15.877 -0.1332 -2.1743 -0.3538
 8558TIP3   OH247164   1.514   3.133   4.789  0.0665 -0.0786 -0.4004
 8558TIP3    H147165   1.545   3.058   4.841 -0.8240 -0.4042 -0.3255
 8558TIP3    H247166   1.533   3.209   4.844 -1.3472 -0.4526  0.6833
 8559TIP3   OH247167   2.984   1.073  15.946 -0.4850 -0.0778  0.2433
 8559TIP3    H147168   3.019   1.089  16.034  0.9452  1.8168 -0.5838
 8559TIP3    H247169   3.062   1.069  15.890 -1.3639 -1.3123 -0.9598
 8560TIP3   OH247170   4.008   2.472  14.226 -0.5828  0.2367 -0.2987
 8560TIP3    H147171   3.945   2.472  14.154  1.9393  0.3664 -2.6898
 8560TIP3    H247172   4.055   2.389  14.216  0.5874  0.7793  0.4837
 8561TIP3   OH247173   4.857   0.810  13.243  0.4813 -0.3889 -0.5087
 8561TIP3    H147174   4.772   0.776  13.271  0.2578 -1.0552 -1.8832
 8561TIP3    H247175   4.903   0.829  13.324 -0.4919 -1.2605  0.2841
 8562TIP3   OH247176   1.158   2.173   4.354  0.1687 -0.1545  0.5892
 8562TIP3    H147177   1.163   2.109   4.425  0.0709 -1.3649 -0.4532
 8562TIP3    H247178   1.207   2.249   4.386  0.0254 -0.6353  1.9778
 8563TIP3   OH247179   0.909   0.123  14.671 -0.5171  0.0873 -0.3414
 8563TIP3    H147180   0.952   0.136  14.587 -2.7669  0.7785 -1.4769
 8563TIP3    H247181   0.863   0.206  14.688  0.1395  0.0855  1.7574
 8564TIP3   OH247182   6.208   3.133   0.761  0.2321 -0.5530  0.7270
 8564TIP3    H147183   6.152   3.210   0.768  0.9663  0.0803 -0.1399
 8564TIP3    H247184   6.288   3.165   0.719  0.7915 -1.6661  0.9047
 8565TIP3   OH247185   4.127   5.474  12.382 -0.2333  0.0637 -0.0362
 8565TIP3    H147186   4.132   5.513  12.469 -1.4263  2.1902 -0.8492
 8565TIP3    H247187   4.039   5.436  12.377  0.0323 -0.5614 -0.1392
 8566TIP3   OH247188   2.204   3.611   2.128 -0.1450  0.0137 -0.3159
 8566TIP3    H147189   2.199   3.706   2.135  0.1629  0.0011  0.1401
 8566TIP3    H247190   2.146   3.588   2.056  0.9044  0.6922 -1.4162
 8567TIP3   OH247191   3.773   2.450  11.439  0.0346 -0.0972  0.4866
 8567TIP3    H147192   3.819   2.531  11.463 -0.3737  0.4076 -0.3864
 8567TIP3    H247193   3.839   2.396  11.396 -0.0156  0.3300 -0.1301
 8568TIP3   OH247194   3.099   6.568   2.223 -0.3352 -0.8577  0.0711
 8568TIP3    H147195   3.134   6.656   2.235 -1.2411 -0.7008  1.7923
 8568TIP3    H247196   3.058   6.570   2.136  0.5922  0.0767 -0.3620
 8569TIP3   OH247197   4.234   6.203  16.837 -0.5764  0.4566  0.4203
 8569TIP3    H147198   4.307   6.221  16.895  0.6607  0.0943 -0.9470
 8569TIP3    H247199   4.259   6.243  16.754 -1.1222 -1.1212 -0.5588
 8570TIP3   OH247200   5.676   5.033  14.008 -0.6835  0.0814 -0.5862
 8570TIP3    H147201   5.686   5.121  13.970  1.0070  0.8199  1.3584
 8570TIP3    H247202   5.691   5.046  14.102  3.2971 -2.7455 -0.5979
 8571TIP3   OH247203   6.767   1.969  12.817  0.5506 -0.5410  0.3050
 8571TIP3    H147204   6.720   1.887  12.802 -0.2759  0.0356 -0.2981
 8571TIP3    H247205   6.841   1.965  12.756 -0.4761 -0.0663 -1.0110
 8572TIP3   OH247206   6.211   0.782   2.068  0.1289 -0.4699 -0.1028
 8572TIP3    H147207   6.162   0.861   2.044  0.2615 -0.4924 -0.4428
 8572TIP3    H247208   6.152   0.736   2.128 -0.3454 -0.5852 -0.6440
 8573TIP3   OH247209   5.467   5.210  11.179 -0.2725 -0.0176  0.2798
 8573TIP3    H147210   5.421   5.254  11.107  1.5937 -1.2307 -1.7892
 8573TIP3    H247211   5.490   5.124  11.143  1.1993 -0.4728  2.1737
 8574TIP3   OH247212   4.740   1.664  10.396  0.7519  0.1276 -0.1679
 8574TIP3    H147213   4.658   1.619  10.376  1.2115 -0.2920 -1.1574
 8574TIP3    H247214   4.760   1.715  10.318  1.2263  0.5451  0.2173
 8575TIP3   OH247215   5.716   3.957   4.011 -0.4044 -0.1979 -0.1152
 8575TIP3    H147216   5.737   4.014   3.937  0.3620 -0.0394  0.2111
 8575TIP3    H247217   5.622   3.966   4.022 -0.6317 -0.7152 -1.4638
 8576TIP3   OH247218   5.797   6.014   3.265  0.0608 -0.1700  0.4314
 8576TIP3    H147219   5.865   6.077   3.291 -0.1225  0.2766 -0.1651
 8576TIP3    H247220   5.759   5.985   3.348 -0.4549  1.1757  0.6912
 8577TIP3   OH247221   3.623   4.278  13.399 -0.4131 -0.3452 -0.6411
 8577TIP3    H147222   3.713   4.277  13.367 -0.1667 -3.3601 -0.0692
 8577TIP3    H247223   3.580   4.205  13.355 -1.8293 -0.6407  1.1277
 8578TIP3   OH247224   2.272   4.636  14.586  0.2356  0.2921  0.7274
 8578TIP3    H147225   2.325   4.693  14.642 -0.0857  2.2098 -0.7728
 8578TIP3    H247226   2.330   4.612  14.514 -0.0042 -0.2755  0.7179
 8579TIP3   OH247227   5.214   0.868  10.790  0.2629  0.0508  0.0191
 8579TIP3    H147228   5.166   0.890  10.710 -1.5474  1.5711  1.4024
 8579TIP3    H247229   5.306   0.876  10.767 -0.2285  2.2919 -1.4813
 8580TIP3   OH247230   5.561   2.106  12.174 -0.4334 -0.1265 -0.2813
 8580TIP3    H147231   5.484   2.051  12.183 -0.4500  0.1120  1.3302
 8580TIP3    H247232   5.591   2.091  12.085 -0.0959 -3.1914  0.2322
 8581TIP3   OH247233   4.147   3.384  11.699 -0.7169  0.4502  0.1142
 8581TIP3    H147234   4.114   3.390  11.788 -0.7114  2.0819  0.0466
 8581TIP3    H247235   4.130   3.294  11.672 -2.2690  0.4030  1.1581
 8582TIP3   OH247236   5.232   2.354   1.700 -0.2083  0.1215 -0.4399
 8582TIP3    H147237   5.294   2.306   1.755 -2.9084 -0.6316  2.1821
 8582TIP3    H247238   5.225   2.440   1.742 -0.3458  0.4788 -1.1830
 8583TIP3   OH247239   6.189   3.860  13.285 -0.5770  0.2333 -0.9077
 8583TIP3    H147240   6.199   3.948  13.247  0.1641  0.1327 -0.9647
 8583TIP3    H247241   6.105   3.862  13.330 -0.4002  1.0898 -0.6051
 8584TIP3   OH247242   2.269   4.063   4.886 -0.1924  0.0864  0.8666
 8584TIP3    H147243   2.251   4.157   4.894 -0.7237 -0.1500  3.2462
 8584TIP3    H247244   2.258   4.044   4.793 -1.6277  2.0738  0.5680
 8585TIP3   OH247245   6.483   5.388  16.064  0.1497 -0.0289  0.5832
 8585TIP3    H147246   6.502   5.436  16.144  0.2212 -0.5699  0.8974
 8585TIP3    H247247   6.502   5.450  15.993  1.9517 -0.1515  0.9220
 8586TIP3   OH247248   6.716   0.198  13.365  0.4089 -0.1788 -0.0854
 8586TIP3    H147249   6.742   0.136  13.434 -0.3712  1.6622  2.0019
 8586TIP3    H247250   6.654   0.150  13.312  0.4053 -1.4403  1.0088
 8587TIP3   OH247251   4.411   4.532   6.027  0.2242 -0.2005  0.0386
 8587TIP3    H147252   4.468   4.608   6.039  0.4391 -0.5294  1.2437
 8587TIP3    H247253   4.395   4.500   6.116 -1.7723 -0.1768 -0.2691
 8588TIP3   OH247254   2.730   0.477   0.463 -0.2122  0.2196 -0.0458
 8588TIP3    H147255   2.732   0.382   0.467 -0.7259  0.1730 -0.7276
 8588TIP3    H247256   2.705   0.497   0.373  1.7072  1.0393 -0.4366
 8589TIP3   OH247257   2.326   4.018  10.650  0.0592  0.8138  0.2049
 8589TIP3    H147258   2.415   3.988  10.669  0.6431  1.1826 -1.7843
 8589TIP3    H247259   2.272   3.939  10.655  0.9947  0.0451 -1.4678
 8590TIP3   OH247260   3.361   5.008   5.409  0.2178  0.4273 -0.1839
 8590TIP3    H147261   3.407   4.927   5.386 -1.7411 -0.7596 -0.1885
 8590TIP3    H247262   3.387   5.026   5.499  0.6019 -0.2917 -0.1435
 8591TIP3   OH247263   5.682   6.376   5.246  0.4124 -0.5429 -0.0426
 8591TIP3    H147264   5.652   6.285   5.252 -1.3019  0.0525  1.0366
 8591TIP3    H247265   5.732   6.390   5.327  0.1490 -0.3360  0.0831
 8592TIP3   OH247266   5.030   3.256   2.122 -0.4229 -0.1978  0.5385
 8592TIP3    H147267   4.966   3.310   2.075 -1.1627  0.0297  1.7696
 8592TIP3    H247268   5.041   3.300   2.207 -2.4304 -2.9050  2.3421
 8593TIP3   OH247269   4.515   5.847  16.589 -0.4677 -0.5304 -0.0080
 8593TIP3    H147270   4.488   5.793  16.663  0.8763 -2.3393 -0.7808
 8593TIP3    H247271   4.436   5.858  16.536 -1.3137  0.3529  1.3803
 8594TIP3   OH247272   2.350   3.431   1.171 -0.3751 -0.6020  0.2492
 8594TIP3    H147273   2.440   3.413   1.142 -0.4449  1.2936 -1.3898
 8594TIP3    H247274   2.358   3.507   1.228 -0.7298 -1.8392  2.0190
 8595TIP3   OH247275   6.648   0.138   6.583 -0.3337 -0.2920  0.7530
 8595TIP3    H147276   6.712   0.068   6.598 -0.2409 -0.0276  1.6046
 8595TIP3    H247277   6.563   0.097   6.604 -0.4359 -0.5712 -0.1477
 8596TIP3   OH247278   1.965   6.027   3.219 -0.5638  0.6295 -0.6719
 8596TIP3    H147279   2.044   6.078   3.200 -0.4817  2.6553  3.8629
 8596TIP3    H247280   1.964   6.019   3.314 -4.3754 -1.8488 -0.7045
 8597TIP3   OH247281   2.352   0.170  14.348  0.0249  0.4949  0.1296
 8597TIP3    H147282   2.323   0.261  14.348 -0.9068  0.2044 -0.2951
 8597TIP3    H247283   2.357   0.147  14.441 -0.8605  0.6377  0.2210
 8598TIP3   OH247284   1.059   5.303  13.475  0.4506 -0.5064 -0.2614
 8598TIP3    H147285   1.108   5.385  13.485  1.1977 -0.7594 -1.5460
 8598TIP3    H247286   0.985   5.311  13.535  0.9392  0.7749  0.2011
 8599TIP3   OH247287   2.594   3.424  15.931  0.2977  0.1214 -0.4933
 8599TIP3    H147288   2.622   3.512  15.957 -0.3613 -0.1360  1.1457
 8599TIP3    H247289   2.668   3.368  15.951  0.3793  0.1560 -0.6907
 8600TIP3   OH247290   5.836   3.411  11.913 -0.1052 -0.2817 -0.2813
 8600TIP3    H147291   5.824   3.448  12.001 -0.7959 -2.6038  0.6707
 8600TIP3    H247292   5.931   3.400  11.905 -0.0756 -0.6053  0.4296
 8601TIP3   OH247293   6.484   6.625   5.870 -0.0652 -0.3112 -0.4986
 8601TIP3    H147294   6.477   6.548   5.926 -1.4733  0.2833  0.2009
 8601TIP3    H247295   6.393   6.646   5.847  0.2393  1.4414 -0.2230
 8602TIP3   OH247296   6.530   0.286  11.209 -0.0622 -0.3658  0.4062
 8602TIP3    H147297   6.500   0.374  11.186  1.3204  0.1497  0.4907
 8602TIP3    H247298   6.535   0.239  11.126  0.6839  0.1289  0.1597
 8603TIP3   OH247299   0.581   2.399  12.331  0.3908  0.6121  0.7577
 8603TIP3    H147300   0.633   2.326  12.298  0.2575  0.4958  0.8046
 8603TIP3    H247301   0.535   2.363  12.407 -0.1320  0.5738  0.4335
 8604TIP3   OH247302   2.542   4.570   1.861 -0.0891  0.1740 -0.5123
 8604TIP3    H147303   2.572   4.491   1.815  2.3846  0.6697  0.0879
 8604TIP3    H247304   2.474   4.606   1.805 -0.5547 -1.8166 -1.3252
 8605TIP3   OH247305   4.880   4.412   5.410 -0.6348  0.0767 -0.4442
 8605TIP3    H147306   4.842   4.438   5.326 -1.5174  0.3943  0.0446
 8605TIP3    H247307   4.972   4.396   5.390 -1.0659 -1.0122 -1.7211
 8606TIP3   OH247308   2.780   4.979   1.670 -0.3141 -0.1125 -0.6821
 8606TIP3    H147309   2.776   4.997   1.763 -1.8772 -0.8354 -0.5856
 8606TIP3    H247310   2.739   4.893   1.660  2.5231 -1.4759 -1.6971
 8607TIP3   OH247311   5.399   1.021   6.500 -0.2084 -0.2683 -0.0126
 8607TIP3    H147312   5.429   0.980   6.419  1.7849 -1.7291  1.3699
 8607TIP3    H247313   5.467   1.084   6.523 -0.5585 -0.1496  0.7421
 8608TIP3   OH247314   4.865   6.328   2.173  0.0587  0.0782 -0.2896
 8608TIP3    H147315   4.948   6.288   2.146  0.1861 -0.6342  1.0971
 8608TIP3    H247316   4.887   6.421   2.187  0.4622  0.0294 -0.5981
 8609TIP3   OH247317   4.068   1.479  12.940  0.2995  0.0176 -0.2694
 8609TIP3    H147318   4.018   1.454  13.018  0.4772 -1.4609 -0.6001
 8609TIP3    H247319   4.087   1.571  12.952 -1.5160  0.3487  0.4307
 8610TIP3   OH247320   4.322   1.010   3.164  0.1663 -0.3374 -0.0907
 8610TIP3    H147321   4.367   1.064   3.229  0.7235  0.6432 -1.2631
 8610TIP3    H247322   4.315   0.924   3.206 -1.7506  0.8567  2.2590
 8611TIP3   OH247323   6.047   0.603  15.362  0.0219 -0.0244 -0.3651
 8611TIP3    H147324   6.037   0.511  15.389 -0.0401  0.8807  3.1704
 8611TIP3    H247325   6.137   0.608  15.328  0.7568 -1.0532  1.2783
 8612TIP3   OH247326   0.555   0.037  10.899  0.2493  0.3266 -0.7777
 8612TIP3    H147327   0.511   0.121  10.883  1.7576  0.9452 -1.9834
 8612TIP3    H247328   0.540  -0.013  10.819  1.2943  0.3785 -1.0253
 8613TIP3   OH247329   0.242   3.424   3.693 -0.3515  0.6023 -0.4516
 8613TIP3    H147330   0.324   3.474   3.688 -0.4594  0.8537  0.2842
 8613TIP3    H247331   0.236   3.381   3.607  0.7306  0.2897 -0.3874
 8614TIP3   OH247332   5.158   1.656  12.306 -0.5670  0.2878 -0.3207
 8614TIP3    H147333   5.160   1.679  12.399  1.0598 -0.9603  0.0102
 8614TIP3    H247334   5.081   1.601  12.296 -0.2687 -0.2822  0.4807
 8615TIP3   OH247335   2.675   5.685   0.111 -0.3444 -0.1013 -0.1086
 8615TIP3    H147336   2.596   5.632   0.099 -2.2527  1.8657  2.4524
 8615TIP3    H247337   2.697   5.675   0.204  1.8897  0.1755 -0.5577
 8616TIP3   OH247338   0.585   1.904   6.092  0.2944  0.4737 -0.0005
 8616TIP3    H147339   0.679   1.894   6.104  0.6124  2.9377  0.1088
 8616TIP3    H247340   0.546   1.861   6.168  1.2183 -1.7754 -0.7478
 8617TIP3   OH247341   0.717   2.390  10.463  0.3342 -0.3678  0.7461
 8617TIP3    H147342   0.728   2.383  10.558  2.6121 -2.3340  0.4227
 8617TIP3    H247343   0.767   2.317  10.428  1.7783  1.7793 -2.0873
 8618TIP3   OH247344   3.038   3.885   1.809 -0.3280  0.1741 -0.1092
 8618TIP3    H147345   2.971   3.867   1.875 -1.7914 -0.4638 -1.6999
 8618TIP3    H247346   3.042   3.980   1.804 -1.0844  0.2214  0.0464
 8619TIP3   OH247347   0.777   2.347  16.300  0.1868 -0.0503 -0.6417
 8619TIP3    H147348   0.872   2.354  16.312  0.1114  2.6007 -0.8857
 8619TIP3    H247349   0.743   2.324  16.386  1.1633 -4.7230 -1.2292
 8620TIP3   OH247350   2.729   3.512  16.930 -0.5850  0.5499  0.2967
 8620TIP3    H147351   2.780   3.593  16.938 -0.3420  0.4921 -0.5662
 8620TIP3    H247352   2.795   3.443  16.922 -0.7389  0.6182 -2.2621
 8621TIP3   OH247353   1.227   1.212   4.168  0.1297 -0.4577 -0.3551
 8621TIP3    H147354   1.298   1.150   4.184 -1.0782 -1.4785  1.5067
 8621TIP3    H247355   1.265   1.280   4.113  2.0166 -1.8966 -0.9063
 8622TIP3   OH247356   5.656   4.593  16.793 -0.2743 -0.1104  0.0632
 8622TIP3    H147357   5.716   4.647  16.742 -1.7307  0.0985 -1.4914
 8622TIP3    H247358   5.596   4.556  16.729 -2.5376  0.5983  1.6536
 8623TIP3   OH247359   6.482   5.278   4.634 -0.2533 -0.4466 -0.2864
 8623TIP3    H147360   6.401   5.228   4.634  0.4458 -1.6450 -1.0942
 8623TIP3    H247361   6.492   5.308   4.544 -1.1303  2.0353  0.3669
 8624TIP3   OH247362   6.506   1.633  14.600  0.3208 -0.5114  0.5706
 8624TIP3    H147363   6.587   1.588  14.576 -0.6111 -1.9151 -0.0819
 8624TIP3    H247364   6.447   1.618  14.525 -0.5370  0.4874  1.0200
 8625TIP3   OH247365   3.403   2.475   2.517 -0.1419 -0.1709 -0.0781
 8625TIP3    H147366   3.482   2.425   2.539  0.1565  0.5430  0.4814
 8625TIP3    H247367   3.332   2.413   2.530  0.2501 -0.5471  0.3133
 8626TIP3   OH247368   1.559   2.824   0.143  0.2360  0.0914 -0.0036
 8626TIP3    H147369   1.485   2.805   0.086  0.1813  0.0789  0.0712
 8626TIP3    H247370   1.609   2.742   0.147  0.3779  0.1666 -0.2358
 8627TIP3   OH247371   2.100   3.766   4.758  0.1510 -0.6390  0.0376
 8627TIP3    H147372   2.105   3.811   4.842 -0.9029 -0.1437 -0.1578
 8627TIP3    H247373   2.073   3.677   4.780 -0.5603 -0.3885  0.1880
 8628TIP3   OH247374   1.984   1.178  10.348 -0.3893  0.1894  0.2455
 8628TIP3    H147375   1.898   1.179  10.391 -1.2602 -1.0590 -1.3417
 8628TIP3    H247376   1.987   1.094  10.303  0.8537  1.0294 -1.3365
 8629TIP3   OH247377   1.516   3.416  13.625 -0.0122 -0.2546  0.4823
 8629TIP3    H147378   1.553   3.487  13.573 -0.5525 -0.6572 -0.4834
 8629TIP3    H247379   1.585   3.391  13.686  0.7152  0.0963 -0.1847
 8630TIP3   OH247380   5.473   5.833   5.918  0.1851 -0.2127  0.5203
 8630TIP3    H147381   5.516   5.799   5.839 -0.4523 -0.2708  0.1907
 8630TIP3    H247382   5.510   5.921   5.930 -0.9591  0.4939 -0.8511
 8631TIP3   OH247383   4.868   4.376  13.515 -0.0754  0.0269 -0.7361
 8631TIP3    H147384   4.794   4.369  13.455 -3.7034  3.6279  2.6950
 8631TIP3    H247385   4.915   4.455  13.486 -0.8193  0.7798  0.0377
 8632TIP3   OH247386   3.730   6.668   4.018  0.3404 -0.1268 -0.5183
 8632TIP3    H147387   3.735   6.747   3.965 -0.7333 -0.1929 -0.7445
 8632TIP3    H247388   3.654   6.682   4.075  1.4834 -0.0283  1.0519
 8633TIP3   OH247389   1.500   4.837   0.807  0.5473  0.1585 -0.2830
 8633TIP3    H147390   1.429   4.818   0.745  0.6975 -1.5914  0.0321
 8633TIP3    H247391   1.463   4.901   0.867 -0.7969 -0.7191 -0.1338
 8634TIP3   OH247392   3.103   1.293   4.256 -0.4964  0.0108 -0.0956
 8634TIP3    H147393   3.010   1.291   4.233 -0.1409 -1.4905 -1.5682
 8634TIP3    H247394   3.109   1.238   4.335 -0.8700  0.2955  0.1383
 8635TIP3   OH247395   1.025   2.634   4.566 -0.1769 -0.4544  0.5083
 8635TIP3    H147396   0.969   2.666   4.496  0.1158 -1.2601 -0.1099
 8635TIP3    H247397   0.975   2.563   4.606  0.2828 -1.0099  0.1179
 8636TIP3   OH247398   3.704   0.707   4.692  0.2118 -0.3369  0.0990
 8636TIP3    H147399   3.656   0.668   4.620 -1.7194 -0.6300  1.4632
 8636TIP3    H247400   3.774   0.645   4.712 -0.8930 -1.5848  0.1990
 8637TIP3   OH247401   0.903   4.441  10.579  0.1021 -0.3968 -0.0657
 8637TIP3    H147402   0.863   4.500  10.514 -0.0083 -0.6671 -0.2434
 8637TIP3    H247403   0.847   4.451  10.657  1.0462  0.9976  0.4758
 8638TIP3   OH247404   6.805   6.187   0.859  0.6023  0.5800  0.8337
 8638TIP3    H147405   6.730   6.209   0.804  0.1367  0.8654  1.5621
 8638TIP3    H247406   6.772   6.197   0.949  1.8381  1.8901  1.1750
 8639TIP3   OH247407   5.236   0.750   3.782  0.3042 -0.2169 -0.2045
 8639TIP3    H147408   5.265   0.700   3.705  1.2035 -0.2889  0.1611
 8639TIP3    H247409   5.306   0.736   3.846  0.5009  1.3649 -0.0299
 8640TIP3   OH247410   0.017   2.459  16.718 -0.4850  0.0687 -0.7134
 8640TIP3    H147411  -0.035   2.473  16.797 -0.4392 -0.9128 -0.4858
 8640TIP3    H247412   0.011   2.541  16.669  0.1631  0.9831  0.6965
 8641TIP3   OH247413   4.444   5.498   5.198 -0.6596  0.8852  0.2134
 8641TIP3    H147414   4.433   5.578   5.249  0.9489  1.4642 -0.3183
 8641TIP3    H247415   4.394   5.513   5.118 -1.1248  0.9628  0.5118
 8642TIP3   OH247416   4.793   3.400   1.839 -0.1394 -0.9452  0.1555
 8642TIP3    H147417   4.821   3.450   1.916 -0.4351 -0.6880  0.0966
 8642TIP3    H247418   4.750   3.323   1.875 -0.2573 -0.8364  0.2502
 8643TIP3   OH247419   6.422   2.020  14.708  0.0496 -0.3154 -0.1829
 8643TIP3    H147420   6.410   1.944  14.652  0.0498  1.1310 -2.2330
 8643TIP3    H247421   6.337   2.065  14.707  0.2622  0.1217  0.3878
 8644TIP3   OH247422   4.044   0.821  11.660 -0.1850 -0.2903  0.0989
 8644TIP3    H147423   4.087   0.738  11.678 -0.3691  0.0664  2.5483
 8644TIP3    H247424   3.953   0.807  11.685 -0.8503 -0.0969 -2.0270
 8645TIP3   OH247425   3.100   6.011   5.539 -0.5340 -0.1043 -0.1691
 8645TIP3    H147426   3.005   6.014   5.548 -0.6124 -0.2343 -0.9041
 8645TIP3    H247427   3.131   6.086   5.589 -0.7886 -1.7845  2.7627
 8646TIP3   OH247428   6.173   6.368  14.595 -0.6865  0.6607 -0.0029
 8646TIP3    H147429   6.111   6.431  14.559  1.4367  2.8205 -0.1747
 8646TIP3    H247430   6.249   6.374  14.538 -0.1676 -1.6574  0.3623
 8647TIP3   OH247431   5.882   3.423   5.890  0.1466 -0.0745  0.7843
 8647TIP3    H147432   5.888   3.469   5.807  1.5634 -0.7257  0.4877
 8647TIP3    H247433   5.941   3.471   5.949  1.3138 -1.2070  0.5901
 8648TIP3   OH247434   1.597   4.088  15.645  0.4014 -0.0224 -0.1127
 8648TIP3    H147435   1.564   4.083  15.556  0.4942 -0.3938 -0.1269
 8648TIP3    H247436   1.565   4.008  15.687  0.7644 -0.0842  0.0490
 8649TIP3   OH247437   1.470   1.238  12.763  0.1045  0.0814  0.3101
 8649TIP3    H147438   1.535   1.229  12.693 -0.4384  1.8032 -0.4575
 8649TIP3    H247439   1.394   1.190  12.730 -0.6986  2.1515 -1.0539
 8650TIP3   OH247440   2.571   2.403   0.702  0.3546  0.0265 -0.5526
 8650TIP3    H147441   2.500   2.395   0.638 -1.9877 -0.2882  1.9369
 8650TIP3    H247442   2.620   2.480   0.673 -2.4101  1.7085 -1.1082
 8651TIP3   OH247443   6.812   5.371  14.052 -0.1566 -0.2225  0.0315
 8651TIP3    H147444   6.819   5.377  13.957 -0.3059  1.0610  0.0931
 8651TIP3    H247445   6.731   5.322  14.066 -1.5271  1.7607 -0.5120
 8652TIP3   OH247446   5.413   0.334   2.730  0.1004 -0.0153 -0.2153
 8652TIP3    H147447   5.333   0.330   2.783 -0.6414  0.5877 -1.2338
 8652TIP3    H247448   5.381   0.340   2.640  1.2352  2.1128 -0.5394
 8653TIP3   OH247449   4.246   5.297   4.689  0.1980 -0.7096 -0.3504
 8653TIP3    H147450   4.164   5.346   4.696  0.4646 -0.3196  0.0564
 8653TIP3    H247451   4.314   5.364   4.690  0.6851 -1.1532  2.0636
 8654TIP3   OH247452   6.766   0.102  14.052 -0.0164 -0.4414  0.0055
 8654TIP3    H147453   6.779   0.076  13.961  3.7657 -0.9621  0.5043
 8654TIP3    H247454   6.692   0.049  14.082  0.6483 -2.6666 -1.9390
 8655TIP3   OH247455   4.661   1.008   2.808  1.3249 -0.0834  0.6662
 8655TIP3    H147456   4.566   1.023   2.805  0.9226 -2.4664 -1.1991
 8655TIP3    H247457   4.680   0.995   2.901  0.0226  1.3200  1.1691
 8656TIP3   OH247458   4.929   0.981   3.040 -0.0992  0.3918 -0.0670
 8656TIP3    H147459   4.946   1.054   2.979 -0.0318  0.0725 -0.4327
 8656TIP3    H247460   4.837   0.990   3.062  0.1504  1.2163  0.7199
 8657TIP3   OH247461   1.339   0.468  14.400 -0.3800 -0.3889  0.2003
 8657TIP3    H147462   1.262   0.426  14.439 -1.1379  1.6914  1.0575
 8657TIP3    H247463   1.332   0.560  14.426  2.6625 -0.2207  0.7265
 8658TIP3   OH247464   2.476   0.708   4.473 -0.2680  0.1980 -0.5969
 8658TIP3    H147465   2.555   0.759   4.453 -0.3589  0.8667  0.6381
 8658TIP3    H247466   2.500   0.618   4.452  0.0105  0.6741 -2.5100
 8659TIP3   OH247467   2.624   0.687  15.392 -0.5028 -0.6760  0.4260
 8659TIP3    H147468   2.555   0.653  15.335 -1.7568 -0.0127  1.5175
 8659TIP3    H247469   2.666   0.609  15.427  0.5532 -1.1194 -1.6420
 8660TIP3   OH247470   3.925   2.002  13.447  0.1016  0.0706  0.0554
 8660TIP3    H147471   3.892   1.914  13.428  0.8549 -0.3589  0.6408
 8660TIP3    H247472   4.008   2.007  13.399 -0.8321  1.2063 -1.5619
 8661TIP3   OH247473   2.020   3.648   0.281 -0.2209  0.0847  0.3053
 8661TIP3    H147474   2.050   3.558   0.289  0.1898  0.1444 -0.4554
 8661TIP3    H247475   1.946   3.654   0.341 -1.4824 -1.3145 -1.0170
 8662TIP3   OH247476   1.540   3.911  12.632 -0.5459  0.5615 -0.4563
 8662TIP3    H147477   1.633   3.918  12.609 -0.2642 -1.1407  0.0479
 8662TIP3    H247478   1.535   3.938  12.723 -0.1848 -1.1851  0.1245
 8663TIP3   OH247479   4.123   0.335  11.972  0.2880 -0.3770 -0.2506
 8663TIP3    H147480   4.169   0.251  11.967  2.1989  0.6269 -0.1026
 8663TIP3    H247481   4.173   0.386  12.035 -0.3328  1.2066 -1.0030
 8664TIP3   OH247482   2.649   0.015  15.685  0.6055 -0.0822 -0.4784
 8664TIP3    H147483   2.743  -0.002  15.673  0.7368 -0.6187  1.0855
 8664TIP3    H247484   2.617   0.036  15.598  2.0213 -0.7004 -1.1762
 8665TIP3   OH247485   6.737   6.531   2.849 -0.7106 -0.7260 -0.0235
 8665TIP3    H147486   6.712   6.573   2.931  0.1445  1.1838 -0.6770
 8665TIP3    H247487   6.818   6.576   2.823 -0.7167 -1.5930 -1.6873
 8666TIP3   OH247488   5.406   5.472  13.410 -0.1087 -0.0917  0.2991
 8666TIP3    H147489   5.476   5.447  13.349 -1.0605  0.3504 -1.0340
 8666TIP3    H247490   5.437   5.554  13.449  0.0525  0.2105 -0.4347
 8667TIP3   OH247491   2.099   1.428  14.328  0.3764  0.7459 -0.4424
 8667TIP3    H147492   2.116   1.502  14.271  1.4283  1.6727  1.0052
 8667TIP3    H247493   2.008   1.439  14.355  0.1238  0.7508 -1.2908
 8668TIP3   OH247494   3.949   6.297  11.164 -0.2340  0.3194 -0.3818
 8668TIP3    H147495   3.865   6.324  11.126 -0.7269  1.6097  1.4992
 8668TIP3    H247496   4.015   6.341  11.110 -0.8529  1.0780 -0.5249
 8669TIP3   OH247497   1.897   1.791   4.510  0.2271 -0.6834 -0.6133
 8669TIP3    H147498   1.993   1.787   4.516  0.1097 -1.3152  1.4513
 8669TIP3    H247499   1.876   1.881   4.535  0.1739 -1.2953  1.7554
 8670TIP3   OH247500   6.583   3.858   2.219  0.5855  0.4901 -1.0028
 8670TIP3    H147501   6.570   3.952   2.230 -0.9899  0.1849 -0.0057
 8670TIP3    H247502   6.560   3.841   2.127  2.1462  1.2328 -1.5756
 8671TIP3   OH247503   1.802   3.347  14.330 -0.3418 -0.0721 -0.3618
 8671TIP3    H147504   1.854   3.368  14.252 -1.6103 -0.5887 -1.3738
 8671TIP3    H247505   1.855   3.283  14.377  0.7023  0.6746 -0.4765
 8672TIP3   OH247506   5.883   0.967  14.695 -0.0089 -0.0161 -0.0040
 8672TIP3    H147507   5.960   0.945  14.748  0.6420  1.7220 -0.1715
 8672TIP3    H247508   5.882   0.902  14.625  1.5840  0.1912 -0.2474
 8673TIP3   OH247509   6.223   5.497  15.568  0.3894 -0.2352 -0.6613
 8673TIP3    H147510   6.292   5.465  15.510 -1.0028 -1.1946 -1.8434
 8673TIP3    H247511   6.145   5.500  15.513 -0.9564 -1.0560  1.1150
 8674TIP3   OH247512   6.484   1.292  16.360  0.0512 -0.1343  0.1012
 8674TIP3    H147513   6.401   1.326  16.325  0.1566  0.8946  0.7880
 8674TIP3    H247514   6.474   1.197  16.358 -1.2944 -0.0233  0.5173
 8675TIP3   OH247515   0.267   3.623  12.249  0.1178  0.1153 -0.6897
 8675TIP3    H147516   0.203   3.575  12.195  1.6776 -1.7453 -0.9866
 8675TIP3    H247517   0.352   3.599  12.212  1.0502  2.9087 -0.6281
 8676TIP3   OH247518   5.629   0.528   3.066 -0.1184 -0.2126  0.2617
 8676TIP3    H147519   5.666   0.609   3.032  0.4837 -0.6807 -0.2073
 8676TIP3    H247520   5.539   0.551   3.088 -0.5875  0.0729 -1.7944
 8677TIP3   OH247521   0.984   2.426  13.748  0.4302  0.1247 -0.0848
 8677TIP3    H147522   1.047   2.420  13.819 -0.1727 -0.5219  0.4147
 8677TIP3    H247523   0.936   2.343  13.752 -2.0142  1.4780  1.0460
 8678TIP3   OH247524   5.663   6.514  14.210  0.0956  0.4743 -0.0478
 8678TIP3    H147525   5.739   6.547  14.257  1.2487  0.8683 -2.1044
 8678TIP3    H247526   5.630   6.589  14.161 -1.2221  0.1274  0.2466
 8679TIP3   OH247527   0.113   6.171   0.333  0.4248 -0.2359  0.1862
 8679TIP3    H147528   0.173   6.097   0.331  0.0004 -0.5901 -1.5551
 8679TIP3    H247529   0.165   6.245   0.302  0.5897  0.0013  1.0032
 8680TIP3   OH247530   2.864   5.520  11.177 -0.1353  0.8093 -0.2259
 8680TIP3    H147531   2.822   5.594  11.134  0.0946  1.7559  1.1026
 8680TIP3    H247532   2.952   5.551  11.198 -0.3430  0.5151  1.1833
 8681TIP3   OH247533   1.542   6.364  15.258  1.3174 -0.5382  0.1897
 8681TIP3    H147534   1.461   6.390  15.214  2.0948  1.5342 -0.1312
 8681TIP3    H247535   1.547   6.270  15.245 -0.7804 -0.6501 -0.2154
 8682TIP3   OH247536   6.654   2.677   0.023  0.7526  0.2304  0.5496
 8682TIP3    H147537   6.693   2.590   0.031 -0.4891 -0.3690  0.4485
 8682TIP3    H247538   6.716   2.727  -0.028  0.9802 -0.9524 -0.3889
 8683TIP3   OH247539   6.751   5.233  13.375 -0.4224 -0.1513 -0.2405
 8683TIP3    H147540   6.838   5.271  13.387 -0.9155  0.8329  0.4418
 8683TIP3    H247541   6.705   5.296  13.319 -1.6428  0.9702  1.8778
 8684TIP3   OH247542   2.255   2.323  14.042 -0.4697 -0.1575 -0.0759
 8684TIP3    H147543   2.314   2.375  14.098 -0.4340  0.6113 -0.8007
 8684TIP3    H247544   2.266   2.233  14.073 -0.8486  0.3057  1.4926
 8685TIP3   OH247545   3.006   1.559  13.838  0.1705  0.1038 -0.6420
 8685TIP3    H147546   2.972   1.648  13.849  1.0091  0.2850  0.6845
 8685TIP3    H247547   3.046   1.560  13.751  1.0095  1.3456 -0.2771
 8686TIP3   OH247548   2.233   5.184   3.759 -0.4969  0.2743 -0.2901
 8686TIP3    H147549   2.210   5.161   3.669 -1.9807  0.5758 -0.0078
 8686TIP3    H247550   2.264   5.103   3.798  0.9541  0.3116 -1.2910
 8687TIP3   OH247551   2.919   3.038   0.439  0.2701  0.1056 -0.2263
 8687TIP3    H147552   3.006   3.065   0.469  1.1343  0.3650 -2.7025
 8687TIP3    H247553   2.867   3.118   0.441  0.6415  0.3557 -0.5045
 8688TIP3   OH247554   0.778   6.138   3.525 -0.1198 -0.2552 -0.0854
 8688TIP3    H147555   0.873   6.153   3.517  0.1553 -0.6909  1.7729
 8688TIP3    H247556   0.763   6.136   3.620 -1.8138 -1.2752 -0.3458
 8689TIP3   OH247557   0.679   0.565  15.066 -0.7871  0.1060  0.7376
 8689TIP3    H147558   0.736   0.638  15.041 -1.9209  0.8280  0.1754
 8689TIP3    H247559   0.716   0.533  15.148  1.0513 -0.1461 -0.1193
 8690TIP3   OH247560   4.287   1.739   2.803  0.2137 -0.0927 -0.1700
 8690TIP3    H147561   4.261   1.805   2.738 -0.5550  0.0548  0.2758
 8690TIP3    H247562   4.319   1.666   2.751  1.5148  0.8015 -0.6623
 8691TIP3   OH247563   3.211   1.538  13.073  0.2885  0.1745  0.1276
 8691TIP3    H147564   3.239   1.611  13.128  0.2196  0.3553 -0.0795
 8691TIP3    H247565   3.289   1.482  13.067  0.5705  0.6024 -0.3230
 8692TIP3   OH247566   3.188   3.717   0.192  0.2584 -0.3228 -0.2108
 8692TIP3    H147567   3.095   3.742   0.193  0.3616  0.1131 -0.8774
 8692TIP3    H247568   3.198   3.662   0.269 -0.5534 -0.3591 -0.1158
 8693TIP3   OH247569   6.492   2.434  11.554  0.2451 -0.0163 -0.0144
 8693TIP3    H147570   6.478   2.509  11.496 -1.3955 -0.1869  0.1354
 8693TIP3    H247571   6.507   2.473  11.640 -0.3083  0.1477  0.0080
 8694TIP3   OH247572   4.827   6.075  11.259 -0.4229  0.1722 -0.1995
 8694TIP3    H147573   4.757   6.064  11.323 -0.6604  0.8979 -0.3133
 8694TIP3    H247574   4.862   6.163  11.277  0.1953 -0.0290 -0.3982
 8695TIP3   OH247575   6.732   0.588  12.315 -0.4652  0.3801 -0.3575
 8695TIP3    H147576   6.684   0.669  12.324 -1.2257 -0.2369  1.5786
 8695TIP3    H247577   6.794   0.588  12.388  1.6454  0.5525 -2.0381
 8696TIP3   OH247578   2.766   1.178  14.624 -0.0576  0.1061  0.3238
 8696TIP3    H147579   2.687   1.138  14.588 -0.4528  0.5614  0.6651
 8696TIP3    H247580   2.761   1.270  14.597  0.2231  0.1946  0.5656
 8697TIP3   OH247581   5.200   2.869   0.810 -0.3324 -0.6070 -0.3013
 8697TIP3    H147582   5.176   2.794   0.755 -1.3801  0.3105 -1.1335
 8697TIP3    H247583   5.202   2.833   0.899 -1.5334 -1.4832 -0.5955
 8698TIP3   OH247584   3.584   0.421   0.913 -0.0971  0.5084 -0.2538
 8698TIP3    H147585   3.496   0.408   0.877 -0.0376 -2.1752  0.3335
 8698TIP3    H247586   3.630   0.471   0.846 -1.9537  1.7034 -0.7082
 8699TIP3   OH247587   5.888   5.535  15.923 -0.0507 -0.0114  0.2108
 8699TIP3    H147588   5.834   5.525  15.845  0.4345  0.6440 -0.2175
 8699TIP3    H247589   5.977   5.542  15.890  0.2531 -0.5524  0.8783
 8700TIP3   OH247590   3.823   0.318  11.357 -0.0664 -0.4289 -0.5997
 8700TIP3    H147591   3.884   0.327  11.284  0.9345 -0.0725  0.2496
 8700TIP3    H247592   3.868   0.361  11.430 -1.0301 -0.8020  0.2264
 8701TIP3   OH247593   3.088   1.382  11.709  0.1496 -0.1713  0.2152
 8701TIP3    H147594   3.098   1.476  11.693  0.5352 -0.1852  0.3574
 8701TIP3    H247595   3.117   1.369  11.799  0.9628 -0.5558 -0.0921
 8702TIP3   OH247596   5.836   2.986   0.500 -0.0558  0.1469  0.1942
 8702TIP3    H147597   5.872   3.019   0.417 -0.3409 -0.8832 -0.3635
 8702TIP3    H247598   5.784   3.058   0.534 -0.0581  0.5336 -0.6061
 8703TIP3   OH247599   4.067   5.599  11.402 -0.2076 -0.0784 -0.4359
 8703TIP3    H147600   4.159   5.577  11.418 -0.3840 -1.1180 -0.7232
 8703TIP3    H247601   4.028   5.516  11.372 -0.6878  0.8900 -2.6521
 8704TIP3   OH247602   3.713   2.344  13.146 -0.5040 -0.3778 -0.0250
 8704TIP3    H147603   3.747   2.314  13.231  1.7486 -1.0479 -1.0768
 8704TIP3    H247604   3.711   2.266  13.092  0.1535  0.3890 -1.1992
 8705TIP3   OH247605   4.173   3.943  14.404  0.2914  0.3381  0.1167
 8705TIP3    H147606   4.265   3.954  14.380  0.3730  0.1525  0.3531
 8705TIP3    H247607   4.172   3.871  14.467 -0.2090 -0.8140 -1.1531
 8706TIP3   OH247608   3.327   2.367   5.861  0.0262 -0.2747  0.5066
 8706TIP3    H147609   3.311   2.455   5.896 -1.6346 -0.3860  0.0883
 8706TIP3    H247610   3.345   2.381   5.768 -2.0183 -0.4868  0.0431
 8707TIP3   OH247611   5.526   4.886  16.880  0.1454  0.0170 -0.0913
 8707TIP3    H147612   5.553   4.899  16.971 -0.6662  0.9590  0.0330
 8707TIP3    H247613   5.599   4.841  16.839 -0.1660 -2.0181  1.4477
 8708TIP3   OH247614   0.373   2.717  10.328  0.1829  0.4505  0.2498
 8708TIP3    H147615   0.458   2.674  10.330  0.1887  0.4024 -0.7808
 8708TIP3    H247616   0.393   2.810  10.339  0.4679  0.5507 -0.9692
 8709TIP3   OH247617   2.365   5.670   2.805 -0.8448  0.2305  0.0307
 8709TIP3    H147618   2.287   5.720   2.779 -1.0945 -0.1251  0.0901
 8709TIP3    H247619   2.432   5.696   2.741 -1.1032  0.2976 -0.2176
 8710TIP3   OH247620   1.408   3.885   5.230  0.5911 -0.3152  0.0727
 8710TIP3    H147621   1.481   3.840   5.186  1.2545 -0.9349  1.7107
 8710TIP3    H247622   1.420   3.864   5.322 -0.0206  1.9324  0.7311
 8711TIP3   OH247623   5.890   3.605  16.029  0.2092  0.2464  0.3335
 8711TIP3    H147624   5.819   3.650  16.074  2.0761  1.9800  1.7559
 8711TIP3    H247625   5.856   3.586  15.942 -1.4774  2.3704  0.4548
 8712TIP3   OH247626   4.107   0.947  13.485  0.7174 -0.3568 -0.0712
 8712TIP3    H147627   4.067   0.994  13.412  1.2151  0.6718  0.3070
 8712TIP3    H247628   4.033   0.926  13.543  0.3414 -1.0419 -0.7692
 8713TIP3   OH247629   5.915   1.347  14.435  0.0488 -0.6064  0.3604
 8713TIP3    H147630   5.861   1.277  14.470  0.3719 -0.5693  0.9521
 8713TIP3    H247631   5.857   1.423  14.431  0.4565 -0.0931  2.6538
 8714TIP3   OH247632   2.421   2.851   6.742 -0.0243 -0.0918  0.5134
 8714TIP3    H147633   2.327   2.871   6.736 -0.2200 -1.1584 -0.2788
 8714TIP3    H247634   2.460   2.901   6.671 -0.0374  0.0928  0.6353
 8715TIP3   OH247635   5.966   3.105   2.823  0.3443 -0.3255 -0.3017
 8715TIP3    H147636   5.933   3.033   2.769 -1.3383 -0.6471  1.0735
 8715TIP3    H247637   5.915   3.099   2.904  3.0092 -0.0687  1.4880
 8716TIP3   OH247638   5.413   1.718   2.216 -0.2838  0.2275 -0.0848
 8716TIP3    H147639   5.498   1.716   2.261 -0.6698 -1.3554  0.6497
 8716TIP3    H247640   5.349   1.714   2.287 -0.9708  0.8047 -0.6616
 8717TIP3   OH247641   3.953   5.098   0.553 -0.0393 -0.0480  0.3262
 8717TIP3    H147642   3.906   5.033   0.501  0.7230 -0.1776 -0.1993
 8717TIP3    H247643   3.952   5.062   0.642  0.4454 -0.8124  0.0273
 8718TIP3   OH247644   3.316   6.131  13.313  0.2201  0.6101 -0.4540
 8718TIP3    H147645   3.283   6.041  13.310 -0.3364  0.8333 -2.4311
 8718TIP3    H247646   3.407   6.125  13.284  0.9920  0.4344  1.7647
 8719TIP3   OH247647   5.776   5.417   1.306 -0.1587  0.6862  0.1032
 8719TIP3    H147648   5.701   5.399   1.363  0.8065 -1.0720  0.9253
 8719TIP3    H247649   5.740   5.464   1.231 -2.1075 -0.2645  0.4002
 8720TIP3   OH247650   2.136   2.647  16.652  0.2321  0.4320 -0.4462
 8720TIP3    H147651   2.211   2.598  16.619  0.4538 -0.2430  1.0085
 8720TIP3    H247652   2.138   2.729  16.601  1.0993 -0.1564 -1.4183
 8721TIP3   OH247653   0.471   0.927  11.433 -0.0551  0.4228  0.3662
 8721TIP3    H147654   0.506   0.859  11.490 -0.6191  0.5003  0.8212
 8721TIP3    H247655   0.537   0.939  11.365  1.1408  1.0508  1.5786
 8722TIP3   OH247656   6.738   6.241   2.941  0.1436 -0.2668 -0.7770
 8722TIP3    H147657   6.788   6.203   2.869  0.3176  0.8203 -1.2548
 8722TIP3    H247658   6.748   6.336   2.929  0.2786 -0.0631  0.7484
 8723TIP3   OH247659   5.292   1.483  16.645  0.1734  0.1058 -0.2824
 8723TIP3    H147660   5.255   1.450  16.727 -0.7157 -2.3382 -1.5610
 8723TIP3    H247661   5.338   1.563  16.670  1.0065 -1.1763  2.8054
 8724TIP3   OH247662   0.506   3.362   5.062  0.4932 -0.0935  0.1841
 8724TIP3    H147663   0.449   3.435   5.086  0.8515 -0.0140  0.8272
 8724TIP3    H247664   0.462   3.284   5.096 -0.5067 -0.3399 -1.5798
 8725TIP3   OH247665   6.611   6.345   0.672  0.1621 -0.3772 -0.2543
 8725TIP3    H147666   6.641   6.323   0.584 -1.6248  0.2740 -1.0824
 8725TIP3    H247667   6.612   6.440   0.675 -1.9470 -0.2899 -0.4476
 8726TIP3   OH247668   6.584   3.495   2.535 -0.3410 -0.3867 -0.6222
 8726TIP3    H147669   6.677   3.515   2.523 -0.2234 -0.7935 -0.3991
 8726TIP3    H247670   6.576   3.402   2.514 -0.1899 -1.0648  1.9799
 8727TIP3   OH247671   2.007   2.048   2.026 -0.1744  0.3016 -0.2865
 8727TIP3    H147672   2.033   1.957   2.013 -1.4429  0.0781 -1.4524
 8727TIP3    H247673   2.060   2.097   1.962  0.1728  0.3280  0.0201
 8728TIP3   OH247674   6.460   6.856   2.069 -0.3466 -0.4970  0.5057
 8728TIP3    H147675   6.417   6.871   2.153 -1.0013  1.2294 -0.0961
 8728TIP3    H247676   6.446   6.938   2.020  0.9579 -1.0571 -0.8691
 8729TIP3   OH247677   1.758   3.086   1.831 -0.0569 -0.3463 -0.4007
 8729TIP3    H147678   1.732   3.136   1.908 -0.6958  0.0381 -0.8497
 8729TIP3    H247679   1.835   3.131   1.797 -0.4920  0.2078 -0.6679
 8730TIP3   OH247680   3.382   6.780   0.014 -0.0598  0.1835  0.1660
 8730TIP3    H147681   3.371   6.829   0.095 -1.0117  0.6411 -0.2348
 8730TIP3    H247682   3.301   6.729   0.005  0.3524 -0.4373 -0.1158
 8731TIP3   OH247683   1.113   2.207   2.380  0.3551 -0.3100  0.2174
 8731TIP3    H147684   1.029   2.172   2.410 -0.4234 -0.2238 -1.6826
 8731TIP3    H247685   1.161   2.130   2.350  0.7840 -0.3064  0.8776
 8732TIP3   OH247686   3.675   5.030   5.208 -0.4561 -0.2198 -0.0767
 8732TIP3    H147687   3.687   4.941   5.176 -1.3975 -0.5277  0.4075
 8732TIP3    H247688   3.589   5.056   5.176 -0.2886  0.4346 -0.0138
 8733TIP3   OH247689   2.516   4.766   0.731 -0.1931 -0.2336  0.5784
 8733TIP3    H147690   2.586   4.702   0.719 -1.5514 -1.5023 -1.0578
 8733TIP3    H247691   2.531   4.831   0.663 -1.6430 -1.5620 -1.1053
 8734TIP3   OH247692   6.365   5.598   0.690  0.2584  0.4272 -0.7331
 8734TIP3    H147693   6.289   5.655   0.685 -1.1114 -1.3846 -1.5108
 8734TIP3    H247694   6.346   5.526   0.630  1.0741 -1.7967  1.4723
 8735TIP3   OH247695   4.648   0.633  10.626  0.2178  0.0794 -0.5640
 8735TIP3    H147696   4.671   0.653  10.717 -0.1372 -1.3978 -0.1232
 8735TIP3    H247697   4.567   0.582  10.632 -0.0989  0.4146 -1.7501
 8736TIP3   OH247698   4.360   5.590   4.970 -0.4195  0.1052  0.3845
 8736TIP3    H147699   4.447   5.615   4.939 -0.1654 -1.1044  0.1054
 8736TIP3    H247700   4.300   5.641   4.915  0.0830  0.1837 -0.1032
 8737TIP3   OH247701   4.008   5.720   1.032 -0.3725  0.1911 -0.7442
 8737TIP3    H147702   4.101   5.733   1.049 -1.1213  2.5394  2.5517
 8737TIP3    H247703   3.970   5.701   1.118 -3.2759  2.0991 -1.4497
 8738TIP3   OH247704   1.623   2.885  16.297  0.4233 -0.7557  0.7859
 8738TIP3    H147705   1.606   2.869  16.390 -0.1969 -0.3434  0.7509
 8738TIP3    H247706   1.718   2.882  16.289  0.4356 -2.2198  1.1642
 8739TIP3   OH247707   6.131   1.984   0.523 -0.1679  0.2098 -0.1909
 8739TIP3    H147708   6.180   2.038   0.460 -1.7982  1.3016 -0.5919
 8739TIP3    H247709   6.196   1.958   0.588  0.9408  1.6484 -0.6643
 8740TIP3   OH247710   4.274   5.727   4.624 -0.3803  0.0011  0.2513
 8740TIP3    H147711   4.239   5.740   4.535  0.1220  0.9460  0.1852
 8740TIP3    H247712   4.197   5.704   4.676 -0.8094  0.2529 -0.2616
 8741TIP3   OH247713   4.946   1.948  13.514  0.1626  0.1190  0.3173
 8741TIP3    H147714   5.040   1.928  13.504  0.3158  1.4788 -1.5718
 8741TIP3    H247715   4.915   1.958  13.424 -1.4959  1.0433  0.9696
 8742TIP3   OH247716   4.613   3.267  11.417  0.0630 -0.2775 -0.0238
 8742TIP3    H147717   4.566   3.332  11.365 -0.5803 -0.4389  0.3327
 8742TIP3    H247718   4.703   3.298  11.420 -0.4968  1.4412  1.4058
 8743TIP3   OH247719   2.184   5.695  10.319  0.3954  0.5342 -0.1598
 8743TIP3    H147720   2.103   5.653  10.290  0.9865  0.2100 -1.4020
 8743TIP3    H247721   2.158   5.784  10.344 -0.2876  0.5534 -0.9131
 8744TIP3   OH247722   2.096   0.230  12.622  0.2485  0.5009 -0.0786
 8744TIP3    H147723   2.059   0.205  12.707  1.1623 -1.7468 -0.2639
 8744TIP3    H247724   2.113   0.324  12.630  0.2579  0.3580  2.1989
 8745TIP3   OH247725   1.981   6.125  11.157 -0.1582 -0.2619  0.1860
 8745TIP3    H147726   2.030   6.067  11.216 -1.3080 -0.5330  0.9040
 8745TIP3    H247727   1.927   6.178  11.215  0.9080  1.6105 -0.4614
 8746TIP3   OH247728   0.960   2.448  11.473 -0.6939  0.5015 -0.4932
 8746TIP3    H147729   0.920   2.361  11.470  0.7087 -0.2247  0.6330
 8746TIP3    H247730   0.895   2.503  11.516 -1.4620 -0.0638 -0.9144
 8747TIP3   OH247731   5.848   2.882   5.784  0.2722 -0.6853  0.1513
 8747TIP3    H147732   5.872   2.793   5.759  5.1659  0.1036  0.9898
 8747TIP3    H247733   5.848   2.881   5.880  0.8986  0.3065  0.1698
 8748TIP3   OH247734   6.161   6.451  13.405  0.0721 -0.1581 -0.2380
 8748TIP3    H147735   6.125   6.429  13.491  0.0646 -1.5421 -0.5656
 8748TIP3    H247736   6.088   6.436  13.344  0.5712 -0.9391 -0.6668
 8749TIP3   OH247737   2.811   3.331   2.149  0.4575 -0.1679  0.2706
 8749TIP3    H147738   2.854   3.336   2.235  0.8731 -0.5020  0.0848
 8749TIP3    H247739   2.730   3.283   2.166  1.0002 -1.0970  0.3050
 8750TIP3   OH247740   3.952   4.376  14.031 -0.3075 -0.2648 -0.0505
 8750TIP3    H147741   3.904   4.329  13.963  0.8863 -1.3465 -0.1792
 8750TIP3    H247742   3.943   4.321  14.109  0.8983 -0.6302 -0.1421
 8751TIP3   OH247743   0.631   3.052   2.829  0.1032 -0.2353 -0.4624
 8751TIP3    H147744   0.715   3.027   2.867 -0.7539 -1.6049  0.6053
 8751TIP3    H247745   0.622   2.996   2.752  0.0274 -0.2844 -0.4167
 8752TIP3   OH247746   5.763   2.677   1.976 -0.5850 -0.2278 -0.5692
 8752TIP3    H147747   5.856   2.661   1.960  0.1584  0.6042  2.2860
 8752TIP3    H247748   5.754   2.772   1.971 -0.7025 -0.0869  1.4869
 8753TIP3   OH247749   6.496   1.508  13.059  0.0298 -0.5168  0.7152
 8753TIP3    H147750   6.405   1.485  13.039  0.3754 -0.9360 -0.4469
 8753TIP3    H247751   6.499   1.515  13.154 -1.5940  1.0832  0.6983
 8754TIP3   OH247752   0.739   6.666  10.878  0.4391 -0.3369 -0.0441
 8754TIP3    H147753   0.809   6.650  10.814 -0.5136  0.6336 -1.3967
 8754TIP3    H247754   0.661   6.680  10.824 -0.4673  0.1972  1.3639
 8755TIP3   OH247755   5.352   2.314  15.320  0.3232 -0.1274  0.1960
 8755TIP3    H147756   5.381   2.232  15.280 -0.7380 -0.0215 -0.8157
 8755TIP3    H247757   5.268   2.294  15.360  0.8724  0.0406  1.5085
 8756TIP3   OH247758   1.291   2.037   3.014  0.2759 -0.3792 -0.0483
 8756TIP3    H147759   1.253   2.031   3.102  2.6165 -0.6647  1.0058
 8756TIP3    H247760   1.266   2.124   2.983 -0.1845 -0.0989  1.0719
 8757TIP3   OH247761   5.211   3.727   5.003  0.3847  0.0928  0.1365
 8757TIP3    H147762   5.160   3.749   4.926 -0.3474  0.3206  0.6724
 8757TIP3    H247763   5.240   3.637   4.989  0.6070  0.2723 -0.5816
 8758TIP3   OH247764   2.044   3.926   5.021  0.1901 -0.1822  0.5748
 8758TIP3    H147765   2.107   3.981   4.975 -1.8627  0.5616 -1.5902
 8758TIP3    H247766   2.001   3.985   5.083  1.4794 -0.6682  1.9874
 8759TIP3   OH247767   1.192   1.042   5.111 -0.0322 -0.1305  0.3788
 8759TIP3    H147768   1.116   1.026   5.055 -0.7667  1.0275  1.0065
 8759TIP3    H247769   1.163   1.014   5.198 -0.1303  1.2998  0.8213
 8760TIP3   OH247770   6.779   0.627   1.427  0.5163  0.2985  0.0573
 8760TIP3    H147771   6.698   0.583   1.453  0.5124 -0.3886 -1.0430
 8760TIP3    H247772   6.828   0.637   1.508 -0.5309  0.4455  0.6969
 8761TIP3   OH247773   5.512   3.999   4.846  0.2336  0.3178  0.0273
 8761TIP3    H147774   5.447   4.020   4.779 -0.1074 -2.8916 -0.8273
 8761TIP3    H247775   5.596   4.000   4.799  0.1948 -0.2001 -0.0681
 8762TIP3   OH247776   4.780   1.003   0.693  0.0626  0.3501 -0.2793
 8762TIP3    H147777   4.784   1.097   0.712 -0.1726  0.6677 -1.7008
 8762TIP3    H247778   4.691   0.988   0.662  0.3347 -0.1877 -0.8255
 8763TIP3   OH247779   2.449   6.075  16.427 -0.5978 -0.1923  0.6276
 8763TIP3    H147780   2.389   6.009  16.463 -2.1397  0.7163 -0.1720
 8763TIP3    H247781   2.429   6.076  16.333  1.1031 -0.2637  0.2354
 8764TIP3   OH247782   0.107   2.163  14.107  0.6039 -0.3839  0.0472
 8764TIP3    H147783   0.087   2.091  14.047  2.0908  0.2652 -1.3129
 8764TIP3    H247784   0.032   2.166  14.167 -0.5455 -1.6164 -1.2493
 8765TIP3   OH247785   5.316   2.067  15.756  0.4559  0.2329  0.2365
 8765TIP3    H147786   5.252   2.010  15.714  0.9109  0.2537 -0.5200
 8765TIP3    H247787   5.399   2.020  15.746  0.4835 -0.1112  1.7903
 8766TIP3   OH247788   6.037   5.788  15.703  0.0395  0.8628 -0.0669
 8766TIP3    H147789   5.998   5.701  15.710  1.4280  0.2571  0.5762
 8766TIP3    H247790   5.986   5.842  15.763 -1.7454  0.8932 -1.5123
 8767TIP3   OH247791   0.020   6.486   1.704  0.1088 -0.1730  0.3422
 8767TIP3    H147792  -0.044   6.551   1.673 -0.0430  0.2166  1.4317
 8767TIP3    H247793   0.092   6.538   1.739  1.0859 -0.6150 -0.9612
 8768TIP3   OH247794   1.033   4.031  13.666 -0.6257 -0.0900 -0.5221
 8768TIP3    H147795   1.126   4.054  13.675 -1.1335  2.0003  0.0222
 8768TIP3    H247796   1.029   3.938  13.687  1.0056  0.3181  2.0301
 8769TIP3   OH247797   3.155   5.891  13.757  0.3379 -0.4424  0.6974
 8769TIP3    H147798   3.130   5.972  13.802  0.0578  0.6649 -1.3137
 8769TIP3    H247799   3.250   5.897  13.749  0.1179  1.3993 -2.2479
 8770TIP3   OH247800   0.760   6.569   4.160 -0.0426  0.0843 -0.5613
 8770TIP3    H147801   0.809   6.613   4.090 -1.6074 -0.0441 -1.8079
 8770TIP3    H247802   0.797   6.481   4.163  0.2845  0.1989 -0.9948
 8771TIP3   OH247803   4.893   0.688   5.838  0.1071  0.4224  0.6236
 8771TIP3    H147804   4.817   0.735   5.870 -1.8962  0.4887 -3.5271
 8771TIP3    H247805   4.944   0.755   5.792  1.1935 -0.1588  0.9501
 8772TIP3   OH247806   6.563   3.516  15.806 -0.3495  0.6281 -0.7354
 8772TIP3    H147807   6.506   3.581  15.766 -1.0116  0.2228 -0.4537
 8772TIP3    H247808   6.534   3.510  15.897  1.0514  1.4327 -0.2046
 8773TIP3   OH247809   3.861   6.347  12.443  0.6106  0.4182  0.1127
 8773TIP3    H147810   3.855   6.400  12.522 -0.1689  1.5003 -0.6239
 8773TIP3    H247811   3.820   6.264  12.466 -0.4500  1.0564  0.5891
 8774TIP3   OH247812   0.222   3.379  11.222  0.2295  0.4924 -0.2751
 8774TIP3    H147813   0.253   3.360  11.134  0.9159  0.0904  0.0414
 8774TIP3    H247814   0.201   3.472  11.221 -1.4029  0.1613 -1.3322
 8775TIP3   OH247815   1.043   0.886  12.936  0.0986 -0.2756  0.1886
 8775TIP3    H147816   1.080   0.908  13.021  1.1873 -0.8578 -0.1033
 8775TIP3    H247817   1.044   0.790  12.933 -0.8092 -0.2862 -0.1154
 8776TIP3   OH247818   3.309   2.361  16.978 -0.6739  0.0556 -0.1805
 8776TIP3    H147819   3.340   2.425  17.043 -0.1488 -0.8523  0.4786
 8776TIP3    H247820   3.218   2.345  17.002 -0.9500  0.8725 -0.6228
 8777TIP3   OH247821   2.792   2.200   2.194  0.1564  0.1625  0.8690
 8777TIP3    H147822   2.853   2.261   2.234  1.2027  0.5599 -1.1621
 8777TIP3    H247823   2.753   2.152   2.267  1.7348  0.9881  2.3140
 8778TIP3   OH247824   6.348   1.035  16.145  0.3135  0.2118  0.8048
 8778TIP3    H147825   6.412   1.032  16.216  1.0435 -0.4352  0.1350
 8778TIP3    H247826   6.328   1.128  16.134  0.4890  0.3458  1.5931
 8779TIP3   OH247827   5.993   6.548   5.889  0.4273  0.2185  0.7756
 8779TIP3    H147828   6.044   6.494   5.949  0.4904 -3.0748 -1.9126
 8779TIP3    H247829   5.909   6.559   5.933  1.0938 -0.3721  2.2793
 8780TIP3   OH247830   2.353   6.249  10.692 -0.0796 -0.1042  0.6124
 8780TIP3    H147831   2.275   6.250  10.636  0.4383 -0.2394 -0.1190
 8780TIP3    H247832   2.423   6.282  10.636  0.5781 -0.8563  0.9777
 8781TIP3   OH247833   3.940   5.258   3.339 -0.1604 -0.5667 -0.4150
 8781TIP3    H147834   3.998   5.254   3.415 -1.5352  0.8480  0.7906
 8781TIP3    H247835   3.858   5.219   3.369 -0.9432  0.6255 -0.9275
 8782TIP3   OH247836   3.800   6.015  11.172  0.3133  0.3129  0.0437
 8782TIP3    H147837   3.733   6.028  11.105 -1.2192  1.6299  1.7140
 8782TIP3    H247838   3.750   6.000  11.253  2.0810 -1.1481  0.9376
 8783TIP3   OH247839   3.994   0.251   3.531  0.6584  0.4767 -0.6551
 8783TIP3    H147840   4.008   0.287   3.443  1.9201  0.0350 -0.6604
 8783TIP3    H247841   3.972   0.159   3.515  0.2237  0.5564 -0.5282
 8784TIP3   OH247842   3.814   4.431   2.732 -0.2662  0.5705 -0.0583
 8784TIP3    H147843   3.785   4.450   2.821 -1.5331  0.7917 -0.5031
 8784TIP3    H247844   3.801   4.513   2.684  0.3200  0.4270 -0.4790
 8785TIP3   OH247845   0.807   0.034  13.335 -0.3015 -0.0298 -0.3416
 8785TIP3    H147846   0.780   0.011  13.424  3.4018 -3.2048  0.1852
 8785TIP3    H247847   0.828   0.127  13.340  1.1480 -0.4039  2.5733
 8786TIP3   OH247848   0.871   1.981   1.697 -0.7235 -0.1641 -0.0291
 8786TIP3    H147849   0.787   1.935   1.702 -1.3809  0.8850 -1.0153
 8786TIP3    H247850   0.848   2.071   1.677  0.6111  0.3341  0.5744
 8787TIP3   OH247851   6.472   1.125  15.249  0.3492  0.2522 -0.5757
 8787TIP3    H147852   6.565   1.105  15.254  0.5447  1.3817  1.2610
 8787TIP3    H247853   6.428   1.041  15.261  1.1480  0.0508  1.2133
 8788TIP3   OH247854   4.687   5.725  15.199  0.1777  0.5000 -0.6424
 8788TIP3    H147855   4.636   5.651  15.232  0.2431  0.9805  0.6167
 8788TIP3    H247856   4.643   5.802  15.235  1.2085  0.9661 -0.3379
 8789TIP3   OH247857   0.327   6.775   5.597  0.1615 -0.2896  0.7755
 8789TIP3    H147858   0.400   6.746   5.542 -0.0284 -2.8338  1.7532
 8789TIP3    H247859   0.360   6.770   5.686 -0.8618 -0.3454  1.1658
 8790TIP3   OH247860   0.249   6.179   3.055  0.1118  0.2223 -0.1429
 8790TIP3    H147861   0.270   6.265   3.092  0.9526 -0.0544  0.0236
 8790TIP3    H247862   0.168   6.154   3.100  0.5108  0.3933  0.6999
 8791TIP3   OH247863   5.979   3.831  15.841 -0.2952 -0.2265 -0.8337
 8791TIP3    H147864   5.901   3.794  15.884 -0.3231 -0.7542 -1.3155
 8791TIP3    H247865   5.952   3.918  15.812 -0.3424  0.0506  0.0146
 8792TIP3   OH247866   5.736   1.589  16.886  0.2810 -0.5771 -0.3774
 8792TIP3    H147867   5.740   1.615  16.794  0.1881  0.3450 -0.1202
 8792TIP3    H247868   5.689   1.659  16.930  2.3982  0.2262  0.7896
 8793TIP3   OH247869   5.939   2.891   4.718  0.1657  0.1082 -0.5275
 8793TIP3    H147870   5.860   2.864   4.671  0.2985  0.6838 -1.1074
 8793TIP3    H247871   6.007   2.832   4.687  0.0768 -0.0463 -0.4288
 8794TIP3   OH247872   0.157   4.925  14.246 -0.3881 -0.2874  0.5593
 8794TIP3    H147873   0.116   4.965  14.323  1.4013  0.2666  1.2976
 8794TIP3    H247874   0.128   4.979  14.173 -0.0120  0.8750  1.2262
 8795TIP3   OH247875   1.167   2.545  12.192 -0.5184  0.4835 -0.8925
 8795TIP3    H147876   1.085   2.511  12.227  0.9832 -0.6035  1.9764
 8795TIP3    H247877   1.161   2.640  12.205 -0.8991  0.3059  0.4513
 8796TIP3   OH247878   4.175   1.117  14.935 -0.1395 -0.2829  0.7113
 8796TIP3    H147879   4.132   1.132  14.851 -0.0061  0.4696  0.7654
 8796TIP3    H247880   4.209   1.203  14.960  0.7389 -0.7118  1.0293
 8797TIP3   OH247881   2.143   3.671  15.685  0.2933  0.2023  0.1760
 8797TIP3    H147882   2.056   3.688  15.721 -0.3329 -1.3151 -0.5258
 8797TIP3    H247883   2.130   3.598  15.624  2.3462 -1.1909  1.2796
 8798TIP3   OH247884   5.651   5.092  12.602 -0.2968 -0.1874  0.2284
 8798TIP3    H147885   5.711   5.018  12.595  0.2017  0.1189  1.1222
 8798TIP3    H247886   5.708   5.169  12.607 -0.8108  0.4987 -2.7234
 8799TIP3   OH247887   3.935   6.128   4.842  0.2339  0.1026  1.0547
 8799TIP3    H147888   3.961   6.220   4.838 -0.7826  0.3832  0.6459
 8799TIP3    H247889   3.975   6.096   4.923  2.0322  0.4192  0.3441
 8800TIP3   OH247890   2.861   1.244   2.557 -0.4666  0.3233  0.1229
 8800TIP3    H147891   2.821   1.221   2.641 -0.8696 -1.1530 -0.4457
 8800TIP3    H247892   2.824   1.330   2.535  0.1170  1.0268  1.7179
 8801TIP3   OH247893   2.280   0.513  12.054 -0.5023  0.5100 -0.3431
 8801TIP3    H147894   2.228   0.553  11.985 -1.3971 -0.7861 -0.4590
 8801TIP3    H247895   2.337   0.583  12.085 -0.5053  1.2730 -1.9741
 8802TIP3   OH247896   1.905   4.596   6.101  0.3087  0.2980 -0.9378
 8802TIP3    H147897   1.891   4.690   6.087 -1.7723  0.1730 -0.0364
 8802TIP3    H247898   1.944   4.590   6.188  2.3611  0.3899 -1.7900
 8803TIP3   OH247899   2.772   6.090   4.732  0.2440  0.2695 -0.2128
 8803TIP3    H147900   2.731   6.158   4.678 -0.8703  0.2010  0.5297
 8803TIP3    H247901   2.800   6.135   4.811  0.5807  0.0922 -0.2301
 8804TIP3   OH247902   2.151   4.837  15.741 -0.2242  0.5748 -0.2633
 8804TIP3    H147903   2.219   4.772  15.761 -2.9606 -2.0081  1.3655
 8804TIP3    H247904   2.132   4.824  15.648  1.8303  1.8475 -0.9591
 8805TIP3   OH247905   0.042   4.813  16.235 -0.4361  0.0629 -0.1261
 8805TIP3    H147906   0.001   4.729  16.255  0.4413 -0.1902  0.6885
 8805TIP3    H247907  -0.028   4.865  16.195 -1.9462  0.0662  2.3252
 8806TIP3   OH247908   5.584   5.940   1.824  0.1031 -0.2210 -0.3304
 8806TIP3    H147909   5.591   6.009   1.759 -1.0116 -0.8476 -1.1523
 8806TIP3    H247910   5.674   5.920   1.848  0.4523  1.4199 -0.1492
 8807TIP3   OH247911   3.140   6.478   5.543 -0.5306  0.0132  0.2788
 8807TIP3    H147912   3.135   6.474   5.447  3.6271  0.8397 -0.1737
 8807TIP3    H247913   3.144   6.571   5.563  1.5630 -0.1669  0.8995
 8808TIP3   OH247914   5.548   1.248   6.267  0.5768 -0.5358 -0.1629
 8808TIP3    H147915   5.572   1.156   6.256  1.4680 -0.2846 -0.3845
 8808TIP3    H247916   5.456   1.252   6.239  0.7493 -1.2174 -0.8721
 8809TIP3   OH247917   1.900   2.972   1.557  0.0427  0.1600 -0.6018
 8809TIP3    H147918   1.931   2.923   1.480 -0.2975 -0.6212 -0.2413
 8809TIP3    H247919   1.849   3.044   1.520  0.8757  0.4952 -1.1474
 8810TIP3   OH247920   4.656   3.053  16.452  0.2754 -0.3901 -0.0135
 8810TIP3    H147921   4.628   3.001  16.527  0.3342 -0.6837 -0.1961
 8810TIP3    H247922   4.731   3.007  16.416  0.0419 -0.4327 -0.4545
 8811TIP3   OH247923   4.677   4.383  16.170 -0.1386  0.1531 -0.0942
 8811TIP3    H147924   4.639   4.466  16.140 -0.4480 -0.7071 -2.3362
 8811TIP3    H247925   4.767   4.404  16.192  0.2874  0.8498 -2.2288
 8812TIP3   OH247926   0.080   5.402   1.437  0.4294  0.4756  0.1955
 8812TIP3    H147927   0.050   5.351   1.512 -0.1749  0.8489  0.2097
 8812TIP3    H247928   0.000   5.438   1.399  0.5223 -1.0717 -1.6300
 8813TIP3   OH247929   3.180   4.772  11.670 -0.7886 -0.4545 -0.0099
 8813TIP3    H147930   3.159   4.704  11.606  1.2063 -1.1463  0.0194
 8813TIP3    H247931   3.098   4.786  11.718 -1.4857 -2.1485 -0.6477
 8814TIP3   OH247932   1.954   3.915  11.750  0.3493  0.3706 -0.2193
 8814TIP3    H147933   1.901   3.836  11.742  1.8501 -0.5468 -1.8338
 8814TIP3    H247934   1.919   3.974  11.684  1.5858 -0.4420 -1.6686
 8815TIP3   OH247935   1.062   2.977   0.448 -0.5178  0.1109 -0.0960
 8815TIP3    H147936   0.995   2.949   0.385 -1.8903  0.1346  1.3038
 8815TIP3    H247937   1.107   2.896   0.471  0.7242  0.2433 -1.8631
 8816TIP3   OH247938   6.203   3.465   4.780 -0.1098  0.1423  0.2793
 8816TIP3    H147939   6.147   3.542   4.780  0.4809  0.5803  0.3088
 8816TIP3    H247940   6.291   3.499   4.795  0.0126 -0.6491  1.5152
 8817TIP3   OH247941   4.709   2.988   3.178  0.0274  0.4401  0.0869
 8817TIP3    H147942   4.646   3.056   3.151 -0.5907 -0.0878  0.1674
 8817TIP3    H247943   4.661   2.906   3.167  0.6060  0.0489  0.4551
 8818TIP3   OH247944   3.008   6.279  15.287  0.2693  0.1549  0.4929
 8818TIP3    H147945   3.083   6.306  15.340 -1.1569  0.5091  2.4481
 8818TIP3    H247946   2.932   6.311  15.335 -1.1522  0.1399 -1.6051
 8819TIP3   OH247947   2.873   1.482  16.943  0.2518  0.2018  0.7145
 8819TIP3    H147948   2.897   1.508  16.854  1.7130 -0.4427  0.9070
 8819TIP3    H247949   2.847   1.564  16.986  1.7385  0.8848  0.3672
 8820TIP3   OH247950   6.217   1.259  12.184 -0.2604  0.0664 -1.0004
 8820TIP3    H147951   6.141   1.311  12.207  0.8102  0.8434  0.9977
 8820TIP3    H247952   6.213   1.183  12.242  2.3481  1.9294  1.9199
 8821TIP3   OH247953   1.334   1.607  13.660  0.4802 -0.0762  0.3372
 8821TIP3    H147954   1.259   1.622  13.603  0.2420  0.1914  0.7169
 8821TIP3    H247955   1.365   1.519  13.637 -1.4774 -1.2457  1.8979
 8822TIP3   OH247956   2.259   4.837   2.470  0.5206 -0.2898  0.3675
 8822TIP3    H147957   2.220   4.804   2.551 -2.7966 -1.9302 -1.7080
 8822TIP3    H247958   2.304   4.762   2.432  0.5610  0.0088 -0.1883
 8823TIP3   OH247959   6.029   6.015  14.937  0.2454 -0.5301 -0.5265
 8823TIP3    H147960   5.965   6.078  14.968 -0.8116 -1.9337  0.2937
 8823TIP3    H247961   6.048   6.041  14.847 -2.5364 -0.8458 -1.2999
 8824TIP3   OH247962   2.316   5.246  11.483  0.1573  0.2959  0.1638
 8824TIP3    H147963   2.357   5.300  11.416  0.1965 -0.5344 -0.4964
 8824TIP3    H247964   2.222   5.264  11.476  0.1078 -0.2007 -0.4903
 8825TIP3   OH247965   1.322   6.149   4.235  0.0108  0.1463 -0.0743
 8825TIP3    H147966   1.400   6.192   4.270  0.8398 -1.6239  0.3873
 8825TIP3    H247967   1.305   6.193   4.152  0.4281  1.7386  0.6429
 8826TIP3   OH247968   5.025   1.360   4.468 -0.4074 -0.0804  0.4102
 8826TIP3    H147969   4.979   1.427   4.418  1.1814  0.4182 -0.4658
 8826TIP3    H247970   5.114   1.360   4.432  0.2802 -1.0205  2.0009
 8827TIP3   OH247971   1.198   1.964  12.020  0.1375  0.2245  0.6264
 8827TIP3    H147972   1.208   1.903  12.093  0.4984  0.4375  0.7601
 8827TIP3    H247973   1.253   1.928  11.950 -1.6600 -0.9878 -0.2131
 8828TIP3   OH247974   0.277   4.920  15.955  0.7746  0.1560  0.1659
 8828TIP3    H147975   0.353   4.902  15.899  0.2241 -1.7924 -0.0275
 8828TIP3    H247976   0.223   4.980  15.904  2.8679  2.9575  0.9601
 8829TIP3   OH247977   0.089   5.381   4.742  0.1559 -0.2487  0.0404
 8829TIP3    H147978   0.181   5.359   4.736  0.5390  0.5244  2.1508
 8829TIP3    H247979   0.043   5.301   4.717  1.3423 -0.4651 -1.6448
 8830TIP3   OH247980   2.565   3.032   4.966  0.0072 -0.5327 -0.1986
 8830TIP3    H147981   2.529   3.119   4.983 -2.2850 -1.3581 -0.4837
 8830TIP3    H247982   2.544   3.014   4.875  0.6841 -1.3065 -0.2215
 8831TIP3   OH247983   4.826   1.719  11.507 -0.2238 -0.3070  0.3041
 8831TIP3    H147984   4.773   1.639  11.508 -1.5551  0.5320 -0.2817
 8831TIP3    H247985   4.860   1.726  11.596 -1.4651 -0.6590  0.8251
 8832TIP3   OH247986   3.229   2.456   4.291  0.4001  0.3117  0.2940
 8832TIP3    H147987   3.307   2.498   4.328 -0.1914  0.6387  1.2092
 8832TIP3    H247988   3.161   2.522   4.297 -0.3631 -0.5131  1.0689
 8833TIP3   OH247989   5.251   2.855  11.170 -0.1970  0.8396  0.0258
 8833TIP3    H147990   5.287   2.787  11.225 -1.1937  1.1525  1.1073
 8833TIP3    H247991   5.283   2.835  11.082 -0.6753 -1.1738  0.2631
 8834TIP3   OH247992   4.818   4.497  15.494 -0.5031 -0.6723  0.1774
 8834TIP3    H147993   4.779   4.541  15.418  0.6480 -0.4162 -0.2869
 8834TIP3    H247994   4.849   4.413  15.460 -1.2031 -1.1586  0.6940
 8835TIP3   OH247995   0.768   3.505  13.603  0.2715  0.0630  0.1022
 8835TIP3    H147996   0.716   3.537  13.530 -0.6430 -1.5146  0.0164
 8835TIP3    H247997   0.859   3.518  13.576 -0.0398  1.9229 -0.1755
 8836TIP3   OH247998   1.813   2.603  13.998 -0.3662  0.2468 -0.2069
 8836TIP3    H147999   1.845   2.538  14.060 -0.7338  1.3291  1.1814
 8836TIP3    H248000   1.784   2.552  13.923 -1.1304 -1.2647  1.0407
 8837TIP3   OH248001   2.378   0.801   3.542  0.6592  0.2007  0.1469
 8837TIP3    H148002   2.433   0.724   3.558  0.0322 -0.4539 -0.7582
 8837TIP3    H248003   2.291   0.775   3.572  0.4742  0.6120 -0.0238
 8838TIP3   OH248004   0.012   4.793   4.783 -0.2225 -0.3436 -0.0673
 8838TIP3    H148005   0.093   4.752   4.813  1.5981  2.7055 -0.4530
 8838TIP3    H248006   0.038   4.848   4.709 -2.5750  0.9889 -0.0002
 8839TIP3   OH248007   3.164   4.897  15.287 -0.4884 -0.1691  0.0434
 8839TIP3    H148008   3.072   4.924  15.285 -0.4756  0.2451  2.2404
 8839TIP3    H248009   3.164   4.813  15.333  0.2889  0.1977  0.7376
 8840TIP3   OH248010   0.642   5.542   5.038 -0.1180 -0.5045 -0.0142
 8840TIP3    H148011   0.656   5.636   5.028 -1.5123  0.0918  2.6068
 8840TIP3    H248012   0.726   5.508   5.068 -0.1722  0.3445  1.1836
 8841TIP3   OH248013   5.919   3.111   2.491  0.2389 -0.8041 -0.1627
 8841TIP3    H148014   5.920   3.096   2.396 -0.4630 -0.8439 -0.1667
 8841TIP3    H248015   5.960   3.033   2.528 -0.9713 -1.5554 -0.3452
 8842TIP3   OH248016   5.630   1.156   2.685  0.8966  0.4842 -0.4809
 8842TIP3    H148017   5.725   1.147   2.673  1.4093  0.3976  2.8287
 8842TIP3    H248018   5.619   1.186   2.775 -2.2088  1.8469 -1.1728
 8843TIP3   OH248019   0.846   6.311   4.150 -0.2304 -0.3030 -0.3942
 8843TIP3    H148020   0.879   6.233   4.105 -0.0199 -0.0831 -0.6235
 8843TIP3    H248021   0.917   6.336   4.209 -0.4448 -0.4991 -0.0455
 8844TIP3   OH248022   0.158   4.963   5.583 -0.2826 -0.1886  0.0747
 8844TIP3    H148023   0.083   4.904   5.576 -1.8840  1.8936 -1.1725
 8844TIP3    H248024   0.153   4.998   5.672 -0.4905 -0.4176  0.1547
 8845TIP3   OH248025   1.716   4.117   2.347 -0.3016 -0.1978  0.1765
 8845TIP3    H148026   1.777   4.069   2.403  0.7512 -0.6350 -1.2848
 8845TIP3    H248027   1.664   4.169   2.408  0.6250 -0.8283  1.5731
 8846TIP3   OH248028   3.184   3.262   3.580  0.4640  0.4055  0.1308
 8846TIP3    H148029   3.201   3.267   3.674  0.7168 -0.1086  0.1162
 8846TIP3    H248030   3.090   3.275   3.572 -0.0505 -2.3377  0.7158
 8847TIP3   OH248031   3.754   0.841  11.432 -0.4110  0.2240  0.0219
 8847TIP3    H148032   3.726   0.768  11.486  0.2999  0.0767  0.2013
 8847TIP3    H248033   3.822   0.804  11.376  2.3097  1.4403  2.3158
 8848TIP3   OH248034   4.032   5.571   0.523  0.1130  0.1240  0.2286
 8848TIP3    H148035   3.956   5.624   0.547 -0.2420 -0.6356  0.8226
 8848TIP3    H248036   4.102   5.601   0.582 -0.4663 -0.9999  1.5487
 8849TIP3   OH248037   2.242   6.611  16.619 -0.0513 -0.1652  0.1813
 8849TIP3    H148038   2.257   6.540  16.557 -1.7705 -0.6011  0.2196
 8849TIP3    H248039   2.237   6.569  16.705  1.3176  0.3213  0.5385
 8850TIP3   OH248040   3.467   5.228  16.998  0.8830 -0.4157 -0.0878
 8850TIP3    H148041   3.520   5.300  17.031  0.9662 -0.5957  0.1787
 8850TIP3    H248042   3.519   5.191  16.926  0.0974  0.8193 -1.3322
 8851TIP3   OH248043   3.410   6.587   5.807  0.0065 -0.3002 -0.9821
 8851TIP3    H148044   3.448   6.539   5.733  3.1435 -1.9051  1.4452
 8851TIP3    H248045   3.402   6.677   5.775  1.6546 -0.8303 -3.1606
 8852TIP3   OH248046   4.448   0.888   6.024 -0.0338 -0.3292  0.6703
 8852TIP3    H148047   4.466   0.887   6.118  0.2134 -1.0373  0.6252
 8852TIP3    H248048   4.431   0.979   6.003  2.2823  0.2230  0.9549
 8853TIP3   OH248049   3.668   2.296   3.925 -0.4794 -0.4707  0.1606
 8853TIP3    H148050   3.705   2.209   3.940 -1.3331 -0.6607  1.2632
 8853TIP3    H248051   3.635   2.324   4.010  1.2139  1.6575  0.2345
 8854TIP3   OH248052   5.917   0.317  16.342 -0.1098  0.0809 -0.2760
 8854TIP3    H148053   5.822   0.307  16.340 -0.2488  1.3384 -1.2345
 8854TIP3    H248054   5.931   0.412  16.350  1.0700 -0.1637  0.9013
 8855TIP3   OH248055   5.882   0.598   0.500 -0.2378 -0.6558 -0.2776
 8855TIP3    H148056   5.871   0.582   0.407  0.1869  0.0545 -0.4545
 8855TIP3    H248057   5.874   0.693   0.509  2.9025 -0.3194 -0.0494
 8856TIP3   OH248058   2.802   0.335   6.505  0.1460  0.7362 -0.1295
 8856TIP3    H148059   2.720   0.346   6.457  0.1337  0.0740 -0.2771
 8856TIP3    H248060   2.783   0.368   6.593 -0.1433  0.9952 -0.2865
 8857TIP3   OH248061   3.935   6.541  12.915 -0.2969 -0.0384  0.7279
 8857TIP3    H148062   3.956   6.606  12.982 -1.1172  0.6858  0.2986
 8857TIP3    H248063   3.986   6.464  12.939  0.5876  0.7191  1.3226
 8858TIP3   OH248064   2.706   3.170  12.933  0.8747  0.2979  0.5176
 8858TIP3    H148065   2.731   3.256  12.899 -1.0294  1.0785  0.9602
 8858TIP3    H248066   2.735   3.171  13.025  1.5275  0.1561  0.3182
 8859TIP3   OH248067   2.949   1.056  12.755 -0.3507 -0.3416 -0.2649
 8859TIP3    H148068   3.037   1.016  12.758 -0.4453 -0.5014  0.9113
 8859TIP3    H248069   2.891   0.988  12.789 -0.7973  0.1011 -0.1327
 8860TIP3   OH248070   3.338   4.007  12.631 -0.0852  0.6758  0.1803
 8860TIP3    H148071   3.360   4.099  12.647 -0.5213  0.4549  2.4914
 8860TIP3    H248072   3.355   3.963  12.715 -0.8801 -1.1531 -0.5476
 8861TIP3   OH248073   4.688   0.094   4.063 -0.0631 -0.0979  0.2770
 8861TIP3    H148074   4.640   0.065   4.141 -0.1392 -2.0578 -0.4330
 8861TIP3    H248075   4.775   0.055   4.072 -0.3000 -0.9780 -0.9346
 8862TIP3   OH248076   0.024   1.810   4.870  0.9857 -0.5428 -0.3080
 8862TIP3    H148077  -0.023   1.881   4.826 -0.9998 -1.5970 -0.0182
 8862TIP3    H248078   0.064   1.852   4.946 -0.5293  0.2098  0.1131
 8863TIP3   OH248079   2.005   2.257   5.771 -0.0102  0.1205 -0.0195
 8863TIP3    H148080   1.951   2.179   5.782  0.8733 -0.4085  0.7122
 8863TIP3    H248081   1.992   2.308   5.851 -2.6375  2.0929 -1.5556
 8864TIP3   OH248082   0.472   0.268  15.463  0.0137 -0.0167 -0.2434
 8864TIP3    H148083   0.467   0.349  15.411  2.0512 -0.9475 -2.0452
 8864TIP3    H248084   0.462   0.198  15.400  2.9659 -1.2192  0.4505
 8865TIP3   OH248085   3.226   2.828   0.157  0.3161 -0.7274 -0.0988
 8865TIP3    H148086   3.262   2.883   0.087 -0.4946  0.4772  0.4017
 8865TIP3    H248087   3.132   2.830   0.142  0.2251 -1.3666  0.3903
 8866TIP3   OH248088   0.013   5.411  13.765 -0.1341 -0.7184  0.1986
 8866TIP3    H148089   0.053   5.342  13.711  0.5677 -0.1727  0.0096
 8866TIP3    H248090   0.073   5.485  13.758  1.3592 -1.3747  3.7031
 8867TIP3   OH248091   3.694   2.259  15.086 -0.0772  0.1722  0.2923
 8867TIP3    H148092   3.686   2.188  15.150  1.0886 -0.5470 -0.3322
 8867TIP3    H248093   3.786   2.286  15.093  0.0978 -0.0062 -1.1690
 8868TIP3   OH248094   0.534   0.512   4.640  0.4734  0.3178  0.0697
 8868TIP3    H148095   0.460   0.454   4.660  0.0580  0.3191 -1.3784
 8868TIP3    H248096   0.610   0.454   4.638  0.2164 -0.0110 -0.3275
 8869TIP3   OH248097   2.126   4.444   1.898 -0.4395 -0.5680 -0.3479
 8869TIP3    H148098   2.060   4.380   1.923 -1.6706  0.4681 -0.8621
 8869TIP3    H248099   2.189   4.444   1.970 -0.7526 -1.8812 -0.0554
 8870TIP3   OH248100   3.665   0.778   3.993 -0.7109 -0.2926  0.2846
 8870TIP3    H148101   3.610   0.736   4.060  0.3463 -0.2530  1.2048
 8870TIP3    H248102   3.637   0.737   3.911 -0.8367 -1.6405  0.9585
 8871TIP3   OH248103   0.011   2.012   6.356  0.2630  0.0407 -0.4399
 8871TIP3    H148104  -0.025   2.096   6.326  0.7766  1.5481  2.6929
 8871TIP3    H248105  -0.065   1.953   6.358 -0.2425  0.5852 -2.0734
 8872TIP3   OH248106   3.224   5.593  13.567 -0.1025 -0.1533  0.4081
 8872TIP3    H148107   3.304   5.616  13.615  0.4378 -0.7220 -0.1988
 8872TIP3    H248108   3.242   5.505  13.532  0.2205  0.8818 -2.2577
 8873TIP3   OH248109   3.703   5.157   2.223  0.5836 -0.5522 -0.0101
 8873TIP3    H148110   3.741   5.069   2.221 -0.3489 -1.0099  1.0538
 8873TIP3    H248111   3.644   5.159   2.148  0.4151 -0.9364  0.1081
 8874TIP3   OH248112   5.612   3.655  15.213 -0.4733 -0.4084 -0.5691
 8874TIP3    H148113   5.538   3.713  15.195 -1.2997 -1.6021 -1.0862
 8874TIP3    H248114   5.579   3.567  15.196  1.5653 -0.8751 -2.6816
 8875TIP3   OH248115   2.998   0.680   2.815 -0.2295 -0.6076 -0.3537
 8875TIP3    H148116   2.982   0.651   2.905  0.9971  0.3388  0.1918
 8875TIP3    H248117   2.941   0.756   2.805 -0.5564 -0.8650 -0.4722
 8876TIP3   OH248118   3.085   4.214  16.007 -0.0939  0.4853 -0.0596
 8876TIP3    H148119   3.007   4.185  15.960  0.2245 -0.8478  0.1683
 8876TIP3    H248120   3.142   4.136  16.008  0.4838  0.8925  1.3046
 8877TIP3   OH248121   3.947   3.416  15.755  0.1962 -0.2605  0.6323
 8877TIP3    H148122   3.937   3.512  15.758 -0.7591 -0.3506  0.6203
 8877TIP3    H248123   3.858   3.383  15.743  0.5762 -1.1413  0.1762
 8878TIP3   OH248124   3.384   2.170   4.690 -0.3333  0.2066 -0.3403
 8878TIP3    H148125   3.364   2.091   4.640 -0.1622 -0.1202  0.0921
 8878TIP3    H248126   3.410   2.137   4.776 -0.1269  0.7308 -0.1980
 8879TIP3   OH248127   1.980   2.023   0.886 -0.0696  0.6536 -0.0676
 8879TIP3    H148128   2.006   1.931   0.894 -2.8636 -0.2020  0.2255
 8879TIP3    H248129   2.002   2.047   0.796 -0.0023 -0.5430 -0.3883
 8880TIP3   OH248130   5.621   1.722  16.059 -0.1065 -0.3115 -0.4573
 8880TIP3    H148131   5.712   1.715  16.085 -0.1783 -0.5647 -0.2756
 8880TIP3    H248132   5.604   1.817  16.057  0.3898 -0.2274 -1.3053
 8881TIP3   OH248133   6.027   6.775  12.506  0.6149 -0.3726 -0.2869
 8881TIP3    H148134   5.987   6.862  12.498  0.5850 -0.1688  1.5167
 8881TIP3    H248135   5.984   6.723  12.439  0.7677  1.0319 -1.5387
 8882TIP3   OH248136   6.037   5.541  15.376  0.2709 -0.2022 -0.1730
 8882TIP3    H148137   6.079   5.623  15.347  1.2827 -0.2774  0.9902
 8882TIP3    H248138   6.019   5.494  15.295 -1.3487  1.6291 -0.9540
 8883TIP3   OH248139   3.047   1.699  15.368 -0.4446 -0.8929  0.5311
 8883TIP3    H148140   3.138   1.673  15.378 -0.1991 -0.1370  0.3125
 8883TIP3    H248141   3.011   1.698  15.457  0.4122  1.0965  0.9324
 8884TIP3   OH248142   3.007   3.296   1.945 -0.6448 -0.1260 -0.3174
 8884TIP3    H148143   2.958   3.315   2.026  0.4509  0.6106  0.2007
 8884TIP3    H248144   3.029   3.382   1.910  0.4061 -0.4341 -0.4509
 8885TIP3   OH248145   5.294   5.767   6.156 -0.5656  0.6991 -0.2958
 8885TIP3    H148146   5.342   5.690   6.187 -1.5445 -0.6455 -2.0050
 8885TIP3    H248147   5.350   5.804   6.088 -0.2743  1.3109  0.2622
 8886TIP3   OH248148   4.839   1.162   5.677  0.3143 -0.5150 -0.1352
 8886TIP3    H148149   4.920   1.155   5.626  0.7735  1.0911  0.3103
 8886TIP3    H248150   4.868   1.191   5.764 -0.8623  2.3020 -0.5936
 8887TIP3   OH248151   6.386   6.772   4.267 -0.2065 -0.3279 -0.0879
 8887TIP3    H148152   6.458   6.810   4.216  0.9616  0.5243  2.0554
 8887TIP3    H248153   6.430   6.717   4.333 -1.4952  0.3250  1.3632
 8888TIP3   OH248154   4.853   6.009  15.837  0.3265 -0.3079  0.9482
 8888TIP3    H148155   4.893   6.093  15.858  0.7051 -0.2385 -0.0047
 8888TIP3    H248156   4.913   5.969  15.775 -1.0534 -0.2258 -0.4932
 8889TIP3   OH248157   0.526   2.918  14.053  0.1095  0.3267 -0.1070
 8889TIP3    H148158   0.472   2.870  13.990  1.1262  0.2742 -0.9687
 8889TIP3    H248159   0.470   2.990  14.083 -0.5423  0.0966 -0.7332
 8890TIP3   OH248160   1.255   5.787   0.864  0.2911  0.1778 -0.4587
 8890TIP3    H148161   1.293   5.872   0.842  1.7504 -0.5400 -0.8693
 8890TIP3    H248162   1.185   5.807   0.926  0.4073  1.6927 -0.7731
 8891TIP3   OH248163   3.210   0.585  12.848  0.1078  0.3290  0.2816
 8891TIP3    H148164   3.119   0.560  12.830  0.1835  0.3571 -0.1611
 8891TIP3    H248165   3.254   0.502  12.867  0.3558  0.0883 -1.1754
 8892TIP3   OH248166   0.258   5.192   1.839 -0.5673 -0.9548  0.2322
 8892TIP3    H148167   0.215   5.115   1.877  0.0945 -1.2583  0.3872
 8892TIP3    H248168   0.349   5.185   1.868 -0.2252 -0.7641 -0.7448
 8893TIP3   OH248169   1.447   1.152   3.871 -0.0138 -0.1731 -0.4662
 8893TIP3    H148170   1.465   1.060   3.852  1.4169  0.1859 -0.9505
 8893TIP3    H248171   1.384   1.179   3.804 -1.3670 -1.0686  0.3733
 8894TIP3   OH248172   1.253   3.895  14.457  0.2619 -0.4477 -0.2058
 8894TIP3    H148173   1.293   3.831  14.398 -0.5164  0.5962 -1.9244
 8894TIP3    H248174   1.197   3.948  14.401 -1.1181  0.1185  1.6181
 8895TIP3   OH248175   5.899   5.623   4.458  0.0140  0.0754 -0.1869
 8895TIP3    H148176   5.853   5.539   4.464  0.7306 -0.3258 -0.2300
 8895TIP3    H248177   5.909   5.638   4.364  0.9885 -0.4042 -0.1626
 8896TIP3   OH248178   1.651   0.644  11.599  0.4232 -0.4280 -0.2995
 8896TIP3    H148179   1.632   0.667  11.508 -0.1442  0.8208  0.1083
 8896TIP3    H248180   1.615   0.556  11.610  0.3156 -0.5081 -1.2241
 8897TIP3   OH248181   2.350   3.751   5.659 -0.5034  0.5133 -0.1798
 8897TIP3    H148182   2.320   3.829   5.704 -0.9146 -0.0768  0.5832
 8897TIP3    H248183   2.443   3.767   5.644  0.2674 -0.2374  3.0367
 8898TIP3   OH248184   2.611   5.445   3.498  0.9726 -0.3348  0.0845
 8898TIP3    H148185   2.611   5.403   3.411 -0.1400  0.4647 -0.3257
 8898TIP3    H248186   2.518   5.451   3.521  1.2430 -0.1797  1.1604
 8899TIP3   OH248187   2.046   1.582  15.766  0.3049 -0.8615 -0.8380
 8899TIP3    H148188   1.957   1.611  15.744  0.5418 -1.7475 -3.2912
 8899TIP3    H248189   2.092   1.662  15.792 -1.0611 -0.3259  0.0313
 8900TIP3   OH248190   4.405   1.135   3.643  0.2770 -0.1916 -0.1745
 8900TIP3    H148191   4.334   1.122   3.707 -1.9097 -0.6328 -2.5259
 8900TIP3    H248192   4.472   1.072   3.669  0.1436  0.5988  2.4578
 8901TIP3   OH248193   2.050   0.214   2.084 -0.4968 -0.0903 -0.5572
 8901TIP3    H148194   2.051   0.255   2.170  0.0355  1.0869 -1.1078
 8901TIP3    H248195   2.073   0.122   2.101  0.4530  0.3123  0.4656
 8902TIP3   OH248196   5.129   0.943   6.514  0.7866  0.9726 -0.3905
 8902TIP3    H148197   5.220   0.970   6.507  0.6349  1.9388  0.9180
 8902TIP3    H248198   5.095   0.991   6.589 -0.8517  0.7609 -0.9367
 8903TIP3   OH248199   1.513   3.852  16.786 -0.3452 -0.3019 -1.1560
 8903TIP3    H148200   1.600   3.820  16.811 -0.0948  0.8668 -0.4819
 8903TIP3    H248201   1.508   3.940  16.823 -1.0032  0.4732 -2.9750
 8904TIP3   OH248202   3.151   1.901  12.542  0.4599 -0.1707 -0.6767
 8904TIP3    H148203   3.132   1.993  12.563  0.7480 -0.4656  1.0323
 8904TIP3    H248204   3.066   1.857  12.545  0.3883 -0.0562 -0.9972
 8905TIP3   OH248205   3.677   2.632  15.573  0.1802 -0.0117 -0.0699
 8905TIP3    H148206   3.709   2.721  15.589 -1.1045  0.4324  0.1953
 8905TIP3    H248207   3.633   2.638  15.488  0.7936 -0.6093 -0.4385
 8906TIP3   OH248208   0.695   1.511  14.126 -0.0346 -0.3093 -0.6583
 8906TIP3    H148209   0.760   1.580  14.135 -1.0273  0.6660 -0.6899
 8906TIP3    H248210   0.643   1.516  14.206  0.0826 -1.2637 -0.5029
 8907TIP3   OH248211   4.806   1.511  15.812  0.7332 -0.1820 -0.2671
 8907TIP3    H148212   4.735   1.455  15.780  0.8330 -1.4543  1.5601
 8907TIP3    H248213   4.851   1.457  15.877  1.6881  1.5709  0.5865
 8908TIP3   OH248214   4.090   2.995  16.113  0.2838  0.5230  0.6013
 8908TIP3    H148215   4.076   3.090  16.108 -0.4461  0.5462  2.4460
 8908TIP3    H248216   4.165   2.985  16.172  0.4089 -0.0501  0.3534
 8909TIP3   OH248217   5.662   3.294  12.219  0.6942  0.7210 -0.3180
 8909TIP3    H148218   5.619   3.266  12.137  1.3751 -2.2863  0.2230
 8909TIP3    H248219   5.714   3.370  12.194 -0.4823  0.9594 -2.2699
 8910TIP3   OH248220   1.724   4.226  14.338 -0.1818  0.3733  0.2132
 8910TIP3    H148221   1.662   4.152  14.333  0.3274 -0.1149  0.9378
 8910TIP3    H248222   1.781   4.214  14.262 -0.8425  0.7205 -0.3564
 8911TIP3   OH248223   0.214   2.756  15.643  0.2457 -0.5263 -0.1229
 8911TIP3    H148224   0.306   2.777  15.628  0.9047 -2.5776  0.6812
 8911TIP3    H248225   0.194   2.690  15.577 -0.3871 -0.7364  0.2737
 8912TIP3   OH248226   5.738   1.975  15.538 -0.3068  0.3052 -0.2320
 8912TIP3    H148227   5.706   2.036  15.604  0.6639  0.4220  0.1533
 8912TIP3    H248228   5.768   2.031  15.466  2.0539  0.4333  0.7664
 8913TIP3   OH248229   4.425   6.448  16.795  0.1073 -0.5885  0.3340
 8913TIP3    H148230   4.486   6.468  16.724 -1.5137 -0.0809 -0.9894
 8913TIP3    H248231   4.381   6.531  16.814  0.9983 -0.5351  2.4864
 8914TIP3   OH248232   3.213   3.948  12.140  0.2557 -0.0182  0.4470
 8914TIP3    H148233   3.280   3.988  12.194  1.3816  0.7108 -1.4076
 8914TIP3    H248234   3.164   3.892  12.200  1.8958  0.1777  2.0352
 8915TIP3   OH248235   3.365   0.454   5.929  0.2973 -0.1025  0.1283
 8915TIP3    H148236   3.438   0.480   5.985  0.8392  1.1895 -1.1181
 8915TIP3    H248237   3.291   0.508   5.959  0.5659  0.5272 -0.3109
 8916TIP3   OH248238   1.533   5.795  11.377 -0.0361  0.7781 -0.3438
 8916TIP3    H148239   1.614   5.815  11.330  0.6740 -2.0049 -0.4320
 8916TIP3    H248240   1.526   5.700  11.377 -1.0996  0.6609  3.3483
 8917TIP3   OH248241   0.916   6.688  14.758 -0.1004 -0.0335  0.2720
 8917TIP3    H148242   0.914   6.774  14.716 -2.1031  1.1034  2.4680
 8917TIP3    H248243   0.948   6.629  14.689 -1.4795  1.9612 -2.2744
 8918TIP3   OH248244   6.681   4.983  16.146  0.2574  0.3165  0.4572
 8918TIP3    H148245   6.658   5.054  16.086  0.2192  0.6988  0.9161
 8918TIP3    H248246   6.699   5.027  16.229 -1.5104 -0.3455  1.2499
 8919TIP3   OH248247   0.291   1.265   3.301  0.1007  0.0224 -0.4541
 8919TIP3    H148248   0.273   1.326   3.372  0.9324  1.1225 -1.1506
 8919TIP3    H248249   0.206   1.246   3.262 -0.1314  1.0196 -0.4476
 8920TIP3   OH248250   1.791   0.491   2.856 -0.0847  0.5745 -0.0089
 8920TIP3    H148251   1.808   0.448   2.772 -1.9992  0.3164 -0.2971
 8920TIP3    H248252   1.779   0.420   2.918  0.7157  0.7642  0.3866
 8921TIP3   OH248253   3.571   5.963  13.546  0.1343  0.1777 -0.1592
 8921TIP3    H148254   3.550   6.056  13.545  1.6989  0.5568 -0.9528
 8921TIP3    H248255   3.509   5.925  13.608 -0.6438  1.7125  0.0475
 8922TIP3   OH248256   3.595   2.700   4.867  0.4877 -0.0016 -0.0970
 8922TIP3    H148257   3.581   2.605   4.867 -1.1004  0.2047 -0.1251
 8922TIP3    H248258   3.614   2.722   4.776  3.2904 -0.5589  0.2595
 8923TIP3   OH248259   2.245   5.827  12.343  0.0650  0.0969  0.8325
 8923TIP3    H148260   2.241   5.905  12.288  0.4324 -0.7486 -0.4328
 8923TIP3    H248261   2.159   5.786  12.333  1.1323 -1.7658 -1.7778
 8924TIP3   OH248262   4.174   4.593   0.272  0.5762 -0.2805  0.3704
 8924TIP3    H148263   4.220   4.537   0.335  2.3007 -0.0063 -0.5938
 8924TIP3    H248264   4.130   4.659   0.326  1.7054 -0.2795  1.3322
 8925TIP3   OH248265   0.728   1.271   4.171  0.5332  0.0021  0.2914
 8925TIP3    H148266   0.650   1.216   4.170  0.7505 -0.3047 -1.0235
 8925TIP3    H248267   0.799   1.212   4.198  0.5093  0.0024  0.3553
 8926TIP3   OH248268   0.412   5.649   0.544  0.3233  0.3584 -0.6117
 8926TIP3    H148269   0.401   5.642   0.639 -0.0881  1.6255 -0.5498
 8926TIP3    H248270   0.437   5.740   0.529 -2.0215  0.8654 -1.9262
 8927TIP3   OH248271   1.376   2.030  11.388  0.1132 -0.6464 -0.4367
 8927TIP3    H148272   1.469   2.019  11.412 -0.3895 -1.0406  1.4988
 8927TIP3    H248273   1.362   2.124  11.390  0.5497 -0.5617 -1.0885
 8928TIP3   OH248274   3.590   5.424   5.567  0.4764  0.0776 -0.3390
 8928TIP3    H148275   3.644   5.373   5.507 -1.0760 -0.7662 -1.0881
 8928TIP3    H248276   3.651   5.483   5.611  1.9915 -0.8964 -1.0702
 8929TIP3   OH248277   5.755   0.618   1.995 -0.6180  0.2866 -0.3821
 8929TIP3    H148278   5.824   0.552   2.003  0.2964  1.3689  1.2030
 8929TIP3    H248279   5.774   0.663   1.912 -0.4884 -0.5700 -0.8278
 8930TIP3   OH248280   3.124   1.075   3.980  0.4123 -0.2511 -0.3932
 8930TIP3    H148281   3.131   1.162   4.019 -0.5720 -1.1483  1.9836
 8930TIP3    H248282   3.035   1.072   3.943  0.5498 -0.1490 -0.7323
 8931TIP3   OH248283   4.262   6.404  12.930 -0.3310 -0.5103 -0.0027
 8931TIP3    H148284   4.237   6.379  12.840 -1.8972 -1.1763  0.5704
 8931TIP3    H248285   4.305   6.489  12.920 -0.4228 -0.5912 -1.3916
 8932TIP3   OH248286   6.834   3.751  15.973 -0.0977  0.1116 -0.3185
 8932TIP3    H148287   6.760   3.810  15.961  0.9660  1.5350 -0.2379
 8932TIP3    H248288   6.841   3.740  16.068 -0.2295 -0.0478 -0.3282
 8933TIP3   OH248289   5.965   3.069   6.364 -0.3521  0.7185  0.1227
 8933TIP3    H148290   5.951   2.980   6.332 -2.4942  0.3043  1.9582
 8933TIP3    H248291   6.060   3.075   6.378 -0.2588 -1.6716  0.9627
 8934TIP3   OH248292   6.266   2.194   4.850  0.3740 -0.3402 -0.2226
 8934TIP3    H148293   6.362   2.191   4.845  0.5645  1.0821  1.6271
 8934TIP3    H248294   6.239   2.250   4.777  0.8097 -1.6655 -1.4614
 8935TIP3   OH248295   6.321   0.218  15.171  0.5556 -0.0460 -0.4591
 8935TIP3    H148296   6.279   0.203  15.086  0.9611 -0.8329 -0.5295
 8935TIP3    H248297   6.379   0.293  15.156 -1.7217  1.9235 -0.0285
 8936TIP3   OH248298   4.827   3.263  12.542 -0.3290  0.3350 -0.2617
 8936TIP3    H148299   4.735   3.242  12.558 -0.3146  0.9817  0.7407
 8936TIP3    H248300   4.849   3.326  12.610  1.1396 -0.5568  0.1121
 8937TIP3   OH248301   3.595   3.018   3.217  0.0146 -0.0678 -0.0228
 8937TIP3    H148302   3.502   3.010   3.194  0.5922 -1.1922 -2.2718
 8937TIP3    H248303   3.630   3.080   3.153  0.8068  0.5087  0.9331
 8938TIP3   OH248304   6.730   4.852  14.767  0.1959  0.2173 -0.0952
 8938TIP3    H148305   6.653   4.817  14.722  0.1943 -0.0605  0.1232
 8938TIP3    H248306   6.786   4.776  14.782  0.4470  0.3968 -0.1231
 8939TIP3   OH248307   0.960   1.942  12.516 -0.1510  0.2060  0.4264
 8939TIP3    H148308   0.966   1.906  12.604 -0.4739  1.4544  0.9731
 8939TIP3    H248309   0.873   1.983  12.512 -0.7121 -1.0321 -0.9494
 8940TIP3   OH248310   1.376   0.507   0.917 -0.3202 -0.4758  0.2849
 8940TIP3    H148311   1.377   0.440   0.849 -0.5943  0.5292 -0.7509
 8940TIP3    H248312   1.463   0.546   0.914 -0.8152  0.6075 -0.5855
 8941TIP3   OH248313   6.765   2.360   5.526 -0.0738 -0.6825  0.3034
 8941TIP3    H148314   6.821   2.437   5.531  3.1988 -2.9338  1.9073
 8941TIP3    H248315   6.751   2.335   5.617 -0.6943 -2.2220 -0.1922
 8942TIP3   OH248316   1.030   2.161  11.680  0.9543 -0.0556  0.3653
 8942TIP3    H148317   0.973   2.128  11.750  1.4180 -0.8631  0.3829
 8942TIP3    H248318   1.075   2.236  11.719  1.0411 -0.3632  0.8645
 8943TIP3   OH248319   3.152   2.068   0.005 -0.0212  0.1534  0.1231
 8943TIP3    H148320   3.092   2.099  -0.062  0.7192  2.5436  0.4839
 8943TIP3    H248321   3.228   2.036  -0.044 -0.3133 -0.0191 -0.2234
 8944TIP3   OH248322   1.045   3.235   0.503 -0.0892  0.4072  0.1441
 8944TIP3    H148323   1.050   3.144   0.474  2.6073  1.1797 -2.1905
 8944TIP3    H248324   0.965   3.268   0.463  0.2423 -0.2795 -1.1195
 8945TIP3   OH248325   0.296   5.895   1.802  0.2331 -0.6665 -0.1738
 8945TIP3    H148326   0.356   5.876   1.875  0.2585 -0.7806 -0.2242
 8945TIP3    H248327   0.310   5.988   1.783  0.1183 -0.5967  0.0664
 8946TIP3   OH248328   5.963   6.624   1.065  0.2233  0.1443  0.0016
 8946TIP3    H148329   5.966   6.547   1.122  1.1662 -1.2854 -1.8784
 8946TIP3    H248330   6.054   6.641   1.042 -0.0802  1.1512 -0.5077
 8947TIP3   OH248331   4.343   6.810   0.237 -0.7478  0.0767 -0.0329
 8947TIP3    H148332   4.371   6.778   0.151  0.6495 -0.4588  0.5976
 8947TIP3    H248333   4.262   6.763   0.255  0.5185 -2.1391  0.2440
 8948TIP3   OH248334   1.121   5.024  11.710  0.1528  0.2263 -0.0795
 8948TIP3    H148335   1.141   5.103  11.759  2.5037 -0.1941 -0.2523
 8948TIP3    H248336   1.026   5.027  11.696  0.1317  2.7834  0.2664
 8949TIP3   OH248337   2.285   3.331   5.826  0.4018  1.5583  0.6757
 8949TIP3    H148338   2.324   3.413   5.854  2.5374  1.7531 -2.3556
 8949TIP3    H248339   2.341   3.301   5.754 -1.7527 -1.2625 -0.0204
 8950TIP3   OH248340   1.867   4.036  15.702  0.0060  0.5090  0.2845
 8950TIP3    H148341   1.879   4.005  15.791  0.6244 -0.1400 -0.0135
 8950TIP3    H248342   1.781   4.079  15.702  0.1869  0.8827  1.2832
 8951TIP3   OH248343   1.236   2.863   1.723  0.0846 -0.7672 -0.2269
 8951TIP3    H148344   1.190   2.889   1.643 -1.1199 -0.9764  0.3671
 8951TIP3    H248345   1.287   2.941   1.747  0.9054 -0.8946 -1.4834
 8952TIP3   OH248346   5.610   5.600   1.656  0.0102  0.3884  0.0541
 8952TIP3    H148347   5.666   5.528   1.685  1.1741  0.9024 -0.8715
 8952TIP3    H248348   5.658   5.679   1.679  0.4165  0.8208 -2.1430
 8953TIP3   OH248349   1.992   1.069  11.141  0.0844  0.2794  0.2611
 8953TIP3    H148350   1.911   1.018  11.144  1.4321 -1.9574  0.0389
 8953TIP3    H248351   2.011   1.088  11.233 -0.3309  0.2525  0.3565
 8954TIP3   OH248352   1.167   2.467  16.659  0.1344  0.4777 -0.1769
 8954TIP3    H148353   1.100   2.464  16.591 -2.0012 -1.8863  1.7980
 8954TIP3    H248354   1.242   2.421  16.621 -0.6372  0.0659 -1.2417
 8955TIP3   OH248355   4.509   1.179   5.966 -0.1130  0.3261  0.1918
 8955TIP3    H148356   4.554   1.262   5.980  0.1018  0.1525  0.5453
 8955TIP3    H248357   4.419   1.204   5.945  0.0644  0.6604 -0.1884
 8956TIP3   OH248358   0.801   5.317  11.745  0.1585  0.2457  0.2263
 8956TIP3    H148359   0.758   5.381  11.802 -0.2591 -0.0565  0.2585
 8956TIP3    H248360   0.894   5.338  11.752 -0.0219  1.2859 -0.3012
 8957TIP3   OH248361   1.721   3.263   3.404 -0.6168 -0.8609 -0.1102
 8957TIP3    H148362   1.726   3.197   3.473  1.4559 -2.8806 -1.9945
 8957TIP3    H248363   1.755   3.343   3.444 -1.5948 -1.3229  1.7682
 8958TIP3   OH248364   2.164   2.015   2.609 -0.3603  0.0948 -0.1754
 8958TIP3    H148365   2.166   1.963   2.690 -0.3880 -0.1102 -0.3053
 8958TIP3    H248366   2.074   2.008   2.578 -0.7313  1.3599  0.5388
 8959TIP3   OH248367   6.665   3.471   5.825 -0.0120 -0.3368  0.1929
 8959TIP3    H148368   6.584   3.490   5.871 -0.1968 -1.2071  0.2483
 8959TIP3    H248369   6.716   3.418   5.887  0.2100 -0.5637 -0.1788
 8960TIP3   OH248370   5.864   6.603   0.234 -0.3613  0.3108 -0.2447
 8960TIP3    H148371   5.858   6.514   0.268 -0.7871  0.3984 -0.0952
 8960TIP3    H248372   5.774   6.635   0.232 -0.0277  1.7890  2.5228
 8961TIP3   OH248373   2.663   6.549   0.569  0.1227  0.1276 -0.0932
 8961TIP3    H148374   2.701   6.635   0.554 -1.7302  0.7597 -1.5829
 8961TIP3    H248375   2.632   6.521   0.483 -1.6938 -0.8214  0.8034
 8962TIP3   OH248376   2.872   3.527   0.791  0.7720 -0.1831 -0.2872
 8962TIP3    H148377   2.915   3.505   0.873  1.6102  0.5895 -0.5092
 8962TIP3    H248378   2.819   3.604   0.811  0.1144 -0.6496 -0.2106
 8963TIP3   OH248379   3.651   1.340   2.621  0.4185 -0.2462  0.2409
 8963TIP3    H148380   3.612   1.264   2.664 -1.1934 -0.7054 -1.8815
 8963TIP3    H248381   3.584   1.408   2.626  0.8747  0.2349 -0.0972
 8964TIP3   OH248382   1.581   2.606  12.796 -0.5830  0.3998 -0.6626
 8964TIP3    H148383   1.533   2.588  12.715 -2.8738  3.3167 -0.1102
 8964TIP3    H248384   1.514   2.623  12.861  1.2173  1.1466  1.1130
 8965TIP3   OH248385   1.648   3.204   5.381  0.4254  0.2778 -0.4360
 8965TIP3    H148386   1.735   3.239   5.362  1.4602 -1.3213  1.0606
 8965TIP3    H248387   1.639   3.129   5.323  0.1512  0.2612 -0.3744
 8966TIP3   OH248388   1.292   4.163   6.784  0.1789 -0.0526 -0.0903
 8966TIP3    H148389   1.349   4.211   6.844  0.9006  0.0315 -0.8327
 8966TIP3    H248390   1.204   4.197   6.803  0.2388 -0.7374  1.5992
 8967TIP3   OH248391   4.204   4.079  16.393  0.4879  0.0887  0.2765
 8967TIP3    H148392   4.179   4.146  16.457 -1.3483  1.0219 -1.3276
 8967TIP3    H248393   4.238   4.129  16.319  3.7657 -1.0217  0.8806
 8968TIP3   OH248394   6.748   3.537  14.727 -0.2980  0.2247  0.6368
 8968TIP3    H148395   6.663   3.526  14.685  1.5401 -1.8784 -3.0403
 8968TIP3    H248396   6.796   3.596  14.669  1.3601 -0.1579  1.5550
 8969TIP3   OH248397   0.102   3.322  15.620  0.4870 -0.0791  0.0761
 8969TIP3    H148398   0.041   3.306  15.692 -1.1549  2.5691 -0.5875
 8969TIP3    H248399   0.067   3.269  15.547  0.6025 -0.6813  0.4495
 8970TIP3   OH248400   5.391   1.933   4.494  0.1187  0.4306 -0.0099
 8970TIP3    H148401   5.340   1.907   4.570  1.3402 -1.9814  0.0573
 8970TIP3    H248402   5.482   1.918   4.519  0.5109 -1.9863 -2.3852
 8971TIP3   OH248403   3.670   5.382  16.350  0.4359 -0.0625 -0.1362
 8971TIP3    H148404   3.637   5.472  16.352 -0.9092 -0.5306  1.3861
 8971TIP3    H248405   3.599   5.330  16.388  1.8087 -1.5528  0.5061
 8972TIP3   OH248406   0.883   1.883   2.068  0.6128  0.2051 -0.4478
 8972TIP3    H148407   0.859   1.971   2.039  0.8921 -0.0155 -1.3872
 8972TIP3    H248408   0.912   1.839   1.988 -1.7964 -1.5155 -0.4862
 8973TIP3   OH248409   2.171   3.829  11.523 -0.0816  0.1889  0.1641
 8973TIP3    H148410   2.107   3.818  11.453 -1.3061 -0.6555  1.3584
 8973TIP3    H248411   2.234   3.758  11.509 -0.5454 -0.2220  0.1358
 8974TIP3   OH248412   6.743   3.260  16.898  0.2162 -0.5438  0.0189
 8974TIP3    H148413   6.766   3.295  16.984  2.4821 -2.2725  0.2227
 8974TIP3    H248414   6.681   3.189  16.916 -0.1835 -0.1756  0.1071
 8975TIP3   OH248415   6.516   3.007  16.509 -0.7096  0.4939 -0.0010
 8975TIP3    H148416   6.580   3.059  16.557 -2.4802  1.6970  1.1834
 8975TIP3    H248417   6.562   2.925  16.488  1.3400  1.5023  0.3095
 8976TIP3   OH248418   2.681   4.937  15.369 -0.3402  0.0138  1.0885
 8976TIP3    H148419   2.609   4.936  15.431  0.5421 -0.3360  2.1339
 8976TIP3    H248420   2.714   5.027  15.372 -0.6223  0.1334  0.7242
 8977TIP3   OH248421   5.719   2.287  13.572 -0.1265  0.2399  0.2048
 8977TIP3    H148422   5.779   2.307  13.499  0.3296 -0.4714  0.3759
 8977TIP3    H248423   5.741   2.197  13.596 -1.4739 -0.1344  0.0803
 8978TIP3   OH248424   2.649   6.180  12.476 -0.1434 -0.6930  0.1952
 8978TIP3    H148425   2.647   6.093  12.438 -0.8964 -0.8459  0.5692
 8978TIP3    H248426   2.596   6.234  12.417 -0.4144 -0.6902  0.4377
 8979TIP3   OH248427   1.255   4.737   1.965 -0.0687 -0.1215  0.1587
 8979TIP3    H148428   1.329   4.687   1.931 -1.2068 -1.5041 -0.3838
 8979TIP3    H248429   1.196   4.747   1.890 -1.2731 -0.6721  0.9986
 8980TIP3   OH248430   6.763   1.988   2.455 -0.7394 -0.2741 -0.1628
 8980TIP3    H148431   6.772   2.078   2.486 -1.5574 -0.0271 -0.6007
 8980TIP3    H248432   6.678   1.987   2.410  0.8396 -0.3483 -3.3839
 8981TIP3   OH248433   0.349   3.216  13.246 -0.0959 -0.0396  1.0266
 8981TIP3    H148434   0.285   3.146  13.253  0.2830 -0.5802 -0.4493
 8981TIP3    H248435   0.434   3.172  13.249  0.1420  0.1556 -1.0312
 8982TIP3   OH248436   5.749   0.111   4.749 -0.0545  0.3198  0.0939
 8982TIP3    H148437   5.756   0.176   4.819 -1.0249 -0.4950  0.9728
 8982TIP3    H248438   5.819   0.048   4.768 -1.3097 -0.7655  1.2952
 8983TIP3   OH248439   4.653   2.585   1.152 -0.4036  0.3754 -0.1255
 8983TIP3    H148440   4.736   2.632   1.149  0.1168 -0.2305  2.4364
 8983TIP3    H248441   4.675   2.497   1.121  0.2283 -0.1008  1.5466
 8984TIP3   OH248442   3.657   1.862   0.104  0.3814 -0.0843 -0.1101
 8984TIP3    H148443   3.619   1.782   0.141  1.6669 -0.4090  0.5985
 8984TIP3    H248444   3.613   1.934   0.148 -0.5157 -0.4046 -0.4734
 8985TIP3   OH248445   3.729   0.026   4.849  0.5509  0.3539 -0.5752
 8985TIP3    H148446   3.664  -0.024   4.799  1.6056 -1.0426 -0.6410
 8985TIP3    H248447   3.726   0.114   4.813 -1.6757  0.4796 -0.1883
 8986TIP3   OH248448   2.533   5.394  13.100 -0.0311 -0.0003  0.4394
 8986TIP3    H148449   2.617   5.400  13.054 -1.0016  1.5683 -1.2874
 8986TIP3    H248450   2.540   5.460  13.169  0.0311  0.4591  0.0105
 8987TIP3   OH248451   4.988   3.262  13.653 -0.2529 -0.2538 -0.5983
 8987TIP3    H148452   5.080   3.282  13.634 -0.3560  0.5718 -0.2507
 8987TIP3    H248453   4.939   3.305  13.582 -0.3897 -0.4220 -0.6055
 8988TIP3   OH248454   6.836   0.218   4.984  0.1256 -0.3545  0.0065
 8988TIP3    H148455   6.913   0.188   4.936  0.6922  1.0007 -0.0018
 8988TIP3    H248456   6.845   0.180   5.071  1.0316  0.1142  0.1291
 8989TIP3   OH248457   6.831   4.287  12.057 -0.1165 -0.2063  0.4158
 8989TIP3    H148458   6.885   4.291  11.978  1.7488  0.6036  1.6726
 8989TIP3    H248459   6.827   4.194  12.078  2.5622 -0.2013  1.3846
 8990TIP3   OH248460   3.323   6.576   3.104  0.3789  0.1931  0.3049
 8990TIP3    H148461   3.237   6.616   3.093  1.6451  2.4996 -2.6452
 8990TIP3    H248462   3.372   6.638   3.158  1.4628  1.2646 -1.8029
 8991TIP3   OH248463   6.033   4.147  12.246  0.1952  0.7012  0.9129
 8991TIP3    H148464   6.122   4.177  12.231 -0.2481  1.1023 -1.0993
 8991TIP3    H248465   6.043   4.062  12.290  1.6975 -0.7654 -1.9807
 8992TIP3   OH248466   6.367   4.233  14.848 -0.5146 -0.0444 -0.0397
 8992TIP3    H148467   6.339   4.290  14.919  0.8809 -0.3939  0.8342
 8992TIP3    H248468   6.305   4.250  14.777 -1.6332  0.6919  1.0702
 8993TIP3   OH248469   3.391   2.722  11.073  0.2854 -0.1567 -0.0634
 8993TIP3    H148470   3.429   2.797  11.027 -0.5411  0.1908 -0.1970
 8993TIP3    H248471   3.349   2.671  11.004 -1.7271  0.8208  0.3436
 8994TIP3   OH248472   3.931   2.830  16.795 -0.5318 -0.0468 -0.3952
 8994TIP3    H148473   3.910   2.898  16.859  0.0998  2.1254 -2.3634
 8994TIP3    H248474   3.942   2.751  16.848 -0.6621  1.4729  2.1055
 8995TIP3   OH248475   0.601   4.957   1.438  0.1183  0.0137 -0.1195
 8995TIP3    H148476   0.595   4.866   1.408  0.7943 -0.0306 -0.1253
 8995TIP3    H248477   0.523   4.999   1.402  1.3644  0.2066 -2.8463
 8996TIP3   OH248478   0.918   4.797  16.341 -0.2790 -0.1753 -0.1067
 8996TIP3    H148479   0.995   4.744  16.322 -0.1267 -0.0097  0.0413
 8996TIP3    H248480   0.877   4.755  16.417 -1.4057 -1.3795 -1.3431
 8997TIP3   OH248481   2.657   0.048  11.991  0.4746 -0.1632  0.3660
 8997TIP3    H148482   2.645   0.117  12.056  0.3301 -0.5089  0.7138
 8997TIP3    H248483   2.739   0.070  11.947  0.2405  0.4297  0.2248
 8998TIP3   OH248484   0.032   1.206   1.311  0.6984 -0.2652 -0.2940
 8998TIP3    H148485  -0.027   1.166   1.247  0.4871 -0.8003  0.2280
 8998TIP3    H248486   0.087   1.135   1.342  0.9007  0.0197  0.0110
 8999TIP3   OH248487   6.013   1.435   1.779 -0.2751 -0.0617  0.2510
 8999TIP3    H148488   5.918   1.428   1.769 -0.2786  0.1786  0.1061
 8999TIP3    H248489   6.034   1.525   1.750  0.1408 -0.4939 -0.8585
 9000TIP3   OH248490   0.765   2.914   5.095  0.5914 -1.0499  0.2300
 9000TIP3    H148491   0.691   2.882   5.147 -0.9426  0.5228 -0.8625
 9000TIP3    H248492   0.726   2.977   5.035  2.9780  0.5722  0.2487
 9001TIP3   OH248493   2.376   0.302  17.103  0.4820 -0.0408 -0.1736
 9001TIP3    H148494   2.301   0.361  17.112  0.4783  0.0300 -0.6523
 9001TIP3    H248495   2.436   0.348  17.043  0.6921 -0.3082 -0.1713
 9002TIP3   OH248496   0.882   2.847   1.360 -0.4124 -0.4111 -0.5142
 9002TIP3    H148497   0.917   2.935   1.372 -0.7413 -0.4427  0.9011
 9002TIP3    H248498   0.954   2.797   1.324 -1.0484  1.0578 -4.2326
 9003TIP3   OH248499   5.220   5.542  13.073  0.4033 -0.2133  0.4788
 9003TIP3    H148500   5.216   5.632  13.043  3.1325  0.3364  1.4384
 9003TIP3    H248501   5.295   5.504  13.027  1.2492 -1.0010  2.3745
 9004TIP3   OH248502   0.619   6.715   2.885 -0.0859  0.5880  0.1032
 9004TIP3    H148503   0.637   6.665   2.964 -1.6468  1.8938  1.3577
 9004TIP3    H248504   0.705   6.731   2.846  0.5173 -3.4220 -0.6998
 9005TIP3   OH248505   3.169   0.643  10.413  0.7316  0.1941  0.0664
 9005TIP3    H148506   3.085   0.620  10.453  2.4046 -1.2523  3.1491
 9005TIP3    H248507   3.158   0.732  10.382 -1.6063  0.4505  1.4043
 9006TIP3   OH248508   3.444   3.022   0.620  0.4505 -0.1069 -0.0508
 9006TIP3    H148509   3.431   2.935   0.659  0.2798  0.0597  0.2655
 9006TIP3    H248510   3.479   3.076   0.691 -1.3740  0.6261  0.3495
 9007TIP3   OH248511   3.521   2.470  10.979  0.0311 -0.8994  0.0041
 9007TIP3    H148512   3.589   2.486  11.044 -0.8507 -0.9647  0.9517
 9007TIP3    H248513   3.568   2.469  10.895  0.8406  1.7724  0.3279
 9008TIP3   OH248514   1.992   5.087  15.492  0.0218 -0.2018 -0.0598
 9008TIP3    H148515   2.049   5.084  15.415 -0.0300 -1.1815 -0.0827
 9008TIP3    H248516   2.051   5.109  15.564  0.1748  0.1515 -0.2870
 9009TIP3   OH248517   6.073   5.272   3.642 -0.1096 -0.2055 -0.1492
 9009TIP3    H148518   6.166   5.292   3.640 -0.1516  0.0959  0.5500
 9009TIP3    H248519   6.067   5.181   3.616  0.2776  0.0864 -1.3172
 9010TIP3   OH248520   3.010   2.286  16.930 -0.4517  0.1414  0.3823
 9010TIP3    H148521   3.082   2.267  16.870 -0.8270 -2.4588  0.6337
 9010TIP3    H248522   2.937   2.308  16.872 -0.1062  0.3594  0.0188
 9011TIP3   OH248523   4.604   2.466   4.575 -0.1162  0.3784  0.5697
 9011TIP3    H148524   4.560   2.394   4.619 -0.8437 -0.1532 -0.9441
 9011TIP3    H248525   4.552   2.543   4.598 -0.1148  0.2155  1.1301
 9012TIP3   OH248526   2.608   3.705   3.800  0.0121 -0.6328  0.3342
 9012TIP3    H148527   2.528   3.722   3.749  2.2597  0.5194 -3.2345
 9012TIP3    H248528   2.609   3.773   3.866 -2.3875 -1.2936  1.1490
 9013TIP3   OH248529   4.966   4.546  11.928  0.1762  0.3241 -0.2807
 9013TIP3    H148530   4.995   4.467  11.884 -2.4708 -0.1627 -1.3728
 9013TIP3    H248531   5.016   4.617  11.887  0.9633 -0.5686 -0.8826
 9014TIP3   OH248532   4.405   0.935  14.204 -0.4112  0.1640  0.4419
 9014TIP3    H148533   4.323   0.950  14.158  0.0479  0.2516 -0.3756
 9014TIP3    H248534   4.385   0.869  14.270 -0.9959 -0.2486 -0.1458
 9015TIP3   OH248535   1.176   0.018   1.014 -0.0678  0.3196 -0.4345
 9015TIP3    H148536   1.142   0.033   1.102  1.1969 -0.9513  0.3139
 9015TIP3    H248537   1.246   0.082   1.004 -0.2707  0.5239 -0.5604
 9016TIP3   OH248538   3.065   0.087   5.758 -0.2069 -0.2645 -0.4333
 9016TIP3    H148539   3.123   0.136   5.699  0.8896  2.0061  2.3199
 9016TIP3    H248540   3.087  -0.005   5.742  3.5174  0.4503 -0.2358
 9017TIP3   OH248541   6.328   3.130  13.855  0.7588 -0.1557 -0.1859
 9017TIP3    H148542   6.405   3.166  13.899  0.9107  0.5913 -1.0382
 9017TIP3    H248543   6.342   3.149  13.762  0.2741 -1.3755 -0.5386
 9018TIP3   OH248544   5.719   1.047   2.297 -0.1544  0.1028 -0.5342
 9018TIP3    H148545   5.629   1.072   2.273 -0.3667  0.2050  0.3258
 9018TIP3    H248546   5.708   0.969   2.352  0.4186 -1.1378 -2.0639
 9019TIP3   OH248547   5.035   4.023   4.106 -0.0051  0.0359 -0.0629
 9019TIP3    H148548   5.067   4.066   4.186  0.1419  1.0011 -0.6285
 9019TIP3    H248549   4.979   3.953   4.138  3.2481 -2.3177  1.0421
 9020TIP3   OH248550   4.678   3.710  12.174 -0.2459  0.1123 -0.3260
 9020TIP3    H148551   4.762   3.666  12.165 -0.5864 -0.1090 -3.5456
 9020TIP3    H248552   4.700   3.803  12.184  0.3690 -0.2199  1.8024
 9021TIP3   OH248553   3.977   1.262   1.947 -0.2182 -0.6507 -0.6576
 9021TIP3    H148554   4.011   1.258   1.857  0.1804 -0.2191 -0.5297
 9021TIP3    H248555   3.927   1.343   1.950 -0.3555 -0.7390 -0.5277
 9022TIP3   OH248556   2.133   0.695   3.642 -0.4058 -0.3625 -0.3313
 9022TIP3    H148557   2.103   0.614   3.600 -0.8067  0.4222 -1.6190
 9022TIP3    H248558   2.139   0.673   3.735  0.4948 -2.1787 -0.7521
 9023TIP3   OH248559   6.600   6.146  13.445 -0.0111 -0.1782 -0.6715
 9023TIP3    H148560   6.690   6.178  13.445 -0.3983  0.9754 -1.1598
 9023TIP3    H248561   6.547   6.225  13.457 -0.9617 -0.8226 -0.5352
 9024TIP3   OH248562   6.711   0.752  15.362  0.2387  0.6828 -0.1458
 9024TIP3    H148563   6.642   0.723  15.422  1.4170  1.9787  1.9754
 9024TIP3    H248564   6.790   0.706  15.391  0.8814  1.4973 -0.5433
 9025TIP3   OH248565   5.859   1.711  13.638  0.2890 -0.8134  0.0530
 9025TIP3    H148566   5.912   1.766  13.696 -1.2990  0.7383  0.1162
 9025TIP3    H248567   5.924   1.668  13.582  1.6639  1.0758  0.0571
 9026TIP3   OH248568   4.272   3.731   5.004  0.0966 -0.3971 -0.8133
 9026TIP3    H148569   4.239   3.696   5.087 -0.9273  1.3318 -0.4334
 9026TIP3    H248570   4.362   3.698   4.998 -0.0733 -1.2059  0.5858
 9027TIP3   OH248571   1.292   0.572   0.049  0.3760 -0.4200  0.4650
 9027TIP3    H148572   1.353   0.523  -0.005 -0.1073 -0.1851 -0.3084
 9027TIP3    H248573   1.324   0.559   0.139  2.5051  0.9735 -0.0052
 9028TIP3   OH248574   0.962   3.891   0.397 -0.5327  0.1719  0.3212
 9028TIP3    H148575   1.048   3.850   0.408  0.5786  2.7055  2.1051
 9028TIP3    H248576   0.901   3.831   0.442  0.7038 -0.4070  1.2729
 9029TIP3   OH248577   1.072   5.025  16.394  0.3205 -0.2765  0.1517
 9029TIP3    H148578   1.016   4.949  16.410  0.8524 -1.2466 -2.1151
 9029TIP3    H248579   1.049   5.053  16.305  1.6759  0.8542  0.1187
 9030TIP3   OH248580   5.436   5.809  11.315 -0.0101 -0.3153  0.0843
 9030TIP3    H148581   5.409   5.900  11.326 -0.3516 -0.6341  2.5002
 9030TIP3    H248582   5.532   5.813  11.313  0.0873  0.0137  2.2482
 9031TIP3   OH248583   1.547   5.587  14.187  1.0926 -0.6235 -0.2587
 9031TIP3    H148584   1.576   5.569  14.098 -1.6839  0.1802 -1.4166
 9031TIP3    H248585   1.515   5.677  14.184  1.4083 -0.4091  1.7040
 9032TIP3   OH248586   2.993   1.952   1.874 -0.2494  0.3450  0.8405
 9032TIP3    H148587   2.960   1.909   1.795 -0.9284  0.6079  0.9756
 9032TIP3    H248588   3.068   2.003   1.843  0.2716 -0.5378  0.5947
 9033TIP3   OH248589   3.374   3.268   5.524 -0.1567  0.7812 -0.5508
 9033TIP3    H148590   3.342   3.201   5.585 -1.8598  0.6017 -1.5908
 9033TIP3    H248591   3.297   3.294   5.474  0.8919  2.0598 -1.5714
 9034TIP3   OH248592   2.470   4.329  13.908  0.5847 -0.1012  0.5252
 9034TIP3    H148593   2.543   4.301  13.962  1.2825  0.7921  0.0746
 9034TIP3    H248594   2.509   4.384  13.840 -0.3524 -0.6691 -0.5060
 9035TIP3   OH248595   4.822   2.656   1.805 -0.0145  0.1328  0.4928
 9035TIP3    H148596   4.813   2.752   1.800  0.5886  0.1502 -0.6362
 9035TIP3    H248597   4.784   2.624   1.724  0.3072 -0.5544  0.6062
 9036TIP3   OH248598   3.765   6.200   5.223  0.2921 -0.0827 -0.5563
 9036TIP3    H148599   3.823   6.221   5.150  1.4186  1.1513  0.6344
 9036TIP3    H248600   3.680   6.234   5.198  0.8361  0.9754 -1.0122
 9037TIP3   OH248601   5.498   6.097   5.141 -0.1858 -0.0049  0.3721
 9037TIP3    H148602   5.436   6.139   5.081 -0.6239  0.7926  1.3730
 9037TIP3    H248603   5.533   6.023   5.090  1.3743  2.0938 -1.8346
 9038TIP3   OH248604   6.422   0.805  10.400 -0.6559  0.0905 -0.3160
 9038TIP3    H148605   6.378   0.859  10.335 -0.6032  0.0864 -0.3546
 9038TIP3    H248606   6.503   0.776  10.357  0.1043  1.2678  0.2375
 9039TIP3   OH248607   2.792   4.143   0.086  0.3397  0.1974 -0.3638
 9039TIP3    H148608   2.750   4.084   0.149  0.7892 -0.4292 -0.6347
 9039TIP3    H248609   2.878   4.161   0.123  0.3169  0.4480 -0.4286
 9040TIP3   OH248610   1.044   3.467  16.983 -0.0247 -0.3133 -0.5563
 9040TIP3    H148611   1.050   3.534  16.915 -1.3148 -0.3195 -0.7132
 9040TIP3    H248612   1.109   3.401  16.958  0.4654  0.3389 -1.0203
 9041TIP3   OH248613   2.568   4.534  16.308 -0.0414  0.0448  0.0770
 9041TIP3    H148614   2.559   4.447  16.268  0.9405 -0.8485  1.7035
 9041TIP3    H248615   2.478   4.563  16.322 -0.3896 -1.1180  0.3469
 9042TIP3   OH248616   6.743   2.392  16.322  0.0690  0.1989  0.0465
 9042TIP3    H148617   6.677   2.382  16.253 -0.0052  0.7600  0.0352
 9042TIP3    H248618   6.704   2.454  16.384 -0.7541 -1.8442  1.6886
 9043TIP3   OH248619   3.283   0.927   4.707  0.0443  0.0375 -0.4635
 9043TIP3    H148620   3.344   0.999   4.691 -1.4722  1.4617 -0.1356
 9043TIP3    H248621   3.268   0.929   4.801 -0.4871 -0.3064 -0.5384
 9044TIP3   OH248622   2.813   3.830  10.628 -0.2777  0.0463 -0.1141
 9044TIP3    H148623   2.844   3.785  10.550 -1.3022 -1.2951  0.2154
 9044TIP3    H248624   2.784   3.916  10.597  1.3515  0.3898 -0.8104
 9045TIP3   OH248625   2.806   3.770   1.275 -0.3355 -0.5181  0.4938
 9045TIP3    H148626   2.740   3.834   1.297 -1.3596 -1.8599  1.4872
 9045TIP3    H248627   2.867   3.771   1.350  0.5695  0.4054 -0.2211
 9046TIP3   OH248628   5.694   4.970  12.079  0.4946  0.0467  0.6266
 9046TIP3    H148629   5.686   5.038  12.012 -1.3513 -1.0979 -0.4258
 9046TIP3    H248630   5.665   4.890  12.035  1.6810 -1.2565  2.0942
 9047TIP3   OH248631   3.176   4.025   4.014  0.2923 -0.0627 -0.1176
 9047TIP3    H148632   3.152   3.992   4.101  2.7621 -0.5540  0.4495
 9047TIP3    H248633   3.131   4.109   4.008 -1.7695 -1.0383  0.6437
 9048TIP3   OH248634   0.708   0.881  12.251 -0.2383  0.6372  0.2996
 9048TIP3    H148635   0.768   0.942  12.208  0.9130 -0.8008 -0.2221
 9048TIP3    H248636   0.703   0.912  12.342 -1.3673  2.7197 -0.4018
 9049TIP3   OH248637   4.662   3.970   1.455 -0.2693 -0.2238  0.8572
 9049TIP3    H148638   4.627   3.960   1.367  0.4309 -0.6442  0.6145
 9049TIP3    H248639   4.749   4.008   1.442 -0.7240  1.0985  1.4591
 9050TIP3   OH248640   3.191   3.147  13.849 -0.0487  0.5423 -0.4688
 9050TIP3    H148641   3.212   3.090  13.775  0.0547  0.3797 -0.3162
 9050TIP3    H248642   3.251   3.119  13.919 -1.0745 -0.2374  0.1268
 9051TIP3   OH248643   6.192   6.685   0.318  0.6956  0.1196  0.0164
 9051TIP3    H148644   6.249   6.611   0.340  1.8806  0.9301 -0.2571
 9051TIP3    H248645   6.218   6.710   0.229 -0.1745  0.4376 -0.1607
 9052TIP3   OH248646   3.378   0.402   3.189 -0.3457  0.3874  0.2447
 9052TIP3    H148647   3.461   0.389   3.235  0.0742  3.1933  0.4270
 9052TIP3    H248648   3.394   0.474   3.129 -2.0203 -0.5994 -1.5105
 9053TIP3   OH248649   1.599   6.153  11.359  0.0897  0.4283  0.1053
 9053TIP3    H148650   1.624   6.207  11.434 -0.9699  0.1919  0.6528
 9053TIP3    H248651   1.674   6.095  11.346  1.2993  2.0812 -0.5753
 9054TIP3   OH248652   6.795   5.234  17.024 -0.5612  0.1399  0.1306
 9054TIP3    H148653   6.759   5.303  16.968  0.7997  3.4597  2.9941
 9054TIP3    H248654   6.748   5.243  17.106  0.5390 -1.5745  1.0097
 9055TIP3   OH248655   6.378   0.606  13.439 -0.1240 -0.6670 -1.0670
 9055TIP3    H148656   6.456   0.554  13.418 -0.9199 -2.0365 -0.7583
 9055TIP3    H248657   6.335   0.620  13.355  0.6220  0.3956 -1.2839
 9056TIP3   OH248658   0.840   0.006   1.918  0.7515  0.0740  0.2121
 9056TIP3    H148659   0.847  -0.089   1.913  1.2214  0.0928  0.3963
 9056TIP3    H248660   0.760   0.027   1.872  0.4753 -0.4415  0.4465
 9057TIP3   OH248661   2.410   4.166  15.629 -0.3501 -0.2547 -1.0661
 9057TIP3    H148662   2.452   4.103  15.687  1.5874  0.6756 -1.3757
 9057TIP3    H248663   2.320   4.173  15.662  0.4192 -0.4525  1.2518
 9058TIP3   OH248664   4.475   3.554   3.349  0.1941 -0.1933 -0.8745
 9058TIP3    H148665   4.545   3.619   3.350  1.6403 -1.6663  0.9228
 9058TIP3    H248666   4.520   3.470   3.336 -1.2627 -1.1491 -0.0204
 9059TIP3   OH248667   6.846   5.909  14.826  0.4281  0.6297 -0.1974
 9059TIP3    H148668   6.897   5.832  14.849 -0.7428  0.2350  1.2374
 9059TIP3    H248669   6.756   5.887  14.851  0.0042  2.3008 -0.1171
 9060TIP3   OH248670   2.016   4.735   4.891  0.4720 -0.7943 -0.0277
 9060TIP3    H148671   1.974   4.734   4.805  2.3197  0.5889 -1.0300
 9060TIP3    H248672   1.953   4.779   4.948  0.4133  1.0817 -1.4290
 9061TIP3   OH248673   1.568   2.609   1.728 -0.2103  0.3936 -0.2388
 9061TIP3    H148674   1.513   2.649   1.662 -0.2520  0.1593 -0.3479
 9061TIP3    H248675   1.647   2.663   1.731 -0.9747  1.5077  0.8390
 9062TIP3   OH248676   1.282   4.641   6.108 -0.0196 -0.1497 -0.0522
 9062TIP3    H148677   1.371   4.617   6.085 -0.4284 -0.1085 -1.8443
 9062TIP3    H248678   1.271   4.729   6.072 -1.1846 -0.6859 -1.1183
 9063TIP3   OH248679   5.577   0.626  17.031  0.0140  0.0449  0.0524
 9063TIP3    H148680   5.633   0.700  17.008 -0.3958 -0.0045 -1.1920
 9063TIP3    H248681   5.603   0.556  16.971 -0.5182 -0.3880  0.3100
 9064TIP3   OH248682   1.417   0.907  16.237  0.3224 -0.4050  0.0898
 9064TIP3    H148683   1.479   0.908  16.309 -1.0959 -0.1891  1.3607
 9064TIP3    H248684   1.337   0.870  16.274 -0.1383 -1.3129 -1.6661
 9065TIP3   OH248685   4.655   5.089   3.685  0.0003  0.1646 -0.2168
 9065TIP3    H148686   4.580   5.149   3.683 -0.4891 -0.4301 -0.1090
 9065TIP3    H248687   4.683   5.084   3.593  1.5708  2.3915  0.0622
 9066TIP3   OH248688   2.159   2.379  15.463 -0.2746 -0.1002 -0.0895
 9066TIP3    H148689   2.179   2.444  15.395  0.0264  0.5929  0.6481
 9066TIP3    H248690   2.229   2.315  15.457  0.7225  0.8837  0.6980
 9067TIP3   OH248691   1.416   2.095  13.775  0.5799 -0.2424  0.9605
 9067TIP3    H148692   1.395   2.188  13.784  0.4859 -0.2806  1.1539
 9067TIP3    H248693   1.506   2.093  13.744 -0.3035 -0.0343 -1.8636
 9068TIP3   OH248694   4.135   3.433  12.591  0.1115 -0.0484  0.0181
 9068TIP3    H148695   4.197   3.368  12.555 -0.6908 -0.4218 -0.7439
 9068TIP3    H248696   4.071   3.445  12.521 -0.0731  1.1464  0.3831
 9069TIP3   OH248697   6.436   3.023   2.591  0.3118 -0.3471  0.3660
 9069TIP3    H148698   6.504   2.960   2.567 -1.6868 -2.4677 -0.1025
 9069TIP3    H248699   6.445   3.034   2.685  1.4484 -0.3622  0.2749
 9070TIP3   OH248700   5.735   2.829  10.722  0.4057  0.2888 -0.1537
 9070TIP3    H148701   5.658   2.881  10.741  0.1455  0.0576 -0.5644
 9070TIP3    H248702   5.718   2.790  10.636 -1.4983 -4.1209  1.8748
 9071TIP3   OH248703   1.930   3.710   5.491 -0.0716 -0.2389  0.2608
 9071TIP3    H148704   1.984   3.749   5.423 -0.8000 -0.3320 -0.3758
 9071TIP3    H248705   1.982   3.720   5.571 -0.5735  2.8720  0.3348
 9072TIP3   OH248706   0.193   6.115  11.213  0.2055  0.0234 -0.4833
 9072TIP3    H148707   0.278   6.158  11.222 -0.7757  1.7970  1.0073
 9072TIP3    H248708   0.201   6.034  11.263  1.2945 -0.3237 -1.1899
 9073TIP3   OH248709   0.837   6.680  12.338 -1.2286 -0.3679  0.5171
 9073TIP3    H148710   0.775   6.713  12.272  1.6572 -0.1593 -2.2912
 9073TIP3    H248711   0.841   6.586  12.323  0.9189 -0.0833 -1.1150
 9074TIP3   OH248712   0.639   0.810   1.290 -0.0624 -0.2010 -0.0063
 9074TIP3    H148713   0.734   0.822   1.295 -0.1819  1.5433 -0.8666
 9074TIP3    H248714   0.628   0.724   1.249  1.2297  0.4261 -1.8424
 9075TIP3   OH248715   0.756   0.015   0.776  0.0703 -0.2544 -0.3417
 9075TIP3    H148716   0.845  -0.019   0.787  0.0276 -0.3853 -0.4010
 9075TIP3    H248717   0.768   0.099   0.732  0.1175 -0.6050 -1.0152
 9076TIP3   OH248718   6.526   2.682   0.909  0.4846  0.4504  0.3352
 9076TIP3    H148719   6.520   2.720   0.822  0.8234  1.2312  0.6401
 9076TIP3    H248720   6.436   2.685   0.943  0.2988 -0.1371 -0.0927
 9077TIP3   OH248721   4.697   3.338   0.786  0.1591 -0.4502 -0.1957
 9077TIP3    H148722   4.703   3.277   0.712  0.2938  0.5879 -1.0544
 9077TIP3    H248723   4.763   3.306   0.848 -0.7286 -1.9999  0.0070
 9078TIP3   OH248724   2.619   0.555  12.307  0.0748 -0.5068  0.5283
 9078TIP3    H148725   2.646   0.631  12.359 -0.5548 -0.3003  0.5528
 9078TIP3    H248726   2.639   0.580  12.217 -2.2092  0.6284  0.2700
 9079TIP3   OH248727   1.634   4.426  13.923  0.0913  0.0948 -0.3260
 9079TIP3    H148728   1.625   4.509  13.876  0.7492 -0.4885 -1.5362
 9079TIP3    H248729   1.640   4.451  14.015  1.5482  1.5120 -0.7636
 9080TIP3   OH248730   0.899   5.911  15.496  0.3131 -0.0790 -0.7807
 9080TIP3    H148731   0.974   5.944  15.545  0.1187 -2.2892  1.2002
 9080TIP3    H248732   0.936   5.871  15.418  1.1870 -0.7206 -0.0628
 9081TIP3   OH248733   2.664   5.374  14.744  0.1012 -0.7852  0.4779
 9081TIP3    H148734   2.739   5.342  14.694 -0.8495 -3.2673  0.4994
 9081TIP3    H248735   2.702   5.427  14.814  1.5634  1.3119 -1.7598
 9082TIP3   OH248736   3.026   0.968   0.439  0.0340 -0.0318  0.1635
 9082TIP3    H148737   3.046   0.875   0.434 -1.3385 -0.4248  1.4846
 9082TIP3    H248738   3.073   0.999   0.517 -1.4475 -0.1682  1.1376
 9083TIP3   OH248739   4.567   1.887   1.123  0.1558  0.0068  0.1124
 9083TIP3    H148740   4.566   1.978   1.094 -0.0057  0.0404  0.2236
 9083TIP3    H248741   4.482   1.874   1.164  0.0905 -0.2596 -0.1062
 9084TIP3   OH248742   5.472   0.880  10.685 -0.2009  0.2349 -0.7175
 9084TIP3    H148743   5.424   0.833  10.616  1.3617  0.2797 -1.8923
 9084TIP3    H248744   5.522   0.946  10.638 -0.5837  1.5805  0.6968
 9085TIP3   OH248745   4.505   2.163  11.893  0.1978 -0.1889 -0.4072
 9085TIP3    H148746   4.438   2.144  11.828  0.4578 -1.2522 -0.3904
 9085TIP3    H248747   4.582   2.190  11.842  0.1918 -0.3622 -0.5100
 9086TIP3   OH248748   3.576   4.812   1.246  0.1568 -0.0357  0.3051
 9086TIP3    H148749   3.578   4.722   1.215  0.4197 -0.0590  0.3958
 9086TIP3    H248750   3.485   4.840   1.232 -0.0300 -0.4491  0.6777
 9087TIP3   OH248751   4.947   1.192  16.712 -0.2589  0.7934  0.5542
 9087TIP3    H148752   4.913   1.248  16.644  0.5654  1.0279  0.3196
 9087TIP3    H248753   5.031   1.232  16.737  0.0792 -0.0196  0.7666
 9088TIP3   OH248754   4.756   1.481   5.686 -0.3597 -0.1483 -0.5430
 9088TIP3    H148755   4.822   1.415   5.706 -0.5057 -0.2910 -0.5293
 9088TIP3    H248756   4.781   1.557   5.739  1.2658  0.7130 -2.3975
 9089TIP3   OH248757   3.059   5.230  12.920  0.2699  0.1029  0.1291
 9089TIP3    H148758   3.083   5.305  12.974  1.2569 -0.7023  0.8369
 9089TIP3    H248759   3.138   5.208  12.871  0.1731 -0.8135  0.3570
 9090TIP3   OH248760   1.451   5.829  14.141  0.6688  0.7880 -0.0352
 9090TIP3    H148761   1.430   5.911  14.098 -0.9599  0.8429  0.7961
 9090TIP3    H248762   1.459   5.851  14.234 -0.4068 -0.0597  0.2830
 9091TIP3   OH248763   4.103   3.538  15.424 -0.4321  0.7946  0.0359
 9091TIP3    H148764   4.150   3.586  15.355  0.8687  1.4402  1.3312
 9091TIP3    H248765   4.087   3.604  15.492  0.5256 -0.3753  1.4314
 9092TIP3   OH248766   3.654   1.864   3.325  0.3836  0.1837 -0.6031
 9092TIP3    H148767   3.587   1.932   3.320  2.9476  2.8934 -1.5246
 9092TIP3    H248768   3.623   1.796   3.266 -1.0332  1.8941 -1.9641
 9093TIP3   OH248769   1.442   3.474  12.541 -0.3379 -0.6518  0.0081
 9093TIP3    H148770   1.525   3.515  12.565 -0.2280 -0.2324 -1.0446
 9093TIP3    H248771   1.379   3.508  12.605  0.4830 -1.8069  1.4858
 9094TIP3   OH248772   2.629   5.677  13.744 -0.7158  0.1202  0.4835
 9094TIP3    H148773   2.618   5.590  13.784 -2.2524  0.4450  0.8322
 9094TIP3    H248774   2.599   5.665  13.654 -2.5595  0.6325  0.9839
 9095TIP3   OH248775   6.733   1.627  14.878 -0.6030 -0.3271 -0.5348
 9095TIP3    H148776   6.779   1.709  14.859 -0.2730 -0.8496 -2.1000
 9095TIP3    H248777   6.802   1.562  14.889 -0.8965 -0.7259 -0.9950
 9096TIP3   OH248778   0.464   5.381  14.744  0.6962 -0.2397  0.0430
 9096TIP3    H148779   0.467   5.470  14.710  0.7476 -0.6402 -1.0274
 9096TIP3    H248780   0.484   5.390  14.837  0.2862  0.9094  0.0359
 9097TIP3   OH248781   2.739   1.412   0.075  0.3090  0.2440 -0.2821
 9097TIP3    H148782   2.814   1.408   0.016  0.5199 -2.4014  0.0257
 9097TIP3    H248783   2.776   1.429   0.161  0.5882 -0.9067 -0.1570
 9098TIP3   OH248784   2.368   4.613   2.301  0.4249  0.5868  0.3285
 9098TIP3    H148785   2.412   4.651   2.225 -1.1150  1.9198  0.0428
 9098TIP3    H248786   2.437   4.567   2.348  1.7766  1.2442 -0.9239
 9099TIP3   OH248787   0.803   2.955  11.353 -0.2751 -0.7919  0.7779
 9099TIP3    H148788   0.874   3.004  11.394 -0.3856 -0.3975  0.4945
 9099TIP3    H248789   0.842   2.871  11.331  0.2956 -0.3268 -0.0079
 9100TIP3   OH248790   4.214   6.369  12.625  0.0725 -0.3011 -0.4119
 9100TIP3    H148791   4.148   6.300  12.637  0.0855 -0.4358 -1.0742
 9100TIP3    H248792   4.165   6.451  12.635  0.1970 -0.3889  1.1409
 9101TIP3   OH248793   1.503   0.625  15.088  0.4610  0.1026 -0.0426
 9101TIP3    H148794   1.524   0.534  15.067 -2.6803 -0.4950 -1.2176
 9101TIP3    H248795   1.548   0.641  15.171  1.3311 -2.4226  0.0750
 9102TIP3   OH248796   2.798   4.198   3.519  0.7409 -0.3223 -0.0358
 9102TIP3    H148797   2.728   4.141   3.551  0.1379  0.7712  0.6351
 9102TIP3    H248798   2.789   4.196   3.424  1.8893 -2.7674 -0.1834
 9103TIP3   OH248799   4.102   5.194   3.590  0.2216 -0.2981  0.4587
 9103TIP3    H148800   4.127   5.114   3.544  0.8300 -0.6622  1.3907
 9103TIP3    H248801   4.175   5.254   3.574 -0.5053  0.3013 -0.7376
 9104TIP3   OH248802   3.498   6.628  11.229 -0.1504  0.1123 -0.2934
 9104TIP3    H148803   3.456   6.694  11.173 -1.4822  0.6764  1.2574
 9104TIP3    H248804   3.591   6.636  11.210 -0.5348  0.4393 -2.2153
 9105TIP3   OH248805   3.570   4.958  16.591 -0.2834 -0.3630  0.2165
 9105TIP3    H148806   3.610   4.873  16.606 -1.0455 -0.7012  0.4048
 9105TIP3    H248807   3.514   4.945  16.514 -0.1717  0.0471  0.0624
 9106TIP3   OH248808   4.326   3.803  16.950 -0.1012 -0.2119 -0.3438
 9106TIP3    H148809   4.386   3.813  17.024  0.0438  2.3947 -0.7170
 9106TIP3    H248810   4.368   3.853  16.879 -2.5342  1.4868 -0.7071
 9107TIP3   OH248811   2.057   5.296  16.600  0.4020  0.1636  0.6022
 9107TIP3    H148812   2.114   5.361  16.641 -1.2451  1.8474  0.3018
 9107TIP3    H248813   2.050   5.323  16.509 -0.7161 -0.1298  0.5841
 9108TIP3   OH248814   1.782   4.107   5.635  0.4125  0.6210  0.0135
 9108TIP3    H148815   1.748   4.075   5.552 -3.2283 -0.3712  1.6628
 9108TIP3    H248816   1.843   4.177   5.611  0.9749 -0.8661 -3.4574
 9109TIP3   OH248817   4.551   4.852   0.532 -0.0134 -0.3156 -0.2767
 9109TIP3    H148818   4.489   4.808   0.590  1.2201 -0.0109  1.3699
 9109TIP3    H248819   4.516   4.940   0.521  0.1950 -0.0824  0.8118
 9110TIP3   OH248820   6.817   1.212  12.612  0.3324 -0.5333  0.0258
 9110TIP3    H148821   6.833   1.121  12.640 -2.1057 -2.1402 -3.0958
 9110TIP3    H248822   6.905   1.246  12.594  1.2998 -2.6389  0.3384
 9111TIP3   OH248823   2.989   5.989  11.453  0.1345  0.0584  0.5378
 9111TIP3    H148824   2.926   5.960  11.387 -0.6464  0.5573  1.0379
 9111TIP3    H248825   3.019   6.074  11.423  1.3325 -0.5946 -0.1946
 9112TIP3   OH248826   5.284   6.069   2.672  0.2481  0.1903 -0.5241
 9112TIP3    H148827   5.195   6.036   2.687 -0.2830  1.5261 -0.6449
 9112TIP3    H248828   5.313   6.022   2.594  0.3458 -1.5644  0.5111
 9113TIP3   OH248829   1.804   6.173   3.932 -0.8576 -0.0545  0.1921
 9113TIP3    H148830   1.806   6.128   4.016 -0.5338  0.7748  0.6458
 9113TIP3    H248831   1.889   6.216   3.926 -1.3006  0.8115 -0.0323
 9114TIP3   OH248832   6.301   4.241  15.688  0.1674  0.8279  0.4877
 9114TIP3    H148833   6.247   4.312  15.653 -1.2943 -0.6744 -0.4574
 9114TIP3    H248834   6.240   4.188  15.740  1.3388  0.5252  1.6104
 9115TIP3   OH248835   0.117   6.357  17.116 -0.4470  0.2064 -0.2430
 9115TIP3    H148836   0.157   6.417  17.052 -1.9618 -0.9412 -2.4046
 9115TIP3    H248837   0.167   6.275  17.106  1.2290  0.7934  2.2746
 9116TIP3   OH248838   4.804   3.207   2.545  0.5478 -0.1785  0.3272
 9116TIP3    H148839   4.827   3.293   2.580 -0.0644 -0.7314  2.2150
 9116TIP3    H248840   4.885   3.156   2.549  0.9830  0.3664 -1.0694
 9117TIP3   OH248841   5.088   2.125  11.531  0.0669 -0.1066 -0.3719
 9117TIP3    H148842   5.001   2.114  11.568  0.4215 -0.4975  0.3537
 9117TIP3    H248843   5.147   2.084  11.594  0.8462  0.7199 -0.5391
 9118TIP3   OH248844   4.558   0.795  15.876 -0.2921 -0.0165  0.0231
 9118TIP3    H148845   4.556   0.848  15.796 -0.5474  0.7077  0.5031
 9118TIP3    H248846   4.633   0.737  15.864  0.2855  0.7860 -0.2997
 9119TIP3   OH248847   2.407   3.259  16.098 -0.4505 -0.0745  0.0187
 9119TIP3    H148848   2.470   3.226  16.163  0.6339  2.2517  0.2432
 9119TIP3    H248849   2.457   3.322  16.046 -2.4820  1.5986 -0.0307
 9120TIP3   OH248850   2.901   4.279   2.447  0.0058 -0.7735  0.1690
 9120TIP3    H148851   2.949   4.225   2.385  0.3362 -0.1670 -0.1158
 9120TIP3    H248852   2.889   4.223   2.523 -1.2551 -1.8624 -0.7855
 9121TIP3   OH248853   0.113   2.556  11.536  0.1257  0.3520 -0.6672
 9121TIP3    H148854   0.094   2.470  11.574  1.9054 -0.3275 -1.1980
 9121TIP3    H248855   0.075   2.551  11.448  0.8722 -0.2212 -0.9790
 9122TIP3   OH248856   5.147   2.919  16.197  0.5354 -0.6279 -0.7906
 9122TIP3    H148857   5.174   3.011  16.194  0.3170 -0.5564 -0.5168
 9122TIP3    H248858   5.145   2.892  16.105 -0.6836  0.0055 -0.9664
 9123TIP3   OH248859   5.012   0.459  12.554  0.2165  0.4898 -0.2414
 9123TIP3    H148860   5.074   0.477  12.483  0.0076 -0.5023 -0.6955
 9123TIP3    H248861   4.932   0.505  12.528  1.1538  3.0290  1.0716
 9124TIP3   OH248862   5.929   4.417   6.372 -0.0065 -0.2215  0.0073
 9124TIP3    H148863   5.850   4.385   6.328 -0.9619  0.6721  1.0105
 9124TIP3    H248864   6.001   4.380   6.322 -1.0352  0.4867 -2.1369
 9125TIP3   OH248865   2.877   4.358   1.602 -0.3623  0.3702  0.8307
 9125TIP3    H148866   2.886   4.380   1.695 -0.9866  0.4981  0.8693
 9125TIP3    H248867   2.871   4.262   1.602 -0.0318  0.3477  0.8892
 9126TIP3   OH248868   2.913   0.082  12.144  0.1678 -0.4487  0.2659
 9126TIP3    H148869   2.998   0.047  12.118  0.2142 -1.8963  2.1332
 9126TIP3    H248870   2.921   0.177  12.132  0.9629 -0.8025 -2.4448
 9127TIP3   OH248871   0.673   1.679   4.169  0.5018 -0.2100 -0.5703
 9127TIP3    H148872   0.618   1.619   4.118  0.0824 -1.8161  1.6109
 9127TIP3    H248873   0.612   1.720   4.230  1.5557 -1.7683  1.6772
 9128TIP3   OH248874   3.549   3.851  13.152  0.0954  0.1762 -0.1360
 9128TIP3    H148875   3.485   3.899  13.203 -1.0094  0.5286 -1.7665
 9128TIP3    H248876   3.618   3.915  13.133 -0.3160  0.5208 -0.4866
 9129TIP3   OH248877   3.914   4.462   5.664  0.4050  0.3045 -0.8436
 9129TIP3    H148878   4.009   4.470   5.672  0.4558 -0.7996  0.0289
 9129TIP3    H248879   3.883   4.458   5.754 -0.7148  2.7075 -1.0592
 9130TIP3   OH248880   3.985   4.471  15.508  0.1642  0.0511 -0.0728
 9130TIP3    H148881   3.931   4.487  15.586  0.6943 -1.2760  0.6063
 9130TIP3    H248882   3.938   4.403  15.460  1.1679 -1.1382  0.5380
 9131TIP3   OH248883   4.256   3.673  14.878  0.0118 -0.0889  0.8282
 9131TIP3    H148884   4.280   3.582  14.898 -2.0291 -1.1531 -1.1076
 9131TIP3    H248885   4.205   3.702  14.953  0.8802 -0.4524  1.5689
 9132TIP3   OH248886   2.046   1.748   1.987  0.2197 -0.2424  0.7531
 9132TIP3    H148887   2.009   1.714   2.069 -0.7396  0.3841  0.6011
 9132TIP3    H248888   1.970   1.759   1.929  0.9321 -1.0667 -0.3766
 9133TIP3   OH248889   2.736   6.810   4.319  0.0994  0.2993  0.1544
 9133TIP3    H148890   2.769   6.898   4.337  0.3222  0.7252 -2.0863
 9133TIP3    H248891   2.808   6.752   4.343 -0.3837  0.5819  2.5554
 9134TIP3   OH248892   5.593   5.751  16.592 -0.0316  0.4520  0.5050
 9134TIP3    H148893   5.509   5.781  16.557  0.6070  0.3487 -1.2115
 9134TIP3    H248894   5.570   5.679  16.651 -1.0948 -0.6139 -1.1016
 9135TIP3   OH248895   4.872   0.952   1.502  0.6493 -0.6863  0.1005
 9135TIP3    H148896   4.878   0.982   1.411 -0.1966 -2.6630 -0.6861
 9135TIP3    H248897   4.938   0.883   1.508 -1.2618 -2.6361  0.0073
 9136TIP3   OH248898   6.742   2.554  16.924 -0.1139  0.6451 -0.0369
 9136TIP3    H148899   6.678   2.529  16.990  1.3205 -1.2494  0.7247
 9136TIP3    H248900   6.813   2.594  16.974  0.1520  0.9778 -0.6710
 9137TIP3   OH248901   1.186   4.907  14.044 -0.9291 -0.0241 -0.1540
 9137TIP3    H148902   1.175   4.814  14.068  0.1594 -0.0427  0.3436
 9137TIP3    H248903   1.097   4.938  14.029 -1.2240 -1.5384 -1.8736
 9138TIP3   OH248904   6.502   6.165   4.311 -0.3514  0.2474  0.8805
 9138TIP3    H148905   6.507   6.224   4.235  1.2244  0.0220  0.7864
 9138TIP3    H248906   6.503   6.077   4.273 -1.1933  0.1240  1.1062
 9139TIP3   OH248907   0.346   2.190   5.966 -0.5220 -0.4061  0.0656
 9139TIP3    H148908   0.351   2.256   6.034  0.4777 -1.6693  1.2792
 9139TIP3    H248909   0.274   2.132   5.994 -1.3780  0.1123 -0.9704
 9140TIP3   OH248910   1.991   5.399   4.380 -0.0631  0.0387  0.2665
 9140TIP3    H148911   2.031   5.408   4.466  1.1232 -2.9946  0.1539
 9140TIP3    H248912   1.905   5.440   4.389 -0.2751 -0.8367  3.1216
 9141TIP3   OH248913   6.831   2.599   6.388 -0.2774 -0.0116  0.6337
 9141TIP3    H148914   6.907   2.574   6.442  0.2103  0.4977  0.2009
 9141TIP3    H248915   6.825   2.694   6.398  0.4334  0.2302 -0.9715
 9142TIP3   OH248916   3.939   6.171   5.587 -0.4083  0.2337 -0.1188
 9142TIP3    H148917   3.976   6.152   5.672 -1.0929  0.3225  0.2107
 9142TIP3    H248918   3.990   6.118   5.525  1.0647  1.2843  0.1480
 9143TIP3   OH248919   0.706   2.555  13.948 -0.4626  0.2394 -0.2899
 9143TIP3    H148920   0.752   2.488  13.898 -2.3388  0.8027 -3.0106
 9143TIP3    H248921   0.648   2.506  14.007  0.8239 -0.4657  0.4186
 9144TIP3   OH248922   0.096   1.264  13.401 -0.6498  0.0909 -0.0541
 9144TIP3    H148923   0.091   1.332  13.333  0.1495 -0.1471 -0.3706
 9144TIP3    H248924   0.069   1.184  13.356  1.7516 -0.4592 -0.7082
 9145TIP3   OH248925   2.681   5.282  16.592 -0.6335  0.1446  0.3935
 9145TIP3    H148926   2.643   5.218  16.652 -1.8287  0.1911 -0.2994
 9145TIP3    H248927   2.762   5.241  16.562  0.2149  0.2862  2.3098
 9146TIP3   OH248928   1.096   3.130   3.597 -0.4177  0.2916  0.8175
 9146TIP3    H148929   1.131   3.106   3.511 -1.5510 -0.2836  0.4857
 9146TIP3    H248930   1.172   3.152   3.650  0.2764  0.8910 -0.4120
 9147TIP3   OH248931   2.963   1.840   3.548  0.0687  0.1684 -0.1125
 9147TIP3    H148932   2.910   1.919   3.551  0.1248  0.3538 -2.4815
 9147TIP3    H248933   3.003   1.835   3.635 -1.0817  1.9108  0.5725
 9148TIP3   OH248934   3.131   3.358  16.783 -0.3535 -0.3299 -0.0803
 9148TIP3    H148935   3.079   3.360  16.864  0.1603 -1.0551  0.2829
 9148TIP3    H248936   3.095   3.285  16.733 -1.8291  1.1719 -1.3363
 9149TIP3   OH248937   2.416   2.072  15.348 -0.1470 -0.2101 -0.0359
 9149TIP3    H148938   2.378   2.060  15.436  0.4540 -1.3325  0.0886
 9149TIP3    H248939   2.371   2.008  15.294  0.6940 -0.7104 -0.1592
 9150TIP3   OH248940   4.863   3.740   4.618  0.0333  0.3578 -0.1324
 9150TIP3    H148941   4.865   3.655   4.664 -1.5056 -1.1893 -2.6777
 9150TIP3    H248942   4.786   3.784   4.655  0.7587  0.6326  1.1118
 9151TIP3   OH248943   0.790   0.681  14.163 -0.3250  0.5211  0.1256
 9151TIP3    H148944   0.697   0.673  14.182 -0.3421  1.8819  0.7676
 9151TIP3    H248945   0.795   0.745  14.093  0.1479  0.8944  0.4921
 9152TIP3   OH248946   3.013   1.271   5.429 -0.1963 -0.2516 -0.1208
 9152TIP3    H148947   3.104   1.300   5.428 -0.5863  1.0540 -1.0236
 9152TIP3    H248948   2.998   1.233   5.343 -0.9137  1.0351 -0.6030
 9153TIP3   OH248949   3.914   2.107  12.318 -1.1217  0.2380  0.0905
 9153TIP3    H148950   3.951   2.044  12.380 -1.9494 -0.7560 -0.3928
 9153TIP3    H248951   3.979   2.113  12.248 -1.2289 -0.4306 -0.0749
 9154TIP3   OH248952   3.006   6.786   2.527 -0.7997 -0.3366 -0.8071
 9154TIP3    H148953   2.929   6.821   2.483 -0.6778  0.7217 -0.2169
 9154TIP3    H248954   2.998   6.818   2.617  0.2039 -0.3971 -0.6852
 9155TIP3   OH248955   2.377   4.262   3.812  0.1627 -0.5535  1.2781
 9155TIP3    H148956   2.449   4.230   3.757  0.5175  2.2047 -0.0153
 9155TIP3    H248957   2.408   4.345   3.846 -2.4424  0.8448  0.5126
 9156TIP3   OH248958   3.897   4.196   2.538 -0.1114 -0.2250 -0.3087
 9156TIP3    H148959   3.808   4.165   2.518 -0.3775  0.7559 -0.6902
 9156TIP3    H248960   3.885   4.287   2.566  0.6711 -0.3974  0.6351
 9157TIP3   OH248961   4.090   1.044  16.670  0.0643  0.0877 -0.2471
 9157TIP3    H148962   4.161   1.018  16.611 -0.3198  0.4198 -0.8497
 9157TIP3    H248963   4.039   0.964  16.683  1.1407 -0.4419  1.0503
 9158TIP3   OH248964   6.720   0.497   4.401 -0.1963  0.0063  0.9032
 9158TIP3    H148965   6.721   0.476   4.495 -0.1272 -1.3807  0.6246
 9158TIP3    H248966   6.712   0.411   4.358  1.0155  0.5015 -0.3940
 9159TIP3   OH248967   6.060   2.389  16.678 -0.0523 -0.2820  0.1691
 9159TIP3    H148968   6.055   2.359  16.588 -3.7633 -1.5681  0.6176
 9159TIP3    H248969   6.117   2.466  16.675  0.4144 -0.6177 -3.1298
 9160TIP3   OH248970   3.925   2.438  15.132  0.7079 -0.4774 -0.1339
 9160TIP3    H148971   4.011   2.436  15.092  0.9818 -0.1914  0.4241
 9160TIP3    H248972   3.942   2.455  15.225  0.0654 -0.6125  0.0164
 9161TIP3   OH248973   4.822   4.872  11.125 -0.3780  0.1069 -0.3912
 9161TIP3    H148974   4.812   4.866  11.030 -0.2926 -2.7649 -0.3142
 9161TIP3    H248975   4.732   4.874  11.158 -0.4243 -0.0034 -0.5076
 9162TIP3   OH248976   2.428   0.707  11.829  0.6093  0.7081  0.1020
 9162TIP3    H148977   2.521   0.718  11.812  1.0782 -0.6426  1.5059
 9162TIP3    H248978   2.413   0.613  11.822 -0.5902  0.8713  0.2112
 9163TIP3   OH248979   2.096   6.069   5.741 -0.6675  0.4162  0.3833
 9163TIP3    H148980   2.162   6.013   5.700 -0.0900  0.6911  0.9228
 9163TIP3    H248981   2.101   6.050   5.834 -0.8097  1.0026  0.5195
 9164TIP3   OH248982   2.462   0.700  16.725 -0.3039 -1.0928 -0.6406
 9164TIP3    H148983   2.428   0.725  16.639  0.8637  0.5136 -0.6876
 9164TIP3    H248984   2.557   0.709  16.716 -0.1071 -1.7981  0.5663
 9165TIP3   OH248985   0.790   1.819  16.536  0.6246 -0.1429 -0.7061
 9165TIP3    H148986   0.754   1.851  16.453  0.1450  0.0704 -0.4137
 9165TIP3    H248987   0.830   1.735  16.513 -0.2980 -0.5141 -0.9725
 9166TIP3   OH248988   4.866   4.159  12.950 -0.0627 -0.3520  0.1001
 9166TIP3    H148989   4.867   4.063  12.958  2.4448 -0.4977 -0.9501
 9166TIP3    H248990   4.796   4.176  12.887 -0.3533 -1.5209  0.0770
 9167TIP3   OH248991   4.428   1.999   6.180 -0.6839 -0.2177 -0.0280
 9167TIP3    H148992   4.364   1.978   6.112 -4.1879 -3.0597  3.7104
 9167TIP3    H248993   4.392   2.076   6.224 -0.2424 -0.3818  0.6354
 9168TIP3   OH248994   5.076   2.903   0.469  0.0070  0.2939 -0.2399
 9168TIP3    H148995   5.154   2.944   0.506  0.1766 -0.4460  0.2486
 9168TIP3    H248996   5.101   2.879   0.380  0.1614  0.5278 -0.2608
 9169TIP3   OH248997   4.370   5.284  13.237 -0.3408 -0.1329  0.0473
 9169TIP3    H148998   4.356   5.261  13.145 -1.5749  0.6765  0.0050
 9169TIP3    H248999   4.348   5.204  13.285 -1.5371 -0.0230 -0.2768
 9170TIP3   OH249000   4.876   0.718  12.847 -0.2451 -0.5720  0.3355
 9170TIP3    H149001   4.817   0.770  12.793 -0.5286  2.2195  3.0098
 9170TIP3    H249002   4.964   0.747  12.823 -0.3995  1.3147  1.7789
 9171TIP3   OH249003   5.357   1.485   2.446 -0.0445 -0.2375 -0.3643
 9171TIP3    H149004   5.372   1.416   2.512  0.4613  1.6790  1.6501
 9171TIP3    H249005   5.443   1.524   2.433 -0.7780  1.9781  0.9203
 9172TIP3   OH249006   6.404   3.510  16.609 -0.5546  0.2423 -0.0271
 9172TIP3    H149007   6.407   3.415  16.624 -0.7581  0.4940  1.7562
 9172TIP3    H249008   6.452   3.522  16.527  1.0521 -1.2419  0.6209
 9173TIP3   OH249009   2.085   2.739   2.794 -0.1393  0.2058  0.3670
 9173TIP3    H149010   2.165   2.724   2.744 -0.4270  1.1642 -0.4105
 9173TIP3    H249011   2.060   2.652   2.826 -0.6197 -0.7085 -2.2200
 9174TIP3   OH249012   0.865   1.271   5.111 -0.0707  0.0859  0.3336
 9174TIP3    H149013   0.818   1.340   5.157  0.4348  0.9468 -0.4252
 9174TIP3    H249014   0.872   1.200   5.175 -2.8756 -0.3225  0.3466
 9175TIP3   OH249015   2.855   6.848   2.776  0.0327 -0.1169  0.3315
 9175TIP3    H149016   2.837   6.838   2.870 -0.7568  1.5037  0.3752
 9175TIP3    H249017   2.770   6.866   2.737  0.6262  1.2777 -0.3952
 9176TIP3   OH249018   2.601   1.353  15.210  0.1451  0.2439  0.3176
 9176TIP3    H149019   2.512   1.366  15.176  0.8294 -0.0427 -1.6561
 9176TIP3    H249020   2.656   1.409  15.157  1.5310 -1.7204 -0.4444
 9177TIP3   OH249021   6.798   6.310  16.654 -0.1414 -0.3992 -0.1238
 9177TIP3    H149022   6.793   6.366  16.732  1.9713  0.4909 -0.5423
 9177TIP3    H249023   6.786   6.371  16.581  3.8154  0.0076 -0.6691
 9178TIP3   OH249024   2.174   0.891   2.748 -0.4583  0.1875 -0.3662
 9178TIP3    H149025   2.212   0.880   2.835 -0.5302  0.8211 -0.2547
 9178TIP3    H249026   2.120   0.969   2.754  0.1801  0.7239 -1.1925
 9179TIP3   OH249027   2.403   6.555  11.987  0.0718  0.3532  0.4469
 9179TIP3    H149028   2.408   6.617  11.914  0.4790  1.6244  1.4996
 9179TIP3    H249029   2.459   6.594  12.055 -0.4148 -0.7014  1.4909
 9180TIP3   OH249030   2.515   4.520  14.801 -0.1689 -0.6086 -0.1011
 9180TIP3    H149031   2.468   4.599  14.828 -0.4678 -0.6281 -0.5520
 9180TIP3    H249032   2.470   4.449  14.848  1.1673 -0.3649  1.6479
 9181TIP3   OH249033   3.647   0.465  14.745 -0.3292  0.3018  0.1275
 9181TIP3    H149034   3.599   0.391  14.708 -1.2592  1.3543 -0.8937
 9181TIP3    H249035   3.684   0.509  14.669  2.7684 -0.7321  0.9165
 9182TIP3   OH249036   1.548   4.758  14.704 -0.0558 -0.1233 -0.1097
 9182TIP3    H149037   1.532   4.700  14.779 -1.1170 -0.0170 -0.2503
 9182TIP3    H249038   1.567   4.698  14.631 -2.9413 -0.4336 -0.7062
 9183TIP3   OH249039   2.768   0.631  11.402  0.0993  0.0434  0.1108
 9183TIP3    H149040   2.747   0.563  11.466 -0.5528 -1.7439 -1.8829
 9183TIP3    H249041   2.688   0.682  11.393  0.1373  0.1868  0.5736
 9184TIP3   OH249042   4.686   0.846  12.682 -0.1255  0.6646  0.2367
 9184TIP3    H149043   4.743   0.906  12.635  1.5504 -0.8452  0.2316
 9184TIP3    H249044   4.612   0.831  12.623  1.5534 -0.5962 -1.6484
 9185TIP3   OH249045   1.472   1.293  15.405 -0.3228 -0.2107 -0.1262
 9185TIP3    H149046   1.462   1.296  15.500 -0.8226  1.6327 -0.2030
 9185TIP3    H249047   1.392   1.332  15.370 -0.4705 -1.5083 -1.3481
 9186TIP3   OH249048   4.466   5.477   1.750 -0.0992 -1.4046 -0.2995
 9186TIP3    H149049   4.528   5.453   1.681  1.0291 -3.8295  1.4011
 9186TIP3    H249050   4.519   5.484   1.829 -1.5109  0.2224  0.5748
 9187TIP3   OH249051   6.128   0.481   1.660 -0.3442 -0.5506  0.0127
 9187TIP3    H149052   6.157   0.505   1.747  0.7331  0.6482 -0.6445
 9187TIP3    H249053   6.200   0.429   1.624  0.4364  1.1699 -1.0786
 9188TIP3   OH249054   0.480   0.661   5.514  0.2833 -0.5662  0.4420
 9188TIP3    H149055   0.514   0.748   5.490 -0.1782 -0.6097 -0.4055
 9188TIP3    H249056   0.553   0.620   5.560  0.2905  0.5035  1.4501
 9189TIP3   OH249057   2.923   4.971  15.192 -0.0611  0.0894  0.1263
 9189TIP3    H149058   2.893   5.051  15.149 -1.3158 -1.2678 -1.6863
 9189TIP3    H249059   2.867   4.962  15.269  1.2825  1.8210  1.3917
 9190TIP3   OH249060   6.485   0.598  11.201  0.3801  0.1532 -0.4337
 9190TIP3    H149061   6.574   0.587  11.166  0.8973 -0.8187  1.0861
 9190TIP3    H249062   6.483   0.688  11.232  1.0763 -0.0110  0.1154
 9191TIP3   OH249063   4.404   0.634   0.167 -0.2301 -0.5687 -0.0831
 9191TIP3    H149064   4.385   0.541   0.155  0.9866 -1.5520  4.0954
 9191TIP3    H249065   4.500   0.639   0.174 -0.2940  0.9214  0.2072
 9192TIP3   OH249066   2.257   4.611  15.991  0.3651  0.3590 -0.0909
 9192TIP3    H149067   2.273   4.540  15.930  1.1877  0.1870  0.3046
 9192TIP3    H249068   2.345   4.643  16.014  0.1016  0.1196  1.3375
 9193TIP3   OH249069   6.799   3.689  16.864  0.3178  0.2590  0.2364
 9193TIP3    H149070   6.717   3.734  16.844  1.1220  2.5355  1.6812
 9193TIP3    H249071   6.806   3.621  16.797 -1.6730  1.3886 -1.2218
 9194TIP3   OH249072   3.293   5.599  16.373 -0.3249  0.3381  0.6117
 9194TIP3    H149073   3.339   5.610  16.456 -0.5477  2.3398  0.5143
 9194TIP3    H249074   3.205   5.631  16.390 -0.9254 -0.9257  0.0556
 9195TIP3   OH249075   1.294   4.117   4.144  0.8217 -0.4442  0.1073
 9195TIP3    H149076   1.234   4.161   4.085  3.0297  1.3742 -0.9580
 9195TIP3    H249077   1.278   4.157   4.230  1.2810  0.8816 -0.4034
 9196TIP3   OH249078   0.843   2.589  16.126  0.5444 -0.0487  0.0966
 9196TIP3    H149079   0.776   2.657  16.137  1.3273  0.4221  2.3678
 9196TIP3    H249080   0.795   2.507  16.141 -0.1321  0.0257 -1.4112
 9197TIP3   OH249081   6.185   5.964   4.459  0.1583 -0.1606 -0.4992
 9197TIP3    H149082   6.187   5.959   4.364 -1.6429 -0.0486 -0.5735
 9197TIP3    H249083   6.215   6.053   4.479  1.1549 -0.3902 -0.8994
 9198TIP3   OH249084   4.778   5.095   1.131 -0.6982  0.3521  0.1893
 9198TIP3    H149085   4.768   5.000   1.126  2.3183 -0.2088  2.2438
 9198TIP3    H249086   4.800   5.122   1.042  0.2092 -1.1975 -0.0905
 9199TIP3   OH249087   4.946   4.761   5.522  0.2033  0.1849 -0.2451
 9199TIP3    H149088   4.952   4.848   5.483 -1.9427 -0.8977 -3.3388
 9199TIP3    H249089   5.000   4.706   5.465 -1.1027 -1.0549 -0.3389
 9200TIP3   OH249090   6.646   5.499   2.132  0.4348 -0.0822 -0.2491
 9200TIP3    H149091   6.728   5.452   2.116  0.2341 -0.1826 -1.0305
 9200TIP3    H249092   6.644   5.513   2.227  1.4583  0.1249 -0.2515
 9201TIP3   OH249093   3.454   2.498  12.442 -0.2771 -0.2448  0.5067
 9201TIP3    H149094   3.418   2.423  12.395 -1.4729 -0.3049  1.4734
 9201TIP3    H249095   3.404   2.573  12.410  0.4553  0.0590  0.0398
 9202TIP3   OH249096   3.629   3.115   5.409  0.1332  0.1423 -0.0334
 9202TIP3    H149097   3.578   3.035   5.392  1.3994 -0.4645 -1.1886
 9202TIP3    H249098   3.567   3.174   5.452 -1.1456 -1.0628 -0.1325
 9203TIP3   OH249099   3.865   4.798  15.217  0.5318 -0.0316  0.3112
 9203TIP3    H149100   3.822   4.824  15.135 -2.9183  0.8783  2.1984
 9203TIP3    H249101   3.924   4.871  15.236 -0.6618  1.0957 -0.0838
 9204TIP3   OH249102   4.927   2.991   5.300  0.3206 -0.1758  0.6052
 9204TIP3    H149103   4.877   3.024   5.375  1.7449  0.8619  1.1643
 9204TIP3    H249104   4.955   3.069   5.253  1.1725 -0.7181  0.1738
 9205TIP3   OH249105   6.371   6.458  14.298 -0.4263 -0.4204 -0.7414
 9205TIP3    H149106   6.446   6.503  14.336 -0.3370 -0.0015 -1.3974
 9205TIP3    H249107   6.326   6.526  14.247 -2.0208 -0.3155  0.7295
 9206TIP3   OH249108   4.625   2.492  14.829 -0.5331  0.3241 -0.0790
 9206TIP3    H149109   4.706   2.541  14.815 -0.7494  0.8453  0.4532
 9206TIP3    H249110   4.594   2.471  14.740 -0.3522  1.0122 -0.3123
 9207TIP3   OH249111   3.574   4.926  13.815  0.1776  0.4164  0.1304
 9207TIP3    H149112   3.594   4.836  13.838  0.0512  0.2017 -0.5999
 9207TIP3    H249113   3.657   4.965  13.790 -0.2330 -0.4930 -2.9675
 9208TIP3   OH249114   4.767   4.719  15.955  0.0148  0.0300  0.2654
 9208TIP3    H149115   4.805   4.653  15.898  1.2069  0.6668  0.2916
 9208TIP3    H249116   4.832   4.733  16.024  0.9996  2.9597 -1.0718
 9209TIP3   OH249117   0.174   0.656  16.957  0.1223 -0.3738  0.0286
 9209TIP3    H149118   0.136   0.610  17.033  0.0746  0.2556  0.3963
 9209TIP3    H249119   0.098   0.695  16.913  0.3102  0.8469  0.7346
 9210TIP3   OH249120   2.060   1.304   0.857 -0.2735 -0.1468  0.2390
 9210TIP3    H149121   2.103   1.302   0.772 -0.4160 -0.5132  0.1735
 9210TIP3    H249122   2.100   1.378   0.902 -0.3945  0.2183 -0.2465
 9211TIP3   OH249123   6.509   3.666  11.352 -0.1765  0.0754 -0.1817
 9211TIP3    H149124   6.495   3.601  11.284  0.2941  0.8144 -1.0055
 9211TIP3    H249125   6.457   3.636  11.426  1.0414 -1.9266 -0.0754
 9212TIP3   OH249126   6.310   3.328  12.776  0.0143 -0.1255  0.0283
 9212TIP3    H149127   6.238   3.264  12.778  0.1009 -0.2139  0.3335
 9212TIP3    H249128   6.287   3.392  12.843 -1.0061  1.1895 -1.5023
 9213TIP3   OH249129   5.463   5.626   2.819 -0.3536  0.5912 -0.2949
 9213TIP3    H149130   5.476   5.699   2.880  1.5383 -0.5267  0.7438
 9213TIP3    H249131   5.430   5.555   2.875 -0.1491  0.0340 -0.8754
 9214TIP3   OH249132   5.557   6.795  11.924  0.5591  0.0472  0.8388
 9214TIP3    H149133   5.520   6.859  11.864  1.1087 -0.8185 -0.4659
 9214TIP3    H249134   5.538   6.710  11.883  2.3552 -0.4939  1.0479
 9215TIP3   OH249135   3.073   3.971   2.600 -0.1215  0.0787 -0.3807
 9215TIP3    H149136   3.106   3.912   2.668 -1.1454  0.4616  0.4811
 9215TIP3    H249137   3.020   4.035   2.648 -2.1448 -0.5559 -1.6608
 9216TIP3   OH249138   4.211   3.548   1.523  0.2879 -0.2527  0.5046
 9216TIP3    H149139   4.151   3.495   1.469 -0.5432  2.2487 -1.1999
 9216TIP3    H249140   4.155   3.613   1.564  1.2471 -0.7691  2.7812
 9217TIP3   OH249141   3.668   3.962  14.970 -0.0629  0.4599 -0.3369
 9217TIP3    H149142   3.595   3.902  14.957  0.0453  0.2993 -0.2154
 9217TIP3    H249143   3.629   4.048  14.977 -0.1754  0.4852 -1.1758
 9218TIP3   OH249144   3.990   5.049  13.040  0.0150 -0.3447 -0.4777
 9218TIP3    H149145   4.017   5.138  13.060  0.3218 -0.5456  0.0301
 9218TIP3    H249146   3.910   5.058  12.988  1.3185  0.3005 -2.4959
 9219TIP3   OH249147   3.628   0.337  11.698 -0.1714 -0.2642 -0.4315
 9219TIP3    H149148   3.719   0.308  11.691 -0.1848 -0.1043 -1.3022
 9219TIP3    H249149   3.591   0.324  11.611 -1.0491 -0.5331 -0.0282
 9220TIP3   OH249150   4.451   6.443   2.909 -0.6483 -0.5932 -0.0073
 9220TIP3    H149151   4.389   6.512   2.888  2.3034  2.8412  1.4360
 9220TIP3    H249152   4.441   6.428   3.003 -1.1496 -2.1443 -0.2711
 9221TIP3   OH249153   4.962   3.294  11.936  0.4086  0.7389 -0.1524
 9221TIP3    H149154   4.924   3.242  11.865  0.5865  1.7878 -1.0271
 9221TIP3    H249155   5.055   3.275  11.932  0.1151 -2.2476  2.3214
 9222TIP3   OH249156   1.516   5.750   2.715 -0.1835 -0.3003 -0.0063
 9222TIP3    H149157   1.575   5.783   2.648 -0.8017  0.7793 -0.0304
 9222TIP3    H249158   1.504   5.657   2.693  0.0457 -0.0861 -1.0576
 9223TIP3   OH249159   3.715   3.691   3.390  0.6562  0.5289  0.1478
 9223TIP3    H149160   3.712   3.602   3.426 -0.8392  0.0810 -0.9710
 9223TIP3    H249161   3.809   3.711   3.384  1.0879 -1.5106 -0.8189
 9224TIP3   OH249162   5.206   3.022   3.880 -0.1933  0.2999 -0.0967
 9224TIP3    H149163   5.119   3.009   3.918  0.4203  0.2131  1.3598
 9224TIP3    H249164   5.189   3.050   3.790 -1.7108 -0.1377  0.0181
 9225TIP3   OH249165   4.629   4.579   4.772  0.2147 -0.0858 -0.1515
 9225TIP3    H149166   4.619   4.505   4.712  1.1722 -0.1131 -0.2892
 9225TIP3    H249167   4.540   4.598   4.801 -0.0589 -1.2034 -0.2137
 9226TIP3   OH249168   3.131   4.504  15.777 -0.3884  0.1328 -0.6435
 9226TIP3    H149169   3.040   4.475  15.781 -0.8244  1.5821  2.9571
 9226TIP3    H249170   3.129   4.596  15.801  2.1254 -0.1104  0.8893
 9227TIP3   OH249171   2.099   6.675  13.489  0.3916 -0.3080 -0.2244
 9227TIP3    H149172   2.155   6.628  13.550  1.1005  2.1679  1.1651
 9227TIP3    H249173   2.042   6.728  13.544 -0.2594  0.5833 -1.6944
 9228TIP3   OH249174   4.782   2.840   4.822 -0.3173 -0.1963  0.5195
 9228TIP3    H149175   4.781   2.749   4.851 -0.8209 -0.6381 -0.8071
 9228TIP3    H249176   4.846   2.842   4.752 -1.9912 -0.0870 -1.0667
 9229TIP3   OH249177   1.523   5.286  12.318 -0.1322  0.0652  0.3337
 9229TIP3    H149178   1.607   5.260  12.356 -0.7027  2.0030  3.2208
 9229TIP3    H249179   1.531   5.380  12.303 -1.2855  0.0065 -0.8568
 9230TIP3   OH249180   6.388   6.324   2.992 -0.7479  0.4380 -0.2596
 9230TIP3    H149181   6.451   6.392   3.014 -1.9787  1.6647 -0.3991
 9230TIP3    H249182   6.373   6.335   2.898  0.7721 -1.5766 -0.8187
 9231TIP3   OH249183   6.808   5.090   4.953 -0.2085  0.2433 -0.4319
 9231TIP3    H149184   6.871   5.025   4.922  0.0056 -0.1020  0.7073
 9231TIP3    H249185   6.788   5.064   5.043 -0.5630  1.4166 -0.1557
 9232TIP3   OH249186   0.111   1.174  15.247  0.4009 -0.3709 -0.3447
 9232TIP3    H149187   0.147   1.235  15.312  2.3252 -1.4492 -0.3329
 9232TIP3    H249188   0.044   1.125  15.296  0.8521 -0.2205  0.4464
 9233TIP3   OH249189   6.655   5.211  15.928 -0.4435 -0.4115  0.1403
 9233TIP3    H149190   6.678   5.301  15.905  1.6063 -0.4307  1.8336
 9233TIP3    H249191   6.566   5.218  15.964 -0.0349  1.0957  0.9521
 9234TIP3   OH249192   2.804   6.046   3.685  0.0267 -0.5939  0.2986
 9234TIP3    H149193   2.750   6.008   3.755 -1.3376  0.2577 -0.2616
 9234TIP3    H249194   2.757   6.025   3.604  0.7877 -0.2367 -0.2489
 9235TIP3   OH249195   4.237   4.151  10.246 -0.2889 -0.9248  0.0236
 9235TIP3    H149196   4.148   4.114  10.249 -0.6473 -0.0217  1.8516
 9235TIP3    H249197   4.291   4.080  10.212 -1.5028 -1.9278  0.1091
 9236TIP3   OH249198   1.036   2.768   5.598 -0.2390  0.3174  0.2327
 9236TIP3    H149199   0.981   2.839   5.566 -0.7795 -0.8310 -1.5280
 9236TIP3    H249200   0.976   2.694   5.606  0.6320 -0.3828  0.3971
 9237TIP3   OH249201   2.173   1.140   3.690 -0.3200  0.1292 -0.0842
 9237TIP3    H149202   2.174   1.235   3.701 -0.7372  0.0663  0.6138
 9237TIP3    H249203   2.264   1.114   3.701 -0.4889  0.2255  2.2381
 9238TIP3   OH249204   3.344   0.312  12.804  0.7844 -0.0421 -0.3463
 9238TIP3    H149205   3.417   0.318  12.742  0.2575  3.8657 -0.8319
 9238TIP3    H249206   3.266   0.308  12.749  0.4425  0.4107  0.1005
 9239TIP3   OH249207   4.531   5.291   5.333  0.4251 -0.8124  0.1125
 9239TIP3    H149208   4.497   5.380   5.318 -1.0967 -1.2696  0.6474
 9239TIP3    H249209   4.607   5.284   5.275  0.0134  0.5169 -0.6279
 9240TIP3   OH249210   3.614   1.486  14.545 -0.4689  0.8415 -0.6008
 9240TIP3    H149211   3.694   1.452  14.585 -1.0442 -0.1744 -0.2768
 9240TIP3    H249212   3.548   1.478  14.614 -1.8426 -2.2723 -2.0762
 9241TIP3   OH249213   4.905   5.694  15.010  0.0563  0.2792 -0.1448
 9241TIP3    H149214   4.844   5.723  14.942 -0.1558 -0.2438 -0.1737
 9241TIP3    H249215   4.850   5.657  15.079  0.3959 -1.3968 -0.7385
 9242TIP3   OH249216   6.493   0.362   4.635 -0.1625 -0.0077 -0.2466
 9242TIP3    H149217   6.450   0.438   4.676 -0.2360 -0.1253 -0.1050
 9242TIP3    H249218   6.550   0.328   4.703  0.5212  0.4323 -0.5852
 9243TIP3   OH249219   2.701   2.408  10.973 -0.2939 -0.0615  0.2424
 9243TIP3    H149220   2.650   2.363  11.040  1.7807 -0.6681  1.5233
 9243TIP3    H249221   2.755   2.339  10.934  1.2978  0.9193  0.6427
 9244TIP3   OH249222   4.590   1.646  11.038 -0.5862  0.1303 -0.4138
 9244TIP3    H149223   4.579   1.736  11.069 -1.1636 -0.0948  0.0440
 9244TIP3    H249224   4.501   1.615  11.021 -0.4199 -0.4995 -0.1558
 9245TIP3   OH249225   4.040   0.652   3.222  0.3435 -0.2314 -0.7441
 9245TIP3    H149226   4.126   0.669   3.260  0.4814 -0.3989 -0.9801
 9245TIP3    H249227   4.059   0.623   3.133  0.0098  0.6060 -1.1025
 9246TIP3   OH249228   5.222   2.879  14.967  0.1134 -0.7433 -0.0342
 9246TIP3    H149229   5.185   2.964  14.944  2.7285  0.0382 -1.8120
 9246TIP3    H249230   5.284   2.859  14.896  2.2154 -2.4370  2.0829
 9247TIP3   OH249231   0.049   5.722  12.267 -0.1093  0.3412  0.4991
 9247TIP3    H149232  -0.028   5.716  12.324 -0.7347 -1.5762 -0.4378
 9247TIP3    H249233   0.021   5.777  12.194 -0.7530 -0.6303 -0.0108
 9248TIP3   OH249234   5.704   1.182   2.971  0.0628 -0.0187  0.2545
 9248TIP3    H149235   5.789   1.155   3.004 -0.1333  0.6360  1.3383
 9248TIP3    H249236   5.643   1.161   3.041 -0.8037 -1.1308 -0.7784
 9249TIP3   OH249237   5.645   2.251   2.609  0.1576 -0.2032  0.0887
 9249TIP3    H149238   5.677   2.293   2.689  1.2916  0.5371 -0.7299
 9249TIP3    H249239   5.603   2.321   2.560  0.8115 -0.3144 -0.6484
 9250TIP3   OH249240   1.322   4.418   3.001  0.2515  0.0521  0.3109
 9250TIP3    H149241   1.357   4.500   3.035 -0.0661 -0.0065  0.7980
 9250TIP3    H249242   1.373   4.400   2.922 -1.5675  2.2283 -1.4958
 9251TIP3   OH249243   3.391   5.872  11.384  0.2726 -0.4360  0.3352
 9251TIP3    H149244   3.354   5.944  11.333  0.5151  0.1551  0.9819
 9251TIP3    H249245   3.392   5.798  11.323 -1.1384 -0.2383  0.0413
 9252TIP3   OH249246   5.882   1.228   0.054 -0.4727  0.0094  0.7498
 9252TIP3    H149247   5.961   1.239   0.001 -0.4498 -0.6066  0.6417
 9252TIP3    H249248   5.832   1.308   0.039 -1.3172 -0.8662 -1.6430
 9253TIP3   OH249249   1.213   5.074  12.186  0.0271 -0.2994  0.4210
 9253TIP3    H149250   1.223   5.132  12.263 -0.1533  1.5441 -0.8747
 9253TIP3    H249251   1.269   4.999  12.206 -0.5143 -0.1944  2.6358
 9254TIP3   OH249252   1.149   3.804   1.246 -0.0937  0.1464 -0.5223
 9254TIP3    H149253   1.099   3.732   1.206 -1.0351  1.2211 -1.3504
 9254TIP3    H249254   1.083   3.854   1.294  0.5455  0.4797  0.0065
 9255TIP3   OH249255   1.743   1.464   0.462  0.5805 -0.1754 -0.0731
 9255TIP3    H149256   1.676   1.517   0.419  0.5747 -0.0117  0.1378
 9255TIP3    H249257   1.746   1.383   0.410 -0.2643 -0.4706  0.3208
 9256TIP3   OH249258   1.299   0.699   1.498  0.4924 -0.2740  0.1219
 9256TIP3    H149259   1.212   0.721   1.529 -0.1947 -1.1340 -1.1191
 9256TIP3    H249260   1.343   0.784   1.487  0.6558  0.0956  2.9453
 9257TIP3   OH249261   1.713   2.893   4.880  0.0650  0.0977  0.2098
 9257TIP3    H149262   1.790   2.945   4.856  0.3699  0.5758  2.1154
 9257TIP3    H249263   1.716   2.818   4.820  0.4017  1.5042 -1.6536
 9258TIP3   OH249264   0.136   0.348   4.552 -0.7596 -0.4300  0.3679
 9258TIP3    H149265   0.082   0.379   4.625 -0.8519  1.3639 -0.4327
 9258TIP3    H249266   0.172   0.427   4.513  1.1396 -1.4911 -0.1542
 9259TIP3   OH249267   3.026   6.707   1.769  0.0239 -0.7549 -0.0125
 9259TIP3    H149268   3.012   6.640   1.836 -0.0855 -1.6187 -0.8868
 9259TIP3    H249269   3.112   6.744   1.789 -0.2934 -0.5445  0.9937
 9260TIP3   OH249270   4.456   3.847  14.486 -0.1220  0.7936  0.0805
 9260TIP3    H149271   4.425   3.775  14.541 -1.6046  2.9007  2.2044
 9260TIP3    H249272   4.522   3.892  14.540  2.4879 -0.1420 -2.0817
 9261TIP3   OH249273   5.748   0.707   0.874  0.2449 -0.3803  0.6196
 9261TIP3    H149274   5.821   0.764   0.848 -0.9359  0.9007 -0.0357
 9261TIP3    H249275   5.690   0.764   0.925 -1.1284 -0.8779 -0.3160
 9262TIP3   OH249276   4.359   6.405   6.512  0.2024  0.0808  0.6168
 9262TIP3    H149277   4.382   6.468   6.580 -3.0149  1.8413  0.2440
 9262TIP3    H249278   4.404   6.437   6.434  0.0139  0.9015  0.8329
 9263TIP3   OH249279   4.474   0.373  10.544  0.2271  0.2174  0.0052
 9263TIP3    H149280   4.474   0.413  10.631 -0.8385 -0.8729  0.5370
 9263TIP3    H249281   4.528   0.294  10.555  0.1098  0.0898 -0.3266
 9264TIP3   OH249282   4.896   4.618   4.379 -0.2425  0.2207  0.1682
 9264TIP3    H149283   4.860   4.651   4.461  0.2458  0.0850  0.4381
 9264TIP3    H249284   4.974   4.569   4.404  1.1766  1.9951 -0.5333
 9265TIP3   OH249285   2.390   5.165  10.939 -0.3674 -0.0082  0.2741
 9265TIP3    H149286   2.385   5.260  10.951  0.1924  0.3529 -1.9908
 9265TIP3    H249287   2.345   5.129  11.016 -1.9591  2.1127  0.4342
 9266TIP3   OH249288   0.625   3.598   3.235  0.1745  0.3350  0.1284
 9266TIP3    H149289   0.570   3.669   3.203  0.6491  0.6721  0.0369
 9266TIP3    H249290   0.564   3.530   3.263 -0.2721  0.5898 -0.2232
 9267TIP3   OH249291   3.055   3.059   0.103 -0.3229 -0.3379 -0.2412
 9267TIP3    H149292   2.985   3.103   0.151  1.1019  1.9643 -0.0658
 9267TIP3    H249293   3.134   3.110   0.125  0.8020 -0.6414 -3.1095
 9268TIP3   OH249294   6.262   3.363   3.226  0.3714 -0.0781 -0.7651
 9268TIP3    H149295   6.320   3.436   3.205 -0.6255  0.9487 -0.0782
 9268TIP3    H249296   6.301   3.287   3.183  1.6394  0.7885 -1.1720
 9269TIP3   OH249297   4.304   4.165  10.515 -0.6809 -0.7756 -0.1460
 9269TIP3    H149298   4.283   4.183  10.423  0.1025  1.1515  0.0029
 9269TIP3    H249299   4.233   4.206  10.564 -0.1110 -0.1103  0.1444
 9270TIP3   OH249300   6.436   3.615   5.627 -0.0127  0.0025 -0.1399
 9270TIP3    H149301   6.410   3.707   5.621 -1.4484 -0.4541 -1.5983
 9270TIP3    H249302   6.353   3.566   5.623  0.7775 -1.3770 -0.3384
 9271TIP3   OH249303   2.519   0.337   0.895 -0.2803  0.0279  0.2209
 9271TIP3    H149304   2.506   0.246   0.870  0.1127 -0.4152  1.5096
 9271TIP3    H249305   2.555   0.379   0.817 -1.2959 -0.7022 -0.6609
 9272TIP3   OH249306   2.251   4.771  11.706 -0.0477  0.0244  0.0116
 9272TIP3    H149307   2.330   4.803  11.750  0.8315  0.5664 -1.8307
 9272TIP3    H249308   2.238   4.833  11.634 -2.9876  0.7505  1.0513
 9273TIP3   OH249309   6.303   1.554  13.283  0.4912 -0.4151 -0.6242
 9273TIP3    H149310   6.262   1.479  13.326 -1.1506  0.5493 -0.4645
 9273TIP3    H249311   6.248   1.572  13.207  0.4376  1.0877 -0.2604
 9274TIP3   OH249312   2.809   6.110  10.046 -0.6376 -0.1741  0.1416
 9274TIP3    H149313   2.747   6.165  10.093 -2.1237 -1.8325  0.2292
 9274TIP3    H249314   2.781   6.020  10.066  1.1284 -0.9625 -0.7209
 9275TIP3   OH249315   1.005   1.481   4.969 -0.3869  0.4396 -0.6150
 9275TIP3    H149316   1.056   1.531   5.032 -0.4559  1.1940 -1.1435
 9275TIP3    H249317   0.985   1.399   5.014 -0.6971  1.0797  0.4594
 9276TIP3   OH249318   2.452   5.366   3.789  0.2367  0.2393 -0.5815
 9276TIP3    H149319   2.422   5.448   3.829  0.5320 -0.8386  2.1042
 9276TIP3    H249320   2.385   5.302   3.815 -0.6601 -0.2346 -3.6724
 9277TIP3   OH249321   0.122   1.020  11.831 -0.2795  0.0679 -0.3743
 9277TIP3    H149322   0.032   1.032  11.860 -0.3098 -0.2851 -0.3159
 9277TIP3    H249323   0.172   1.082  11.884 -0.3763 -0.3501  0.2169
 9278TIP3   OH249324   5.107   4.855  15.347  0.0333 -0.0553  0.7896
 9278TIP3    H149325   5.123   4.941  15.385  1.4054 -0.3231  0.8545
 9278TIP3    H249326   5.073   4.803  15.419 -0.9947  0.4647  0.7050
 9279TIP3   OH249327   1.278   0.543  14.085 -0.0915 -0.0369  0.0115
 9279TIP3    H149328   1.247   0.626  14.050 -0.4825 -0.1407  0.1030
 9279TIP3    H249329   1.314   0.565  14.171  0.6468  0.1787 -0.3504
 9280TIP3   OH249330   3.044   0.865  14.489  0.3189 -0.4788  0.6563
 9280TIP3    H149331   2.990   0.814  14.550 -0.1934 -1.7645 -0.8120
 9280TIP3    H249332   3.133   0.858  14.525 -0.0474 -0.8097  1.5165
 9281TIP3   OH249333   2.959   2.683   1.115  0.3356 -0.0799  0.1346
 9281TIP3    H149334   2.904   2.718   1.045 -0.2573 -2.2891 -0.6185
 9281TIP3    H249335   2.899   2.632   1.169  1.4722 -2.0113 -0.3299
 9282TIP3   OH249336   3.700   0.451  14.235 -0.5941  0.4893  0.6501
 9282TIP3    H149337   3.629   0.495  14.189 -0.8756 -1.1298 -0.5496
 9282TIP3    H249338   3.694   0.484  14.325 -1.8604  1.5506  0.2140
 9283TIP3   OH249339   6.118   0.103  10.774 -0.2461  0.0426 -0.3749
 9283TIP3    H149340   6.170   0.146  10.841 -0.3472  0.1173 -0.3430
 9283TIP3    H249341   6.165   0.119  10.692  0.2694 -0.6753 -0.2304
 9284TIP3   OH249342   3.074   3.082  13.029  0.0727  0.1864 -0.2686
 9284TIP3    H149343   3.087   3.097  12.935  1.4685 -0.0957 -0.1498
 9284TIP3    H249344   3.123   3.154  13.071 -1.6263  1.0855  0.2618
 9285TIP3   OH249345   1.073   6.801   3.413  0.6512  0.3714  0.5838
 9285TIP3    H149346   1.051   6.737   3.345  2.6448  0.1306  0.1237
 9285TIP3    H249347   1.052   6.757   3.495 -2.0796  0.7698  0.2264
 9286TIP3   OH249348   3.940   5.745   2.855 -0.1757  0.4489 -0.2786
 9286TIP3    H149349   3.925   5.665   2.906 -0.1281  0.3587 -0.4054
 9286TIP3    H249350   4.018   5.784   2.894  0.4119 -0.1043 -0.8733
 9287TIP3   OH249351   2.915   5.866  13.062 -1.1183 -0.0869 -0.1065
 9287TIP3    H149352   2.840   5.911  13.023 -1.3596 -0.7004 -0.3675
 9287TIP3    H249353   2.988   5.928  13.052 -1.2585 -0.0815 -1.2078
 9288TIP3   OH249354   5.928   3.516   1.814 -0.6678 -0.1748 -0.1030
 9288TIP3    H149355   5.885   3.572   1.879  0.7734 -0.0974  0.8131
 9288TIP3    H249356   5.987   3.575   1.767 -1.5214 -0.2776 -1.3570
 9289TIP3   OH249357   3.364   2.933   4.474  0.0741 -0.1342 -0.6780
 9289TIP3    H149358   3.438   2.873   4.482 -0.0498 -0.3589 -1.1735
 9289TIP3    H249359   3.295   2.881   4.433 -0.1491  0.2535 -0.8013
 9290TIP3   OH249360   2.548   6.036  17.041 -0.4374 -0.6839  0.0898
 9290TIP3    H149361   2.639   6.024  17.069  0.3781  0.9939 -1.6039
 9290TIP3    H249362   2.534   5.968  16.975  0.0435 -0.1662 -0.5651
 9291TIP3   OH249363   1.276   3.384   0.412  0.9387  0.1252  0.0357
 9291TIP3    H149364   1.274   3.359   0.319  0.1350  0.9848 -0.1956
 9291TIP3    H249365   1.206   3.332   0.452 -0.1583  1.2981 -0.2800
 9292TIP3   OH249366   0.404   4.341  11.721 -0.1038  0.1951 -0.4080
 9292TIP3    H149367   0.415   4.371  11.812 -0.9595  0.5072 -0.3966
 9292TIP3    H249368   0.465   4.395  11.671 -0.1517  0.5349 -0.1087
 9293TIP3   OH249369   6.237   3.073  12.912 -0.5302  0.2435  0.0394
 9293TIP3    H149370   6.271   3.123  12.987  0.4730 -0.1524 -0.1349
 9293TIP3    H249371   6.175   3.011  12.951  0.9525 -0.8621  0.7634
 9294TIP3   OH249372   4.135   5.952  14.185 -0.6638  0.0684  0.1114
 9294TIP3    H149373   4.047   5.918  14.198 -1.9240  3.0358  0.0985
 9294TIP3    H249374   4.189   5.874  14.169 -3.1198 -1.8895  0.7635
 9295TIP3   OH249375   0.485   4.547   3.797  0.3354 -0.1223 -0.2010
 9295TIP3    H149376   0.564   4.550   3.743  0.5366 -0.2058  0.0912
 9295TIP3    H249377   0.438   4.627   3.775 -0.6511 -1.1558 -2.1302
 9296TIP3   OH249378   5.575   4.044   3.238  0.0837 -0.6067  0.4655
 9296TIP3    H149379   5.656   4.064   3.191 -0.4582 -0.2951 -0.3461
 9296TIP3    H249380   5.507   4.090   3.190 -0.1865  2.0600  3.0977
 9297TIP3   OH249381   4.094   1.355   5.276 -0.3505  0.1254  0.2693
 9297TIP3    H149382   4.127   1.444   5.261 -1.4001  0.5958  0.6554
 9297TIP3    H249383   4.002   1.367   5.298 -0.2594 -0.9892  1.3545
 9298TIP3   OH249384   4.774   2.240  14.416  0.1642 -0.3282  0.2629
 9298TIP3    H149385   4.852   2.290  14.441  0.5447 -1.4917  1.5354
 9298TIP3    H249386   4.791   2.213  14.326  0.1744  1.3433 -0.2862
 9299TIP3   OH249387   1.088   4.374   6.826  0.0153  0.2920  0.1040
 9299TIP3    H149388   1.098   4.467   6.842  2.6784  0.4243 -1.7222
 9299TIP3    H249389   1.021   4.369   6.758  0.0802  0.8948 -0.0104
 9300TIP3   OH249390   1.555   0.817   5.194  0.3545 -0.0165 -0.3215
 9300TIP3    H149391   1.475   0.824   5.246 -1.7041 -1.3865 -3.0161
 9300TIP3    H249392   1.622   0.863   5.245 -1.6707 -0.3901  2.9363
 9301TIP3   OH249393   3.280   5.805  15.455  0.5748 -0.2280 -0.1642
 9301TIP3    H149394   3.325   5.721  15.457  1.2350  0.1252  1.6028
 9301TIP3    H249395   3.350   5.870  15.462 -0.0892  0.3870  0.9112
 9302TIP3   OH249396   1.523   0.913  13.666  0.4072  0.3748  0.2217
 9302TIP3    H149397   1.567   0.997  13.677 -0.8592  1.0534  0.2802
 9302TIP3    H249398   1.500   0.909  13.574  0.2004  0.2251  0.2788
 9303TIP3   OH249399   3.539   5.142   1.646 -0.1520  0.2633  0.0589
 9303TIP3    H149400   3.469   5.130   1.582  0.7939 -0.5687 -0.8577
 9303TIP3    H249401   3.528   5.070   1.708 -1.5140  1.4864  1.3016
 9304TIP3   OH249402   3.267   1.071  13.797 -1.0884  0.2157  0.7241
 9304TIP3    H149403   3.231   1.028  13.874  2.0628  0.7616  2.6684
 9304TIP3    H249404   3.349   1.025  13.780 -1.9804 -0.3524 -2.8678
 9305TIP3   OH249405   4.349   3.002   5.297  0.5855  0.0361 -0.1732
 9305TIP3    H149406   4.258   2.971   5.298  1.2955 -2.2375  0.0696
 9305TIP3    H249407   4.395   2.945   5.358  1.9225  2.1853  0.9630
 9306TIP3   OH249408   6.310   2.488  11.175 -0.0502 -0.2757 -0.0573
 9306TIP3    H149409   6.275   2.461  11.091  3.2827  1.2833 -2.1360
 9306TIP3    H249410   6.317   2.406  11.225  0.0773 -1.6489 -2.1872
 9307TIP3   OH249411   6.364   5.565  14.685  0.0974  0.0087  0.2658
 9307TIP3    H149412   6.446   5.585  14.639  0.4042  0.3084  0.9402
 9307TIP3    H249413   6.385   5.490  14.740 -0.0636  0.1211  0.4816
 9308TIP3   OH249414   1.866   2.146  10.790 -0.5580 -0.0803 -0.1110
 9308TIP3    H149415   1.938   2.201  10.759 -1.7797  1.1645 -0.8752
 9308TIP3    H249416   1.829   2.194  10.864 -2.1959  0.6500 -1.3403
 9309TIP3   OH249417   2.694   6.771  16.965 -0.3669  0.6169 -0.0339
 9309TIP3    H149418   2.631   6.751  17.034 -0.1272  1.9371  0.6141
 9309TIP3    H249419   2.772   6.802  17.013  0.0977  0.7683 -0.8711
 9310TIP3   OH249420   3.128   5.831  14.583 -0.5254  0.2337 -0.1918
 9310TIP3    H149421   3.106   5.824  14.676  0.6692 -1.6609  0.0201
 9310TIP3    H249422   3.220   5.858  14.582 -0.1721 -0.8944 -0.7344
 9311TIP3   OH249423   5.983   5.046  15.337  0.1509 -0.3644 -0.1974
 9311TIP3    H149424   6.021   5.052  15.424  1.0728 -0.2223 -0.5978
 9311TIP3    H249425   5.889   5.035  15.352  0.2781 -0.1412  0.8011
 9312TIP3   OH249426   4.942   0.008   3.732  0.2745 -0.2007 -0.6216
 9312TIP3    H149427   4.948   0.015   3.828 -2.7745  1.2837 -0.4105
 9312TIP3    H249428   4.989  -0.072   3.711 -1.8939 -2.5659  2.5509
 9313TIP3   OH249429   1.593   3.518  14.355  0.2305  0.4381 -0.2929
 9313TIP3    H149430   1.651   3.446  14.379  1.2439  1.6106  0.9092
 9313TIP3    H249431   1.614   3.535  14.263  1.6949  0.7086  0.0620
 9314TIP3   OH249432   5.460   3.182  12.413  0.0053 -0.3879 -0.3439
 9314TIP3    H149433   5.544   3.191  12.368 -0.9163 -0.3257 -2.1580
 9314TIP3    H249434   5.438   3.089  12.406 -0.2226 -0.3496 -0.1600
 9315TIP3   OH249435   1.715   3.095   3.607 -0.4633  0.7232  0.4878
 9315TIP3    H149436   1.663   3.054   3.676 -0.2433 -1.5419 -0.6142
 9315TIP3    H249437   1.806   3.074   3.629 -0.4258 -0.5798 -0.7800
 9316TIP3   OH249438   5.711   5.876  12.137 -0.6120 -0.6894  0.2949
 9316TIP3    H149439   5.714   5.794  12.185 -0.1703 -0.6175  0.3899
 9316TIP3    H249440   5.661   5.855  12.058 -0.4991 -1.0490  0.3162
 9317TIP3   OH249441   6.375   4.951   0.884 -0.0794  0.4962  0.7133
 9317TIP3    H149442   6.397   4.862   0.913  1.0048  0.3191 -0.5378
 9317TIP3    H249443   6.305   4.939   0.820 -0.4997  0.6274  1.1430
 9318TIP3   OH249444   4.190   5.355   0.471  0.0548 -0.2615  0.0209
 9318TIP3    H149445   4.138   5.434   0.483 -0.2658 -0.5919  0.8232
 9318TIP3    H249446   4.228   5.338   0.557 -1.0108 -1.7772  0.2200
 9319TIP3   OH249447   5.822   0.418   0.882  0.3041 -0.1007 -0.0412
 9319TIP3    H149448   5.785   0.505   0.866  0.6936  0.0632 -0.0583
 9319TIP3    H249449   5.841   0.383   0.795 -0.7266 -0.5936 -0.0842
 9320TIP3   OH249450   0.886   1.154  11.776  0.4011 -0.4656 -0.2309
 9320TIP3    H149451   0.792   1.155  11.791  0.5688 -1.2989  1.0613
 9320TIP3    H249452   0.923   1.206  11.848  0.9386 -0.4810 -0.4905
 9321TIP3   OH249453   3.707   3.100   5.004 -0.3060  0.7706 -0.1217
 9321TIP3    H149454   3.683   3.193   5.011 -0.0423  0.7830  0.7392
 9321TIP3    H249455   3.767   3.096   4.929 -0.8442  1.1809 -0.5839
 9322TIP3   OH249456   6.853   2.529   0.856  0.3606 -0.1092 -0.4915
 9322TIP3    H149457   6.881   2.617   0.881 -0.3282  0.0764 -0.3523
 9322TIP3    H249458   6.793   2.543   0.783 -0.6023 -0.3797  0.2301
 9323TIP3   OH249459   5.134   1.527   3.945 -1.0903 -0.4813 -0.2049
 9323TIP3    H149460   5.086   1.601   3.909 -2.0573 -1.0723 -0.1730
 9323TIP3    H249461   5.068   1.459   3.956 -0.2005 -1.3930 -0.3588
 9324TIP3   OH249462   5.051   1.887   1.367 -0.0116  0.0983  0.0760
 9324TIP3    H149463   4.998   1.808   1.364 -1.2470  0.8661  0.8396
 9324TIP3    H249464   5.095   1.890   1.282 -2.0020 -0.0354 -1.0053
 9325TIP3   OH249465   4.717   6.823  10.996  0.3778 -0.2246  0.3352
 9325TIP3    H149466   4.626   6.853  11.002  0.4447 -0.1046  0.8363
 9325TIP3    H249467   4.766   6.885  11.050  0.6115 -0.8594  0.8655
 9326TIP3   OH249468   3.922   3.786  16.777 -0.0388 -0.1527  0.5734
 9326TIP3    H149469   3.858   3.851  16.748 -1.8033 -1.7778  0.6543
 9326TIP3    H249470   3.891   3.703  16.741 -0.2801 -1.6673  3.9261
 9327TIP3   OH249471   0.269   0.328   3.595  0.0753 -0.3347 -0.3635
 9327TIP3    H149472   0.234   0.246   3.628 -0.0766 -0.4656 -0.8390
 9327TIP3    H249473   0.205   0.358   3.531  0.1614  0.1208 -0.2432
 9328TIP3   OH249474   3.014   4.294  12.635  0.0859  0.4255 -0.3265
 9328TIP3    H149475   3.006   4.262  12.546  1.3209 -1.5394  0.2013
 9328TIP3    H249476   3.006   4.216  12.690 -0.1706  1.5047  1.2610
 9329TIP3   OH249477   5.798   2.432   3.868 -0.5719  0.4852 -0.1660
 9329TIP3    H149478   5.784   2.347   3.910 -1.3200  1.3632  1.4730
 9329TIP3    H249479   5.712   2.455   3.832 -0.2954  0.4256 -0.8910
 9330TIP3   OH249480   3.411   2.972  11.552  0.2312 -0.2496  0.2344
 9330TIP3    H149481   3.463   2.914  11.608 -0.2673 -0.4331  0.5152
 9330TIP3    H249482   3.466   3.050  11.541  1.0761 -0.9318 -0.4872
 9331TIP3   OH249483   4.145   4.505  16.449  0.0621  0.6087  0.2940
 9331TIP3    H149484   4.185   4.471  16.369 -2.0362 -0.2614 -0.4540
 9331TIP3    H249485   4.135   4.428  16.505 -0.0359  0.9156  0.6989
 9332TIP3   OH249486   3.779   3.878   4.736 -0.3261  0.1475 -0.2398
 9332TIP3    H149487   3.831   3.925   4.802  0.0989 -2.0233  1.0866
 9332TIP3    H249488   3.763   3.792   4.776  0.3638 -1.4685 -3.1589
 9333TIP3   OH249489   0.007   3.224   1.883  0.1450  0.1538  0.5307
 9333TIP3    H149490   0.005   3.318   1.867 -0.5479  0.0010 -0.3362
 9333TIP3    H249491   0.072   3.213   1.952  0.9788  1.1610 -0.0704
 9334TIP3   OH249492   5.907   2.409  12.494  0.6599  0.0583  0.2629
 9334TIP3    H149493   5.865   2.343  12.549  1.5761 -0.1294  0.7671
 9334TIP3    H249494   5.888   2.382  12.405 -2.0361  1.1215  0.4210
 9335TIP3   OH249495   3.416   3.823  11.315 -0.0156  0.4057 -0.2031
 9335TIP3    H149496   3.382   3.844  11.402  1.2360  2.6074 -0.1615
 9335TIP3    H249497   3.356   3.866  11.255  0.4554  0.9245 -0.3076
 9336TIP3   OH249498   3.771   3.241   2.002 -0.6060  0.6370  0.6319
 9336TIP3    H149499   3.702   3.252   1.937  0.4253  1.9274 -0.3031
 9336TIP3    H249500   3.841   3.194   1.955 -0.4518  0.1998  1.2815
 9337TIP3   OH249501   1.734   5.952   3.694  0.4246 -0.5240 -0.0046
 9337TIP3    H149502   1.638   5.952   3.701  0.5111 -0.9782  1.6912
 9337TIP3    H249503   1.761   6.031   3.741  0.9543 -1.6792  1.7318
 9338TIP3   OH249504   5.861   0.480   2.230  0.0664 -0.6666 -0.6639
 9338TIP3    H149505   5.950   0.473   2.195  0.5823  0.6741  0.3228
 9338TIP3    H249506   5.872   0.499   2.323 -1.2820 -2.3358 -0.1031
 9339TIP3   OH249507   4.942   4.162   0.042  0.1764  0.3024 -0.0997
 9339TIP3    H149508   4.887   4.147  -0.036 -0.2370  0.0357  0.2382
 9339TIP3    H249509   4.910   4.098   0.106  1.6456 -0.6764 -0.2798
 9340TIP3   OH249510   6.295   4.929   2.184  0.4851 -0.0174  0.4092
 9340TIP3    H149511   6.200   4.934   2.176  0.4706  0.4787  0.8113
 9340TIP3    H249512   6.325   5.019   2.169  0.9132 -0.2145  0.0497
 9341TIP3   OH249513   6.341   1.596  14.331  0.3177 -0.3070 -0.7109
 9341TIP3    H149514   6.246   1.603  14.345  0.4262  0.4147 -0.2846
 9341TIP3    H249515   6.363   1.509  14.364  0.0452  0.1185  0.6805
 9342TIP3   OH249516   0.224   0.789  12.225  0.6283 -0.3957 -0.1059
 9342TIP3    H149517   0.305   0.839  12.234  0.4490  0.1463 -1.3263
 9342TIP3    H249518   0.247   0.700  12.255  0.8236  0.4537  2.5236
 9343TIP3   OH249519   2.569   4.373   5.398 -0.0249 -0.4941 -0.1847
 9343TIP3    H149520   2.659   4.405   5.391 -1.0419  2.6884 -0.2490
 9343TIP3    H249521   2.544   4.352   5.308 -0.2320  1.5489 -0.6611
 9344TIP3   OH249522   2.156   5.573  10.621  0.5961  0.3364  0.0941
 9344TIP3    H149523   2.107   5.650  10.594 -1.5193 -1.0074 -0.1884
 9344TIP3    H249524   2.205   5.601  10.698 -1.8128  1.4583  1.3350
 9345TIP3   OH249525   1.765   6.493  16.112 -0.1401 -0.3675  0.3862
 9345TIP3    H149526   1.833   6.542  16.160  0.2616  1.0021 -1.4976
 9345TIP3    H249527   1.684   6.538  16.133 -0.0807 -0.2735  0.4169
 9346TIP3   OH249528   6.517   6.851  14.116 -0.0704  0.7213 -0.3073
 9346TIP3    H149529   6.477   6.880  14.034 -3.4008  0.0545  0.8865
 9346TIP3    H249530   6.455   6.786  14.151  2.0833 -0.3111  1.8996
 9347TIP3   OH249531   5.321   3.471   4.927  0.1502  0.6030  0.5775
 9347TIP3    H149532   5.260   3.399   4.911  0.4622  0.3692  0.4305
 9347TIP3    H249533   5.402   3.443   4.886  0.0048  1.4613 -0.3241
 9348TIP3   OH249534   3.353   0.900  12.196  0.5080  0.1616  0.0931
 9348TIP3    H149535   3.389   0.861  12.116  1.1520 -1.9381  1.3168
 9348TIP3    H249536   3.353   0.994  12.179  0.9304 -0.1956 -2.2352
 9349TIP3   OH249537   0.639   6.751  13.127  0.1280 -0.3757  0.0839
 9349TIP3    H149538   0.674   6.662  13.126  1.4732  0.0644  2.0320
 9349TIP3    H249539   0.698   6.799  13.185 -1.2337  1.5109 -0.0079
 9350TIP3   OH249540   1.078   5.317   1.286  0.1309 -0.0382 -0.3136
 9350TIP3    H149541   1.057   5.302   1.378 -1.0230  0.0337 -0.5539
 9350TIP3    H249542   0.993   5.321   1.242  0.6535  0.3624 -1.3169
 9351TIP3   OH249543   4.541   6.265   1.616  0.0177  0.0426 -0.2025
 9351TIP3    H149544   4.635   6.276   1.605 -0.2155  1.0875 -1.3539
 9351TIP3    H249545   4.529   6.172   1.632  1.3227  0.0410  0.9450
 9352TIP3   OH249546   0.116   1.383  16.845 -0.0001  0.0294 -0.4629
 9352TIP3    H149547   0.122   1.296  16.886  0.5233  0.3610  0.1940
 9352TIP3    H249548   0.039   1.423  16.884 -0.4609 -0.2764 -1.0469
 9353TIP3   OH249549   5.847   4.814  11.312  0.1554  0.1180 -0.0171
 9353TIP3    H149550   5.861   4.730  11.357  2.3213  0.7259  0.5665
 9353TIP3    H249551   5.852   4.879  11.382  1.4551  0.9174 -0.8054
 9354TIP3   OH249552   5.901   4.971  16.612 -0.1227 -0.0449  0.1427
 9354TIP3    H149553   5.888   4.939  16.523 -2.7139 -1.1049  0.8043
 9354TIP3    H249554   5.831   5.036  16.625  0.9457  0.9815  1.0429
 9355TIP3   OH249555   0.218   6.532  12.569  0.6280  0.0119 -0.4476
 9355TIP3    H149556   0.134   6.578  12.567  0.0555 -0.7471  2.1379
 9355TIP3    H249557   0.274   6.581  12.508 -1.3457  1.1792 -1.4225
 9356TIP3   OH249558   0.033   1.770   1.876 -0.4363  0.0559  0.1648
 9356TIP3    H149559   0.068   1.815   1.953 -0.9569 -0.2110  0.5663
 9356TIP3    H249560   0.078   1.811   1.802  0.6087 -0.1738  0.6476
 9357TIP3   OH249561   4.239   6.621   1.192 -0.4325  0.2196  0.3292
 9357TIP3    H149562   4.275   6.678   1.124 -0.1167 -0.5781 -0.1842
 9357TIP3    H249563   4.314   6.572   1.225 -0.7933 -0.3345  0.3412
 9358TIP3   OH249564   6.059   3.802   5.145 -0.6196  0.1637 -0.1504
 9358TIP3    H149565   6.029   3.752   5.221  2.3512 -0.3430  0.8373
 9358TIP3    H249566   5.989   3.864   5.128 -3.8697 -3.2536 -0.5184
 9359TIP3   OH249567   1.807   1.612   1.958  0.4058  0.2794  0.1775
 9359TIP3    H149568   1.816   1.589   1.865  1.2602 -1.5821  0.6756
 9359TIP3    H249569   1.835   1.533   2.005 -1.0610  0.8019  2.0252
 9360TIP3   OH249570   3.140   6.055  16.335  0.0509  0.1972  0.3368
 9360TIP3    H149571   3.050   6.036  16.363 -0.0110 -0.1636 -0.0867
 9360TIP3    H249572   3.129   6.106  16.254  0.2255  0.6444  0.5969
 9361TIP3   OH249573   5.116   4.603   1.819  0.2101 -0.1780 -0.4077
 9361TIP3    H149574   5.061   4.650   1.757  1.3635  1.0525 -0.5504
 9361TIP3    H249575   5.057   4.542   1.862 -1.0640  0.4661 -1.1807
 9362TIP3   OH249576   1.210   3.780   4.784  0.2124  0.0216 -0.1696
 9362TIP3    H149577   1.225   3.859   4.836 -0.8096  0.0890  0.0491
 9362TIP3    H249578   1.228   3.708   4.844 -0.6810  0.1004  0.2169
 9363TIP3   OH249579   0.045   6.058   3.277  0.0854 -0.1458  0.1480
 9363TIP3    H149580  -0.015   6.120   3.318  0.9467 -0.1612  1.5295
 9363TIP3    H249581  -0.010   5.984   3.250 -0.9150  1.0700 -1.2770
 9364TIP3   OH249582   6.634   4.710  11.524 -0.2246  0.6280 -0.2723
 9364TIP3    H149583   6.684   4.629  11.533  0.4972  0.9945 -0.9210
 9364TIP3    H249584   6.634   4.748  11.612 -1.1744 -0.4026  0.2074
 9365TIP3   OH249585   1.351   3.912  10.588 -1.1763 -0.5938  0.1345
 9365TIP3    H149586   1.283   3.967  10.549 -0.6583  0.8484  1.1684
 9365TIP3    H249587   1.431   3.964  10.580 -0.4131 -1.7567  0.0099
 9366TIP3   OH249588   2.699   4.399   3.863  0.4041 -0.3385 -0.5443
 9366TIP3    H149589   2.730   4.488   3.875  1.0983 -0.5449 -0.7957
 9366TIP3    H249590   2.721   4.377   3.773 -1.2520 -0.1937 -1.0229
 9367TIP3   OH249591   2.308   3.342   5.396 -0.0575 -0.2437 -0.3093
 9367TIP3    H149592   2.311   3.437   5.404 -0.5304 -0.3738  2.1688
 9367TIP3    H249593   2.216   3.320   5.413  0.4391 -1.2350  1.3363
 9368TIP3   OH249594   5.799   4.427   2.820 -0.3812  0.1407  0.6353
 9368TIP3    H149595   5.831   4.338   2.807 -0.6890  0.1872 -0.6009
 9368TIP3    H249596   5.765   4.453   2.734 -0.6542  1.3071  1.0741
 9369TIP3   OH249597   3.026   2.378   3.286  0.3667 -0.2879  0.0488
 9369TIP3    H149598   3.047   2.408   3.375 -0.8860  0.0385  0.2557
 9369TIP3    H249599   2.962   2.442   3.254  0.3628 -0.7420 -0.8619
 9370TIP3   OH249600   4.208   5.071  10.409  0.4822 -0.1807 -0.0847
 9370TIP3    H149601   4.278   5.032  10.356  0.1588  0.6818 -1.1875
 9370TIP3    H249602   4.168   4.996  10.454  0.5512 -1.0058 -1.3373
 9371TIP3   OH249603   5.870   6.134   4.494  0.2589  0.2692  0.2903
 9371TIP3    H149604   5.846   6.075   4.566  1.3394  2.0184  2.2078
 9371TIP3    H249605   5.941   6.089   4.448 -1.1892 -1.3653 -0.4222
 9372TIP3   OH249606   3.421   2.507  15.670  0.2279  0.5612  0.4031
 9372TIP3    H149607   3.509   2.529  15.640  0.6588 -0.2648  1.0223
 9372TIP3    H249608   3.427   2.415  15.696 -1.2103  0.0119 -0.9999
 9373TIP3   OH249609   3.543   4.735  11.446  0.8199  0.5246  0.5552
 9373TIP3    H149610   3.609   4.785  11.398  0.5803  0.4888  0.1931
 9373TIP3    H249611   3.499   4.801  11.501  0.0001  0.8553 -0.4673
 9374TIP3   OH249612   2.997   2.902  11.942 -0.1335  0.1406  0.7063
 9374TIP3    H149613   2.914   2.949  11.933  0.1311  0.4290 -0.3906
 9374TIP3    H249614   2.999   2.874  12.033 -0.5373  1.8295  1.2801
 9375TIP3   OH249615   5.952   0.434   5.522 -0.3104 -0.6930 -0.0481
 9375TIP3    H149616   5.914   0.409   5.438 -1.2260  1.4458 -0.3139
 9375TIP3    H249617   6.031   0.484   5.499  0.3317 -1.4540  0.4281
 9376TIP3   OH249618   1.340   1.777   6.464  0.1693 -0.0445  0.0187
 9376TIP3    H149619   1.280   1.804   6.394  0.8636  0.6436 -0.3308
 9376TIP3    H249620   1.300   1.699   6.501  0.6251 -1.4792 -2.2851
 9377TIP3   OH249621   3.081   2.040  16.597  0.5572  0.3668 -0.2039
 9377TIP3    H149622   3.093   1.962  16.543 -0.5145 -0.2314  0.3735
 9377TIP3    H249623   3.125   2.110  16.550  2.7071 -0.8278 -0.1149
 9378TIP3   OH249624   5.194   0.138  15.599 -0.0186  0.2609  0.2096
 9378TIP3    H149625   5.117   0.193  15.610 -0.3492 -0.0145 -0.6375
 9378TIP3    H249626   5.211   0.102  15.686 -1.9388 -1.0816  0.0908
 9379TIP3   OH249627   2.719   6.551   2.161  0.0113  0.2499 -0.1762
 9379TIP3    H149628   2.768   6.627   2.128  1.7811 -0.7520  0.0167
 9379TIP3    H249629   2.758   6.532   2.246 -1.7487  0.3052  0.6741
 9380TIP3   OH249630   5.885   5.201  11.414 -0.0573  0.0580  0.2592
 9380TIP3    H149631   5.853   5.285  11.446  0.0770 -0.3776  1.5847
 9380TIP3    H249632   5.947   5.223  11.344 -1.4137  0.9823 -0.6868
 9381TIP3   OH249633   0.499   4.641  14.059  0.1690 -0.0987 -0.0351
 9381TIP3    H149634   0.511   4.736  14.053  1.1977 -0.2290 -0.1204
 9381TIP3    H249635   0.414   4.631  14.102 -0.1570  0.8556 -0.4298
 9382TIP3   OH249636   4.585   6.006   3.843 -0.1280  0.3957 -0.4664
 9382TIP3    H149637   4.611   6.063   3.915 -0.8492 -0.5898  0.6090
 9382TIP3    H249638   4.654   5.940   3.838 -2.3197 -2.4982  2.6944
 9383TIP3   OH249639   5.799   0.882   3.772  0.3648  0.0929  0.8012
 9383TIP3    H149640   5.823   0.965   3.813 -0.1859 -0.2693  1.9022
 9383TIP3    H249641   5.783   0.904   3.680  0.5650  1.1349  1.0044
 9384TIP3   OH249642   1.804   0.977   1.202 -0.0151  0.1258 -0.4129
 9384TIP3    H149643   1.795   0.882   1.188 -2.1805  0.0440  0.9902
 9384TIP3    H249644   1.898   0.991   1.211  0.3941 -1.8285 -1.0970
 9385TIP3   OH249645   2.875   4.508   1.202 -0.1947  0.2331 -0.3821
 9385TIP3    H149646   2.822   4.484   1.126 -1.1424 -0.6880  0.5400
 9385TIP3    H249647   2.815   4.558   1.258  0.2938  0.3340  0.0609
 9386TIP3   OH249648   1.808   2.841   4.518  0.1858 -0.3770  0.0669
 9386TIP3    H149649   1.737   2.905   4.529 -0.7998 -1.6122  1.4333
 9386TIP3    H249650   1.851   2.866   4.437 -0.2854  1.8800  0.4427
 9387TIP3   OH249651   4.951   3.864   3.787 -0.4338 -0.2289 -0.2380
 9387TIP3    H149652   4.892   3.806   3.835  0.2234 -1.1127 -0.4801
 9387TIP3    H249653   4.898   3.898   3.715 -0.8350 -0.4808 -0.0654
 9388TIP3   OH249654   5.239   3.537   3.189 -0.1650 -0.1715 -0.2427
 9388TIP3    H149655   5.185   3.551   3.267  0.0556  0.1405 -0.1438
 9388TIP3    H249656   5.218   3.448   3.161 -1.0153  0.0817 -0.4320
 9389TIP3   OH249657   5.139   1.601  13.227  0.0315 -0.0703 -0.7055
 9389TIP3    H149658   5.089   1.528  13.189 -0.0233 -0.0584 -0.6565
 9389TIP3    H249659   5.105   1.679  13.183 -0.8244  0.0642  0.1806
 9390TIP3   OH249660   3.889   3.720   6.130  0.5060  0.1278 -0.2657
 9390TIP3    H149661   3.929   3.803   6.154  0.4864  0.0084  0.1812
 9390TIP3    H249662   3.819   3.743   6.070 -0.6307  0.5961  1.1892
 9391TIP3   OH249663   4.396   1.279  13.132  0.2326 -0.1360  0.5130
 9391TIP3    H149664   4.465   1.331  13.091 -0.2777  0.6115  0.5884
 9391TIP3    H249665   4.395   1.310  13.223 -0.4352  0.1050  0.4241
 9392TIP3   OH249666   4.846   3.388  11.463  0.1077  0.1072 -0.4261
 9392TIP3    H149667   4.931   3.363  11.427  0.4749 -1.4718  1.3859
 9392TIP3    H249668   4.866   3.448  11.535 -0.3112 -0.1675 -0.0717
 9393TIP3   OH249669   3.760   0.317  16.726  0.2436  0.4350 -0.9597
 9393TIP3    H149670   3.754   0.310  16.631 -1.7759 -3.2599 -0.7657
 9393TIP3    H249671   3.852   0.301  16.746  0.4324 -0.2276 -2.2723
 9394TIP3   OH249672   4.435   6.434   3.179 -0.7425 -0.7501  0.3988
 9394TIP3    H149673   4.371   6.390   3.235  0.1004 -1.9337  0.4803
 9394TIP3    H249674   4.512   6.446   3.235 -0.1194 -1.3596 -0.2950
 9395TIP3   OH249675   6.713   1.024  11.840 -0.2382  0.1607 -0.0731
 9395TIP3    H149676   6.674   0.958  11.897 -1.4598  1.7550  1.0275
 9395TIP3    H249677   6.716   0.983  11.754  0.5007 -1.8704  0.8627
 9396TIP3   OH249678   1.219   0.841  17.070 -0.1979 -0.3856 -0.0534
 9396TIP3    H149679   1.292   0.780  17.083  1.1762  1.2056  0.1147
 9396TIP3    H249680   1.147   0.804  17.120  0.7796 -1.5489  0.5479
 9397TIP3   OH249681   4.168   3.230  13.117  0.6891 -0.8120 -0.5051
 9397TIP3    H149682   4.163   3.159  13.053 -0.2630 -1.9168  0.7270
 9397TIP3    H249683   4.077   3.249  13.139  0.9075  1.0929 -1.0726
 9398TIP3   OH249684   5.210   1.919   0.654  0.2379  0.4553  0.2570
 9398TIP3    H149685   5.211   1.826   0.676 -0.8645  0.7603  1.8022
 9398TIP3    H249686   5.117   1.944   0.660  0.3420  1.3618 -1.4733
 9399TIP3   OH249687   1.185   5.535  13.506 -1.1991 -0.0245 -0.3814
 9399TIP3    H149688   1.125   5.603  13.537 -0.5131  0.4037  0.0248
 9399TIP3    H249689   1.271   5.576  13.511 -0.6871 -1.1820  0.6094
 9400TIP3   OH249690   2.343   1.379   3.499  0.1198  0.3118  0.2321
 9400TIP3    H149691   2.428   1.407   3.464  1.1481 -1.7274  0.9507
 9400TIP3    H249692   2.357   1.371   3.593  0.7681 -4.6915 -0.0001
 9401TIP3   OH249693   1.720   4.334  14.578  0.6351  0.0363  0.0072
 9401TIP3    H149694   1.745   4.257  14.628  0.7970  0.9551  1.3846
 9401TIP3    H249695   1.720   4.304  14.487  0.1529 -1.7196  0.5463
 9402TIP3   OH249696   4.897   4.912  11.538 -0.3044  0.3117  0.0468
 9402TIP3    H149697   4.830   4.961  11.490 -0.2025  1.5269  1.1212
 9402TIP3    H249698   4.969   4.903  11.475 -1.3386 -0.8287 -1.0542
 9403TIP3   OH249699   6.396   1.801   4.045 -0.0991 -0.0489  0.0605
 9403TIP3    H149700   6.387   1.760   3.958 -0.5258  1.1372 -0.4739
 9403TIP3    H249701   6.488   1.827   4.050 -0.2733  0.6666 -0.4028
 9404TIP3   OH249702   5.292   3.448  11.323 -0.2929 -0.3734 -0.0043
 9404TIP3    H149703   5.320   3.503  11.397 -0.5917 -1.8771  1.2945
 9404TIP3    H249704   5.225   3.390  11.361  0.4084 -1.9975 -1.1509
 9405TIP3   OH249705   3.603   6.534   1.032 -0.5155 -0.3656 -0.2593
 9405TIP3    H149706   3.641   6.505   1.116  2.3159 -0.4710 -1.4435
 9405TIP3    H249707   3.652   6.614   1.011 -2.8003  0.9709 -0.7655
 9406TIP3   OH249708   2.163   6.084   0.286  0.6071 -0.0599 -0.2182
 9406TIP3    H149709   2.240   6.080   0.230  0.8135 -2.6845  0.1280
 9406TIP3    H249710   2.111   6.156   0.251  1.8311 -0.1067 -2.2900
 9407TIP3   OH249711   4.595   1.595  16.686 -0.5849 -0.0847 -0.0521
 9407TIP3    H149712   4.567   1.550  16.607 -1.4796  0.8748 -0.2981
 9407TIP3    H249713   4.635   1.676  16.656 -0.9954  0.3230  0.4717
 9408TIP3   OH249714   0.402   0.119  12.343  0.1451 -0.0271 -0.4703
 9408TIP3    H149715   0.443   0.105  12.428 -1.9629 -0.0280  0.5973
 9408TIP3    H249716   0.316   0.156  12.363 -0.3015  0.2436 -2.6165
 9409TIP3   OH249717   0.918   3.812   2.646 -0.1601 -0.3291  0.5907
 9409TIP3    H149718   0.979   3.783   2.578 -0.0186  0.7406  0.2436
 9409TIP3    H249719   0.950   3.770   2.726 -0.3884 -1.6910  0.0087
 9410TIP3   OH249720   5.466   6.145  17.014  0.1868  0.4884 -0.3367
 9410TIP3    H149721   5.404   6.218  17.013 -0.0940  0.4333  2.6743
 9410TIP3    H249722   5.513   6.155  17.097  0.9886 -2.0785 -0.3892
 9411TIP3   OH249723   4.368   3.425  12.826 -0.3372  0.4431 -0.0600
 9411TIP3    H149724   4.341   3.501  12.776  0.8196 -0.0509 -1.4945
 9411TIP3    H249725   4.328   3.351  12.780  1.3189 -0.0769 -0.7434
 9412TIP3   OH249726   5.091   0.347   5.588 -0.0990 -0.9154  0.4555
 9412TIP3    H149727   5.040   0.293   5.528 -0.2210 -0.9762  0.6123
 9412TIP3    H249728   5.182   0.324   5.569 -0.0469  0.3172 -0.8926
 9413TIP3   OH249729   2.499   6.259   3.865 -0.2295 -0.4017  0.2173
 9413TIP3    H149730   2.524   6.334   3.920 -0.7972 -0.3542  0.4171
 9413TIP3    H249731   2.461   6.196   3.926  0.7671 -1.1039  0.1385
 9414TIP3   OH249732   3.785   6.206   2.695 -0.1146 -0.7767 -0.1466
 9414TIP3    H149733   3.704   6.228   2.741 -0.1168 -0.3126 -0.3717
 9414TIP3    H249734   3.854   6.215   2.761 -0.3019 -1.7373  0.2027
 9415TIP3   OH249735   3.463   5.644  16.907  0.2578 -0.3258 -0.1341
 9415TIP3    H149736   3.424   5.632  16.994  0.7592 -1.5367 -0.0598
 9415TIP3    H249737   3.544   5.693  16.924 -0.4427  0.8728 -0.1227
 9416TIP3   OH249738   2.213   4.078  14.197  0.1189  0.5443  0.4837
 9416TIP3    H149739   2.230   4.135  14.272  1.1736  0.2254  0.5049
 9416TIP3    H249740   2.179   4.137  14.130  0.9652  1.1649  0.5877
 9417TIP3   OH249741   0.170   3.272  13.737 -0.0493  0.1787  0.3204
 9417TIP3    H149742   0.148   3.352  13.689  1.9799  0.5689 -0.0858
 9417TIP3    H249743   0.155   3.294  13.829 -0.6306  0.6240  0.1216
 9418TIP3   OH249744   2.844   5.912  14.029 -0.6546 -0.0612 -0.6568
 9418TIP3    H149745   2.830   5.819  14.045  0.3901 -0.1197  0.0320
 9418TIP3    H249746   2.801   5.956  14.103 -0.0945 -0.0701 -0.3198
 9419TIP3   OH249747   3.763   3.119   3.488 -0.3674  0.5526 -0.2822
 9419TIP3    H149748   3.847   3.110   3.444  0.6301  0.1465  1.6058
 9419TIP3    H249749   3.749   3.214   3.494 -0.2463  0.6166 -0.9241
 9420TIP3   OH249750   1.362   2.755   4.035  0.1214 -0.1820 -0.0426
 9420TIP3    H149751   1.284   2.705   4.058  0.5501 -0.3324  1.1620
 9420TIP3    H249752   1.346   2.842   4.073 -0.6342  0.6475 -2.1420
 9421TIP3   OH249753   5.212   6.058  12.415 -0.1663  0.3471 -0.1644
 9421TIP3    H149754   5.164   6.140  12.409 -0.3695  0.3504  1.2062
 9421TIP3    H249755   5.304   6.083  12.418 -0.2052  0.4946 -0.2212
 9422TIP3   OH249756   1.344   6.202  15.729 -0.0346 -0.2721 -0.0383
 9422TIP3    H149757   1.317   6.117  15.762 -0.5477  0.5276  1.7179
 9422TIP3    H249758   1.408   6.233  15.793 -0.7817  1.1894  0.0335
 9423TIP3   OH249759   4.374   6.421  14.206  0.2478  0.1858 -0.3257
 9423TIP3    H149760   4.322   6.341  14.215 -1.1198  1.0717  0.0150
 9423TIP3    H249761   4.407   6.439  14.294 -0.1908  0.4765 -0.2197
 9424TIP3   OH249762   5.937   3.288  15.647 -0.0358  0.5650 -0.0543
 9424TIP3    H149763   5.935   3.359  15.583 -0.1154  0.0524 -0.6395
 9424TIP3    H249764   5.916   3.329  15.730  1.9347  1.5877 -0.0100
 9425TIP3   OH249765   6.677   2.576   2.439 -0.3421 -0.1467 -0.1097
 9425TIP3    H149766   6.748   2.594   2.377 -0.3466  1.5714  0.3243
 9425TIP3    H249767   6.598   2.605   2.395 -0.7999 -1.9788 -0.5548
 9426TIP3   OH249768   1.519   3.399  12.921  0.4491  0.4896  0.5564
 9426TIP3    H149769   1.502   3.319  12.871  0.5008  0.4944  0.5306
 9426TIP3    H249770   1.610   3.421  12.900 -0.5111  2.4431 -2.1601
 9427TIP3   OH249771   5.048   6.330  14.400 -0.0089  0.5050  0.5550
 9427TIP3    H149772   5.036   6.310  14.307 -0.1640  1.4407  0.3555
 9427TIP3    H249773   4.960   6.355  14.431  0.1219  0.6240  0.8394
 9428TIP3   OH249774   3.386   1.832   3.961 -0.9023 -0.0950 -0.3418
 9428TIP3    H149775   3.368   1.825   3.867  1.2909  1.2327 -0.9293
 9428TIP3    H249776   3.402   1.925   3.976  2.1031 -0.6446  0.6098
 9429TIP3   OH249777   2.887   0.518   6.266 -0.3241 -0.2039  0.0164
 9429TIP3    H149778   2.922   0.607   6.269  1.4881 -0.8890  0.6075
 9429TIP3    H249779   2.792   0.530   6.271 -0.0840  1.6427  2.1622
 9430TIP3   OH249780   2.400   2.549  10.775  0.0652  0.2705  0.1423
 9430TIP3    H149781   2.408   2.462  10.814 -0.9280 -0.2989 -0.8611
 9430TIP3    H249782   2.333   2.593  10.827  0.7388  0.5376  0.8004
 9431TIP3   OH249783   6.471   5.829   3.985  0.3153  0.2587  0.0902
 9431TIP3    H149784   6.560   5.848   3.954  0.5166 -0.7872 -0.0208
 9431TIP3    H249785   6.453   5.740   3.953 -0.5422  0.2312  0.6157
 9432TIP3   OH249786   4.198   5.602   1.837  0.2925  0.6961  0.2424
 9432TIP3    H149787   4.270   5.553   1.797  0.6375  0.8618  0.6623
 9432TIP3    H249788   4.173   5.551   1.914  1.0540  1.4745  1.0271
 9433TIP3   OH249789   6.218   3.972  13.647  0.4160 -0.5060 -0.0458
 9433TIP3    H149790   6.298   3.922  13.664  0.0322 -1.4650 -0.9907
 9433TIP3    H249791   6.172   3.973  13.731  0.4697 -1.6809  0.0073
 9434TIP3   OH249792   2.289   3.354  16.683  0.6179 -0.3310  0.2121
 9434TIP3    H149793   2.340   3.367  16.603  1.5037 -0.3848  0.7487
 9434TIP3    H249794   2.326   3.417  16.745 -0.0426 -0.3070  0.5838
 9435TIP3   OH249795   5.832   4.129   1.085  0.1176  0.4364  0.1285
 9435TIP3    H149796   5.926   4.141   1.067 -0.1144  0.6050 -1.0659
 9435TIP3    H249797   5.826   4.129   1.180  1.2386  1.1994  0.2278
 9436TIP3   OH249798   0.314   4.662   0.851  0.1946  0.5574  0.0797
 9436TIP3    H149799   0.402   4.623   0.848  0.0268 -0.1203  2.3084
 9436TIP3    H249800   0.323   4.736   0.911 -0.2741  1.9881 -1.5157
 9437TIP3   OH249801   4.804   4.704  13.734  0.3441 -0.0622 -0.0863
 9437TIP3    H149802   4.718   4.686  13.697  0.7679  0.2433 -1.2488
 9437TIP3    H249803   4.813   4.641  13.806 -0.6669 -0.3741 -0.2230
 9438TIP3   OH249804   5.094   1.771   1.792 -0.3015 -0.1396 -0.5693
 9438TIP3    H149805   5.170   1.817   1.755 -0.8767 -0.6000 -2.4268
 9438TIP3    H249806   5.120   1.750   1.882  0.7391  2.0377 -0.2817
 9439TIP3   OH249807   0.363   6.822  16.587  0.3795  0.0801 -0.1087
 9439TIP3    H149808   0.290   6.788  16.638  0.8595 -1.2809 -0.2862
 9439TIP3    H249809   0.328   6.834  16.499  0.1648  0.1494 -0.0129
 9440TIP3   OH249810   3.488   3.704   3.222 -0.3949  0.0083  0.2189
 9440TIP3    H149811   3.518   3.696   3.131 -0.7006 -1.5994  0.2434
 9440TIP3    H249812   3.568   3.716   3.273 -0.2975  2.2020 -0.3503
 9441TIP3   OH249813   0.378   0.533   5.931 -0.3987 -0.6432  0.2026
 9441TIP3    H149814   0.339   0.450   5.905 -0.9783 -0.4228  0.3593
 9441TIP3    H249815   0.363   0.538   6.025  1.3908 -1.2822  0.5736
 9442TIP3   OH249816   1.389   1.946  14.920 -0.0734 -0.3626 -0.0313
 9442TIP3    H149817   1.427   1.882  14.860 -0.5024 -0.2103 -0.4723
 9442TIP3    H249818   1.317   1.985  14.871  1.2198  1.6998 -0.4229
 9443TIP3   OH249819   0.716   2.984  10.791 -0.2368  0.2165  0.1330
 9443TIP3    H149820   0.620   2.985  10.788 -0.3306  0.4312  2.0532
 9443TIP3    H249821   0.742   3.058  10.736 -1.1514  0.1632 -0.4098
 9444TIP3   OH249822   1.977   4.445   6.513 -0.0294 -0.0653  0.5617
 9444TIP3    H149823   2.063   4.406   6.496 -0.8978 -1.8349  0.0876
 9444TIP3    H249824   1.970   4.516   6.450 -0.4089 -2.2762 -2.0768
 9445TIP3   OH249825   3.382   6.055  11.587 -0.9707 -0.2005 -0.3972
 9445TIP3    H149826   3.385   6.002  11.507  2.0606 -0.6857 -0.0953
 9445TIP3    H249827   3.366   5.992  11.657  1.6700 -0.6868 -0.1418
 9446TIP3   OH249828   2.868   6.162   1.266 -0.1428 -0.4837  0.0258
 9446TIP3    H149829   2.903   6.248   1.241 -0.2868 -0.3343  0.3357
 9446TIP3    H249830   2.945   6.106   1.273 -0.0698 -0.4386 -0.4104
 9447TIP3   OH249831   0.822   5.030  13.039  0.1007 -0.0397  0.2199
 9447TIP3    H149832   0.812   5.011  13.132  0.8839 -1.0139  0.1183
 9447TIP3    H249833   0.886   4.967  13.008  0.5333  0.8618 -0.7936
 9448TIP3   OH249834   6.834   5.152  12.512 -0.0922 -0.1441  0.2473
 9448TIP3    H149835   6.908   5.189  12.463 -1.5504  0.7586 -1.3832
 9448TIP3    H249836   6.852   5.174  12.603  2.1296 -0.8390  0.0453
 9449TIP3   OH249837   2.541   0.155   5.697 -0.5497  0.6830 -0.4478
 9449TIP3    H149838   2.502   0.068   5.707 -1.7151  1.0589 -1.4936
 9449TIP3    H249839   2.625   0.139   5.655 -1.6287  0.1783 -2.5453
 9450TIP3   OH249840   1.050   0.905   5.712 -0.7086 -0.3078 -0.1087
 9450TIP3    H149841   1.106   0.964   5.663 -1.3377 -0.4355 -0.9986
 9450TIP3    H249842   1.089   0.818   5.699 -0.7473 -0.3115 -0.2012
 9451TIP3   OH249843   1.827   4.956  12.907 -0.2217  0.9080  0.2576
 9451TIP3    H149844   1.745   4.917  12.939 -0.3020  0.4346 -0.5037
 9451TIP3    H249845   1.805   5.048  12.893 -0.8224  0.6521 -0.5641
 9452TIP3   OH249846   3.154   2.303   0.492 -0.7368 -0.1481  0.0186
 9452TIP3    H149847   3.189   2.225   0.534 -1.7920 -0.4939  0.2993
 9452TIP3    H249848   3.108   2.349   0.563 -0.1143  0.7457 -0.1366
 9453TIP3   OH249849   0.911   1.965   3.748  0.1739  0.0651  0.8692
 9453TIP3    H149850   0.885   2.057   3.754  1.2439  0.3331  1.8043
 9453TIP3    H249851   0.848   1.918   3.802 -0.0048  0.3339  0.8968
 9454TIP3   OH249852   1.569   0.807  12.150 -0.0189  0.6105 -0.0160
 9454TIP3    H149853   1.567   0.882  12.090 -0.7792  0.8991  0.3570
 9454TIP3    H249854   1.520   0.739  12.106 -1.4237  1.1410  0.6647
 9455TIP3   OH249855   3.831   4.275  15.403 -0.2694  0.4699 -0.4148
 9455TIP3    H149856   3.825   4.183  15.378 -0.7388  0.6630 -1.0126
 9455TIP3    H249857   3.813   4.323  15.323 -2.0910  1.1016  0.3267
 9456TIP3   OH249858   0.618   0.340  10.962 -0.0302 -0.3978  0.1913
 9456TIP3    H149859   0.693   0.381  11.006  0.0516 -0.5837  0.2239
 9456TIP3    H249860   0.597   0.400  10.890  0.3646 -0.5185 -0.0238
 9457TIP3   OH249861   0.969   2.437   0.450  0.0635  0.1055  0.0213
 9457TIP3    H149862   0.913   2.361   0.462  0.8321 -0.4913 -0.0557
 9457TIP3    H249863   0.957   2.490   0.529  0.5755 -0.7983  0.7268
 9458TIP3   OH249864   0.654   6.029   5.401  0.3393  0.3111  0.1045
 9458TIP3    H149865   0.651   6.062   5.311  1.7888  1.3174  0.3899
 9458TIP3    H249866   0.672   5.935   5.391 -1.5644 -0.0166 -0.6680
 9459TIP3   OH249867   6.009   5.741  17.057  0.3196 -0.2644 -0.4976
 9459TIP3    H149868   6.045   5.829  17.064 -0.2645 -0.1288  1.5919
 9459TIP3    H249869   5.942   5.747  16.989  0.3633  0.8862 -0.4511
 9460TIP3   OH249870   6.163   3.823  14.591 -0.0460  0.0300 -0.0575
 9460TIP3    H149871   6.189   3.851  14.678 -0.5581 -0.3812  0.2357
 9460TIP3    H249872   6.067   3.832  14.590 -0.1009 -0.5229 -0.3741
 9461TIP3   OH249873   3.716   4.211   3.805 -0.2989 -0.1247 -0.4676
 9461TIP3    H149874   3.692   4.303   3.795  1.3329  0.3464 -0.3966
 9461TIP3    H249875   3.696   4.192   3.897 -0.5181  0.2058 -0.4434
 9462TIP3   OH249876   1.033   3.417   0.905 -0.0541  0.4392 -0.2560
 9462TIP3    H149877   0.960   3.420   0.844 -0.7524  1.7525  0.5903
 9462TIP3    H249878   1.111   3.408   0.849 -0.8408 -1.2039 -1.1505
 9463TIP3   OH249879   1.780   1.259  17.101 -0.4074 -0.1926 -0.0331
 9463TIP3    H149880   1.800   1.339  17.150 -0.5306 -0.7180  0.8812
 9463TIP3    H249881   1.692   1.234  17.130 -1.1433  0.3340 -1.6692
 9464TIP3   OH249882   5.415   2.466  15.623  0.4363  0.5735  0.3867
 9464TIP3    H149883   5.448   2.552  15.597  1.4219 -0.4138 -1.9095
 9464TIP3    H249884   5.322   2.467  15.599  0.1021  1.4234  1.6316
 9465TIP3   OH249885   0.618   5.841  13.411  0.1594 -0.1080  0.1379
 9465TIP3    H149886   0.549   5.896  13.375 -0.0901 -1.3080 -1.3219
 9465TIP3    H249887   0.577   5.798  13.487 -1.2138 -1.8523 -1.5050
 9466TIP3   OH249888   5.359   2.802  16.349 -0.3122  0.2566  0.3085
 9466TIP3    H149889   5.321   2.765  16.428 -1.1480 -1.8850 -1.0065
 9466TIP3    H249890   5.287   2.848  16.306 -0.0128  0.9049  0.4923
 9467TIP3   OH249891   3.266   4.795   3.003  0.0917 -0.3548 -0.0452
 9467TIP3    H149892   3.340   4.823   2.949 -0.2253  2.7239  0.9245
 9467TIP3    H249893   3.195   4.780   2.939  0.5914  0.1610 -0.7461
 9468TIP3   OH249894   5.364   0.402   0.914  0.1029 -0.1455  0.2325
 9468TIP3    H149895   5.414   0.325   0.940 -0.4168 -0.0937  1.4278
 9468TIP3    H249896   5.410   0.435   0.837 -0.1323 -2.0876 -0.7862
 9469TIP3   OH249897   4.327   3.132   4.879  0.2119 -0.3086 -0.7554
 9469TIP3    H149898   4.250   3.169   4.922 -1.4509 -3.5164 -0.6289
 9469TIP3    H249899   4.360   3.202   4.824 -2.2488  1.5040 -0.0977
 9470TIP3   OH249900   3.036   1.902   2.766  0.0734  0.1232 -0.0264
 9470TIP3    H149901   2.984   1.883   2.844 -0.4763  0.6787 -0.2506
 9470TIP3    H249902   3.072   1.989   2.783  1.9535 -0.7435  0.6686
 9471TIP3   OH249903   5.893   5.494  14.641  0.2039 -0.0652  0.1493
 9471TIP3    H149904   5.845   5.563  14.596  0.1766 -0.8126 -1.0158
 9471TIP3    H249905   5.869   5.504  14.733 -0.8728  0.6143 -0.1828
 9472TIP3   OH249906   0.799   0.206  15.276 -0.3898  0.1258  0.0350
 9472TIP3    H149907   0.798   0.151  15.197 -0.9075 -0.2815  0.3235
 9472TIP3    H249908   0.886   0.192  15.313 -0.8276 -1.2373  0.6103
 9473TIP3   OH249909   5.140   1.624   3.299  0.6037  0.1656 -0.2328
 9473TIP3    H149910   5.158   1.531   3.289 -2.2214 -0.3799 -1.2406
 9473TIP3    H249911   5.107   1.633   3.389  0.0334  0.0248 -0.4271
 9474TIP3   OH249912   1.262   6.656  14.039  0.4710 -1.0269  0.3054
 9474TIP3    H149913   1.214   6.698  13.968  2.5795 -0.0819 -0.6396
 9474TIP3    H249914   1.200   6.593  14.076 -0.2594 -2.7587 -3.3993
 9475TIP3   OH249915   6.246   3.361  12.193  0.5026 -0.1267  0.1314
 9475TIP3    H149916   6.311   3.414  12.238 -1.1313  1.0185  1.2662
 9475TIP3    H249917   6.287   3.275  12.184  1.4844  0.0447  2.4332
 9476TIP3   OH249918   3.399   6.002  16.381 -0.7301 -0.5805 -0.4171
 9476TIP3    H149919   3.306   6.026  16.378 -1.1189 -1.8538  0.2344
 9476TIP3    H249920   3.415   5.957  16.298 -0.7976 -0.6644 -0.3864
 9477TIP3   OH249921   1.335   2.721  15.073  0.4610  0.3578 -0.2793
 9477TIP3    H149922   1.425   2.723  15.107  0.2512  0.0789  0.3092
 9477TIP3    H249923   1.285   2.675  15.141 -0.1427  0.5798 -0.5688
 9478TIP3   OH249924   4.371   0.676   6.269 -0.0419 -0.0471 -0.4438
 9478TIP3    H149925   4.279   0.699   6.260  0.8602  3.4517 -2.6955
 9478TIP3    H249926   4.413   0.757   6.297  2.5679 -1.1287 -0.9707
 9479TIP3   OH249927   3.101   6.142  12.060  0.3851 -0.2909 -0.6537
 9479TIP3    H149928   3.113   6.062  12.111 -3.1278 -0.8664 -0.4751
 9479TIP3    H249929   3.089   6.111  11.970  1.6048  0.2925 -1.0296
 9480TIP3   OH249930   0.881   1.905  10.436 -0.3262 -0.0669  0.0425
 9480TIP3    H149931   0.852   1.988  10.398 -0.1495 -0.1405 -0.2576
 9480TIP3    H249932   0.822   1.890  10.510  0.0606  0.6698  0.5213
 9481TIP3   OH249933   2.454   0.053  11.126  0.0254  0.4635  0.0641
 9481TIP3    H149934   2.509   0.091  11.057 -0.6929 -0.2766 -0.9529
 9481TIP3    H249935   2.415  -0.025  11.085 -0.5631  0.1083  1.2557
 9482TIP3   OH249936   1.208   6.329  11.283 -0.6514 -0.2736 -0.8058
 9482TIP3    H149937   1.232   6.241  11.254  1.2377  0.2977 -1.1253
 9482TIP3    H249938   1.268   6.346  11.356 -0.4923  1.0106 -1.2174
 9483TIP3   OH249939   4.160   1.206   2.849 -0.5840  0.1851  0.6039
 9483TIP3    H149940   4.117   1.253   2.777  1.7796  0.8926 -0.4496
 9483TIP3    H249941   4.178   1.275   2.914  1.1986  0.4610 -0.1182
 9484TIP3   OH249942   0.647   4.297   4.084  0.3821 -0.4555  0.3442
 9484TIP3    H149943   0.585   4.239   4.127  0.5387  1.3912  3.3984
 9484TIP3    H249944   0.593   4.354   4.030 -0.2739 -0.6807  0.7477
 9485TIP3   OH249945   2.589   1.086  11.042 -0.1516  0.0674  0.6142
 9485TIP3    H149946   2.591   1.045  10.956 -1.9365  0.8871  0.1251
 9485TIP3    H249947   2.626   1.021  11.101  0.8342 -0.6156 -0.7203
 9486TIP3   OH249948   0.057   2.809  14.823 -0.4920  0.0185 -0.2798
 9486TIP3    H149949   0.147   2.835  14.804 -1.0257  1.6247 -0.7365
 9486TIP3    H249950   0.017   2.799  14.737 -0.8945 -0.2052 -0.0679
 9487TIP3   OH249951   3.508   3.593  11.187  0.3125 -0.4291  0.3216
 9487TIP3    H149952   3.469   3.675  11.216 -0.9910 -1.2151  0.8872
 9487TIP3    H249953   3.461   3.526  11.236  1.7897 -1.4849  0.3479
 9488TIP3   OH249954   0.395   5.514  15.126  0.7586 -0.0470  0.0578
 9488TIP3    H149955   0.401   5.549  15.214  1.3106  1.2811 -0.4840
 9488TIP3    H249956   0.328   5.567  15.083  0.0484 -1.0823 -0.1542
 9489TIP3   OH249957   0.841   4.299   3.742  0.6191 -0.2522 -0.1827
 9489TIP3    H149958   0.865   4.280   3.833 -2.3485  0.1925  0.8058
 9489TIP3    H249959   0.920   4.337   3.704  2.0415 -0.7119  2.1030
 9490TIP3   OH249960   4.193   0.667  10.258 -0.1591 -0.0478 -0.2294
 9490TIP3    H149961   4.144   0.684  10.338 -0.2050 -1.6084  0.1086
 9490TIP3    H249962   4.282   0.697  10.277 -0.5480  1.1067 -0.1934
 9491TIP3   OH249963   5.453   4.696   0.154  0.6818 -0.3154 -0.3887
 9491TIP3    H149964   5.359   4.679   0.162  0.3358  1.4737 -0.2352
 9491TIP3    H249965   5.471   4.686   0.060  0.3394 -0.7081 -0.4131
 9492TIP3   OH249966   3.602   5.419   4.993  0.0589  0.2313  0.0773
 9492TIP3    H149967   3.639   5.413   5.081  1.7598  0.7789 -0.5412
 9492TIP3    H249968   3.615   5.511   4.968 -0.3514  0.0718 -0.7562
 9493TIP3   OH249969   1.892   5.877   4.076  0.2633  0.3116  0.7382
 9493TIP3    H149970   1.843   5.794   4.074 -0.6571  0.8211  1.6421
 9493TIP3    H249971   1.898   5.902   3.984 -0.4639 -0.1760  0.5463
 9494TIP3   OH249972   0.073   4.578  10.708 -0.2165  0.1054 -0.2474
 9494TIP3    H149973  -0.015   4.561  10.744 -0.4682  1.0839 -0.3611
 9494TIP3    H249974   0.071   4.671  10.684 -0.0352 -0.4513 -2.7015
 9495TIP3   OH249975   0.326   1.713  15.870 -0.2399  0.3359  0.3318
 9495TIP3    H149976   0.286   1.699  15.955 -0.5985  2.2761  0.5269
 9495TIP3    H249977   0.346   1.806  15.867 -1.3550  0.5859 -2.1640
 9496TIP3   OH249978   1.549   1.727   1.612  0.1897 -0.0080  0.1883
 9496TIP3    H149979   1.572   1.663   1.544 -0.0168 -0.3818  0.4711
 9496TIP3    H249980   1.457   1.709   1.631 -0.3042  1.3363 -0.7776
 9497TIP3   OH249981   6.422   5.962   3.660  0.1512  0.0855  0.3462
 9497TIP3    H149982   6.483   5.890   3.644 -0.9134 -0.8255  0.2628
 9497TIP3    H249983   6.336   5.923   3.649 -0.4731  1.1697  1.1920
 9498TIP3   OH249984   4.195   6.460  15.584  0.0820 -0.2005 -0.1854
 9498TIP3    H149985   4.150   6.539  15.613 -0.3818  0.0052 -1.3958
 9498TIP3    H249986   4.154   6.439  15.500 -1.1719 -2.8232  0.9484
 9499TIP3   OH249987   5.448   5.582   3.691  0.3082 -0.1870  0.4587
 9499TIP3    H149988   5.438   5.509   3.753 -0.7527  0.2834  0.8722
 9499TIP3    H249989   5.450   5.540   3.605 -1.2943 -0.6645  0.6250
 9500TIP3   OH249990   2.464   5.858   5.859 -0.0389  0.7071 -0.0401
 9500TIP3    H149991   2.536   5.905   5.815  1.0120 -2.2667 -1.7797
 9500TIP3    H249992   2.475   5.880   5.951  1.7398  2.0842 -0.5086
 9501TIP3   OH249993   3.424   4.399  11.663 -0.2032  0.0054 -0.0173
 9501TIP3    H149994   3.472   4.320  11.687  0.5461  0.7666  1.0549
 9501TIP3    H249995   3.431   4.456  11.739 -1.9376  0.5632 -0.2220
 9502TIP3   OH249996   0.116   5.837   2.745 -0.0948 -0.4732  0.1623
 9502TIP3    H149997   0.138   5.871   2.832  2.4700  1.3064 -1.0838
 9502TIP3    H249998   0.150   5.747   2.746  1.1664 -0.0083  0.5582
 9503TIP3   OH249999   4.081   0.706   2.195 -0.4599  0.3659  0.1379
 9503TIP3    H150000   4.092   0.793   2.157 -0.2263  1.3550  2.3280
 9503TIP3    H250001   4.163   0.691   2.243  0.0809 -1.6845 -1.2930
 9504TIP3   OH250002   4.462   1.865   3.901 -0.4481  0.3582 -0.4052
 9504TIP3    H150003   4.385   1.917   3.923  1.4844  2.8864  0.8377
 9504TIP3    H250004   4.510   1.918   3.838 -0.4497 -1.9050 -2.4322
 9505TIP3   OH250005   1.298   4.375  16.130 -0.5328  0.0342  0.5887
 9505TIP3    H150006   1.318   4.303  16.070  3.6879  1.6725 -0.3461
 9505TIP3    H250007   1.220   4.416  16.094  0.7419 -0.2216 -2.8173
 9506TIP3   OH250008   4.842   4.480   4.144 -0.6769 -0.5690  0.5277
 9506TIP3    H150009   4.857   4.547   4.211  0.3209  0.7470 -0.9360
 9506TIP3    H250010   4.808   4.529   4.069  0.6238 -1.5888 -0.7826
 9507TIP3   OH250011   2.669   1.922   0.140  0.8794 -0.2520 -0.1066
 9507TIP3    H150012   2.596   1.918   0.201 -0.3663 -0.1265 -1.5249
 9507TIP3    H250013   2.703   2.011   0.149 -0.1929  0.2233 -0.5743
 9508TIP3   OH250014   1.792   2.283   4.669 -0.0296  0.1953  0.2331
 9508TIP3    H150015   1.879   2.311   4.697 -0.2535 -0.0505  1.2248
 9508TIP3    H250016   1.771   2.339   4.594  0.8554  0.4485  0.1648
 9509TIP3   OH250017   0.425   3.241   3.796 -0.1335  0.9926  0.0902
 9509TIP3    H150018   0.332   3.248   3.773  0.2047  0.2747 -1.6696
 9509TIP3    H250019   0.446   3.325   3.837 -1.7453  0.8429  1.3223
 9510TIP3   OH250020   0.736   3.570  14.191 -0.5860 -0.0245 -0.4702
 9510TIP3    H150021   0.826   3.549  14.165 -0.5267  1.1179 -1.2483
 9510TIP3    H250022   0.703   3.489  14.230  1.1919 -0.0970  1.0388
 9511TIP3   OH250023   2.127   4.544  15.494 -0.6508  0.1066  0.6939
 9511TIP3    H150024   2.166   4.568  15.410 -3.4232  0.9057 -0.4953
 9511TIP3    H250025   2.121   4.448  15.491  0.5500  0.0158  0.6432
 9512TIP3   OH250026   0.018   5.713  15.048  0.0565  0.4523  0.3335
 9512TIP3    H150027  -0.005   5.674  15.133 -1.2712 -1.0788 -0.6561
 9512TIP3    H250028   0.074   5.648  15.006 -2.6829 -0.9073 -1.5982
 9513TIP3   OH250029   3.168   2.106  14.559 -0.8478 -0.1951 -0.1797
 9513TIP3    H150030   3.174   2.054  14.639 -0.0238 -0.0204 -0.1136
 9513TIP3    H250031   3.251   2.154  14.556 -1.5585  1.0580 -0.2774
 9514TIP3   OH250032   6.313   1.635   2.312 -0.0526  0.3805  0.1437
 9514TIP3    H150033   6.351   1.722   2.312  0.2921  0.2316 -0.4488
 9514TIP3    H250034   6.388   1.576   2.303 -0.3078  0.0342  0.2590
 9515TIP3   OH250035   1.291   5.094  16.206 -0.2367  0.0895 -0.3648
 9515TIP3    H150036   1.350   5.072  16.279 -0.4583  0.3097 -0.1197
 9515TIP3    H250037   1.274   5.010  16.163  0.5409  0.0741 -0.6524
 9516TIP3   OH250038   2.693   0.915  13.155 -0.1760  0.1525 -0.3082
 9516TIP3    H150039   2.666   0.828  13.184 -0.4609  0.1556 -0.5655
 9516TIP3    H250040   2.776   0.931  13.201  1.1142 -1.2415 -2.0202
 9517TIP3   OH250041   6.762   1.595  13.518  0.0937 -0.4742 -0.2276
 9517TIP3    H150042   6.838   1.543  13.544  0.2903 -1.0977 -1.9179
 9517TIP3    H250043   6.699   1.582  13.589  1.2148 -0.6463  0.7813
 9518TIP3   OH250044   3.685   0.243  12.347 -0.0175  0.1697 -0.1025
 9518TIP3    H150045   3.729   0.319  12.309 -0.0188  0.3771  0.3046
 9518TIP3    H250046   3.739   0.169  12.321  0.1195  0.3362 -0.2965
 9519TIP3   OH250047   0.732   1.627   0.112 -0.2627 -0.9794  0.2044
 9519TIP3    H150048   0.740   1.633   0.207  1.1603  0.1015  0.0346
 9519TIP3    H250049   0.767   1.541   0.090  1.4441 -0.3775  0.4736
 9520TIP3   OH250050   0.828   4.491  11.174  0.4305 -0.0439  0.2387
 9520TIP3    H150051   0.861   4.559  11.115  1.5893  0.0884  0.9977
 9520TIP3    H250052   0.803   4.419  11.117 -0.7610  0.9753 -0.5803
 9521TIP3   OH250053   2.444   2.894  16.752  0.5713  0.0476 -0.2881
 9521TIP3    H150054   2.372   2.950  16.780  1.3599 -0.0342  2.1617
 9521TIP3    H250055   2.521   2.950  16.755  1.1045 -0.6871  0.5583
 9522TIP3   OH250056   5.538   4.907  15.419  0.1048 -0.7051  0.1480
 9522TIP3    H150057   5.576   4.841  15.360  0.6544 -1.3230  1.1760
 9522TIP3    H250058   5.501   4.856  15.491  2.1569  0.1699  1.9120
 9523TIP3   OH250059   5.666   6.543  16.935  0.5732 -0.7962  0.2158
 9523TIP3    H150060   5.626   6.530  17.021  0.0257  1.9288  0.4518
 9523TIP3    H250061   5.647   6.462  16.888 -2.4219 -0.9172  1.4109
 9524TIP3   OH250062   1.226   4.231   2.558  0.1153  0.1087  0.4536
 9524TIP3    H150063   1.152   4.262   2.610 -0.4372 -1.1994  0.5029
 9524TIP3    H250064   1.200   4.247   2.467  0.4678  1.0980  0.5192
 9525TIP3   OH250065   3.440   0.506   2.667  0.1903 -0.1675  0.1602
 9525TIP3    H150066   3.404   0.468   2.587 -0.5718  0.7650  0.0538
 9525TIP3    H250067   3.367   0.505   2.729 -0.2628  2.3465 -0.2595
 9526TIP3   OH250068   2.144   3.462  13.642 -0.6980  0.5384  0.1628
 9526TIP3    H150069   2.215   3.398  13.644 -1.4116 -0.2712  0.2245
 9526TIP3    H250070   2.135   3.492  13.732  0.5658  1.7978 -0.1001
 9527TIP3   OH250071   2.105   2.271  10.714 -0.5801 -0.6702  0.0924
 9527TIP3    H150072   2.183   2.230  10.675 -0.5911 -0.6815  0.0817
 9527TIP3    H250073   2.139   2.345  10.763 -0.7306  0.4105 -1.3647
 9528TIP3   OH250074   1.293   4.332   3.346 -0.4216 -0.1130 -0.2438
 9528TIP3    H150075   1.238   4.344   3.423 -0.6625 -3.3821  0.2348
 9528TIP3    H250076   1.377   4.301   3.380  0.2200  0.4822 -1.2194
 9529TIP3   OH250077   0.267   3.725  13.004 -0.1686  0.3182 -0.5576
 9529TIP3    H150078   0.321   3.651  13.032 -0.2901 -0.1399 -1.4711
 9529TIP3    H250079   0.301   3.748  12.917 -0.2236  1.2547 -0.3459
 9530TIP3   OH250080   4.478   2.266   4.696  0.1077 -0.1360  0.1722
 9530TIP3    H150081   4.564   2.234   4.725 -0.3641 -1.0680  0.5866
 9530TIP3    H250082   4.423   2.188   4.695 -0.4917  0.2735 -1.0546
 9531TIP3   OH250083   6.856   4.831  11.356 -0.6385 -0.0725  0.0149
 9531TIP3    H150084   6.903   4.773  11.416  1.0976  1.3452  0.1194
 9531TIP3    H250085   6.790   4.874  11.410 -0.2614 -0.1010  0.5054
 9532TIP3   OH250086   6.060   1.541   3.961 -0.5072  0.0180  0.0957
 9532TIP3    H150087   6.110   1.492   3.896 -0.8804  2.1851 -1.9865
 9532TIP3    H250088   5.987   1.484   3.984  2.1910 -2.8444  2.4973
 9533TIP3   OH250089   6.521   3.053  14.915  0.0403  0.3112 -0.1097
 9533TIP3    H150090   6.510   3.063  14.820 -0.3227 -1.3456 -0.2680
 9533TIP3    H250091   6.559   3.136  14.943  0.8561  0.5625 -1.8092
 9534TIP3   OH250092   1.213   5.856  16.165 -0.5336  0.7821 -0.1205
 9534TIP3    H150093   1.128   5.899  16.158 -1.4747 -0.8955  0.6187
 9534TIP3    H250094   1.198   5.780  16.220  1.8560  1.4630  1.6564
 9535TIP3   OH250095   3.974   1.636  16.749 -0.0361 -0.3064 -0.7254
 9535TIP3    H150096   4.040   1.618  16.815 -0.4242 -0.7633 -0.4563
 9535TIP3    H250097   3.983   1.730  16.730  1.1803 -0.5034 -1.2344
 9536TIP3   OH250098   5.847   4.958  12.323  0.0783  0.4873  0.5172
 9536TIP3    H150099   5.809   4.990  12.241 -1.3536 -0.2682  0.8483
 9536TIP3    H250100   5.802   4.874  12.339  2.0156 -0.5334  0.8728
 9537TIP3   OH250101   4.367   0.761  11.638  0.6922 -0.0857  0.1267
 9537TIP3    H150102   4.358   0.818  11.715  2.8580  2.7011 -1.4783
 9537TIP3    H250103   4.349   0.818  11.564  2.4160 -1.6252 -1.5683
 9538TIP3   OH250104   0.034   0.468  14.669  0.3499 -0.1493  0.4208
 9538TIP3    H150105   0.123   0.461  14.704  0.9048 -0.2667 -0.9169
 9538TIP3    H250106   0.032   0.553  14.626  0.3449 -0.7482 -0.8413
 9539TIP3   OH250107   3.768   2.822  11.101 -0.2140  0.1987 -0.0484
 9539TIP3    H150108   3.804   2.734  11.089 -0.3454  0.1695 -0.2235
 9539TIP3    H250109   3.818   2.858  11.174  0.0611  0.0973 -0.1862
 9540TIP3   OH250110   2.979   2.244  14.987  0.0047  0.4353 -0.5115
 9540TIP3    H150111   2.999   2.279  14.900 -1.2320  1.5323 -0.3799
 9540TIP3    H250112   2.970   2.322  15.042 -0.6081 -0.1896  0.2878
 9541TIP3   OH250113   4.374   5.747   3.221 -0.1034  0.0955 -0.1160
 9541TIP3    H150114   4.311   5.718   3.287  0.1791  0.6976  0.4293
 9541TIP3    H250115   4.424   5.816   3.264  0.4358  0.1401 -0.7902
 9542TIP3   OH250116   1.704   6.853  12.435  0.5216 -0.0593 -0.6071
 9542TIP3    H150117   1.632   6.821  12.382 -0.6556  2.2705 -0.5356
 9542TIP3    H250118   1.715   6.944  12.409  2.6978 -0.0311  0.2083
 9543TIP3   OH250119   0.361   2.926   2.923 -0.2511  0.4778  0.0090
 9543TIP3    H150120   0.387   2.989   2.856  0.1956  0.0008 -0.2742
 9543TIP3    H250121   0.317   2.857   2.875  0.9725 -0.3694  0.0567
 9544TIP3   OH250122   6.292   1.116  14.941  0.2553 -0.1814  0.1738
 9544TIP3    H150123   6.357   1.174  14.981  0.3559 -0.1668 -0.0112
 9544TIP3    H250124   6.213   1.128  14.994  0.3615 -0.0945  0.3128
 9545TIP3   OH250125   4.250   6.119   2.497  0.4474  0.3306  0.1320
 9545TIP3    H150126   4.342   6.099   2.477  0.8658  0.9471  1.3449
 9545TIP3    H250127   4.253   6.200   2.547 -0.5518 -0.7733  2.1000
 9546TIP3   OH250128   2.889   3.050   4.240  0.0948 -0.1991  0.2456
 9546TIP3    H150129   2.817   3.090   4.191  0.1035 -1.2004 -0.6106
 9546TIP3    H250130   2.860   3.052   4.331  0.0211  1.5841  0.2256
 9547TIP3   OH250131   2.866   3.642   4.822  0.0225 -0.1288  0.1347
 9547TIP3    H150132   2.850   3.732   4.849 -1.5012 -0.5163  0.6340
 9547TIP3    H250133   2.793   3.593   4.859  1.1501 -1.6726  0.3873
 9548TIP3   OH250134   1.986   3.453  14.156 -0.2268 -0.3787  0.1057
 9548TIP3    H150135   2.070   3.412  14.177  0.2935 -0.8525 -2.5312
 9548TIP3    H250136   2.000   3.546  14.171  1.3300 -0.2544 -1.7582
 9549TIP3   OH250137   5.483   4.014  12.168  0.4449 -0.0267  0.0274
 9549TIP3    H150138   5.480   3.960  12.089  2.4550  0.4613 -0.4375
 9549TIP3    H250139   5.450   4.099  12.140 -1.3327 -0.5595  0.3996
 9550TIP3   OH250140   3.757   1.707  15.136  0.1245  0.2160 -0.5755
 9550TIP3    H150141   3.732   1.776  15.074 -1.1804 -0.1446 -0.4878
 9550TIP3    H250142   3.708   1.630  15.107  0.9086 -0.4529 -0.1697
 9551TIP3   OH250143   1.165   4.179  11.853 -0.3046 -0.2448 -0.2306
 9551TIP3    H150144   1.121   4.264  11.852 -2.4369 -1.2117  1.5942
 9551TIP3    H250145   1.258   4.200  11.845 -0.8494  2.1204 -1.4350
 9552TIP3   OH250146   0.551   5.135  15.001  0.0234 -0.0406 -0.0538
 9552TIP3    H150147   0.563   5.218  14.955 -1.3026 -0.3275 -0.9956
 9552TIP3    H250148   0.507   5.159  15.083  1.7375  0.3972  0.7807
 9553TIP3   OH250149   5.579   1.866  11.159  0.4360 -0.4013 -0.0311
 9553TIP3    H150150   5.552   1.783  11.120 -0.6474 -0.7801  1.4634
 9553TIP3    H250151   5.647   1.898  11.100 -0.1362 -1.6280 -1.4389
 9554TIP3   OH250152   6.656   0.510   6.236  0.1663  0.7525 -0.1358
 9554TIP3    H150153   6.626   0.548   6.319 -0.1952 -0.4449  0.2965
 9554TIP3    H250154   6.752   0.517   6.241  0.2053 -0.2910  0.8762
 9555TIP3   OH250155   2.729   5.283   4.027  0.0827  0.0101 -0.0711
 9555TIP3    H150156   2.675   5.211   4.060 -0.5977  0.8156  0.6135
 9555TIP3    H250157   2.737   5.266   3.934 -0.6545 -0.5727 -0.0380
 9556TIP3   OH250158   1.970   4.905   0.071 -0.1219  0.1357 -0.2241
 9556TIP3    H150159   1.914   4.841   0.027 -0.8083 -0.8569  1.9535
 9556TIP3    H250160   2.016   4.950   0.000 -1.7725 -0.7813 -1.9679
 9557TIP3   OH250161   4.207   6.820  15.968  0.7246 -1.0448 -0.3077
 9557TIP3    H150162   4.139   6.787  16.026  1.8088 -0.7250  1.2079
 9557TIP3    H250163   4.259   6.743  15.945  2.2642 -0.7652  1.8935
 9558TIP3   OH250164   1.824   0.846  12.183  0.2146 -0.3850  0.5320
 9558TIP3    H150165   1.728   0.841  12.190  0.2773 -0.6115  1.2534
 9558TIP3    H250166   1.856   0.814  12.267  0.9440 -1.2083 -0.0348
 9559TIP3   OH250167   5.127   5.653  15.920 -0.2940  0.2289 -0.8398
 9559TIP3    H150168   5.160   5.630  15.833  0.8163 -0.0956 -0.3496
 9559TIP3    H250169   5.170   5.735  15.942 -0.2010  0.0694 -0.4068
 9560TIP3   OH250170   2.472   1.997  15.073 -0.3627  0.0054 -0.1420
 9560TIP3    H150171   2.560   2.029  15.053  0.8228 -2.3376  0.8689
 9560TIP3    H250172   2.419   2.076  15.079  2.1636  1.7736  1.5745
 9561TIP3   OH250173   0.327   4.746  15.292 -0.9892 -0.3065 -0.0021
 9561TIP3    H150174   0.250   4.723  15.343  0.7840 -0.5802  2.7546
 9561TIP3    H250175   0.366   4.662  15.267 -1.1093 -0.1815 -0.6155
 9562TIP3   OH250176   6.044   0.623  12.410  0.0881 -0.1273 -0.1683
 9562TIP3    H150177   6.047   0.640  12.504 -1.3785 -0.6756  0.0102
 9562TIP3    H250178   6.065   0.530  12.402 -0.7567 -0.3147 -0.2782
 9563TIP3   OH250179   1.715   0.192   0.594 -0.4025 -0.1110 -1.0769
 9563TIP3    H150180   1.715   0.191   0.498 -0.4898 -1.7444 -1.0766
 9563TIP3    H250181   1.635   0.238   0.617 -0.5594 -0.0186 -1.7847
 9564TIP3   OH250182   3.049   3.765   3.248 -0.2538  0.1157 -0.0222
 9564TIP3    H150183   3.044   3.686   3.303  0.0500  0.2077  0.1453
 9564TIP3    H250184   3.086   3.832   3.306 -1.4097  0.6466  0.1158
 9565TIP3   OH250185   4.291   4.550  13.853 -0.5323  0.3431  0.0321
 9565TIP3    H150186   4.361   4.562  13.789 -0.1873  0.8365  0.4930
 9565TIP3    H250187   4.335   4.517  13.931 -0.9653 -0.3363 -0.0079
 9566TIP3   OH250188   6.472   4.140  15.392  0.1563 -0.2212  0.0664
 9566TIP3    H150189   6.485   4.200  15.318  0.0368  0.0425  0.2584
 9566TIP3    H250190   6.380   4.115  15.387 -0.1630  0.7222  0.8114
 9567TIP3   OH250191   2.561   0.271  15.284 -0.5421  0.3352  0.2272
 9567TIP3    H150192   2.471   0.276  15.252 -0.5374  0.9703  0.2881
 9567TIP3    H250193   2.603   0.349  15.247 -1.0667  2.3232  3.3837
 9568TIP3   OH250194   2.755   5.396   6.371  0.3854 -0.0312 -0.0786
 9568TIP3    H150195   2.715   5.332   6.431 -1.2649  1.3902  0.4309
 9568TIP3    H250196   2.698   5.395   6.294  0.1141  1.0790  0.0930
 9569TIP3   OH250197   4.221   1.502   1.646 -0.3514  0.2641  0.3600
 9569TIP3    H150198   4.134   1.488   1.610 -0.3720  1.4591 -0.0875
 9569TIP3    H250199   4.211   1.575   1.708  0.9348  2.9729 -2.3744
 9570TIP3   OH250200   2.165   6.182   4.650  0.5188 -0.0991 -0.5491
 9570TIP3    H150201   2.116   6.117   4.700 -0.0784  2.2483  2.1803
 9570TIP3    H250202   2.254   6.175   4.682  0.8444 -0.6980 -1.5389
 9571TIP3   OH250203   3.267   1.129  12.711 -0.5703 -0.3883 -0.2300
 9571TIP3    H150204   3.278   1.038  12.738  0.4122 -0.2443 -0.1065
 9571TIP3    H250205   3.338   1.176  12.755 -0.5086  0.2847 -1.0100
 9572TIP3   OH250206   3.597   0.678  13.352 -0.2835 -0.2868 -0.0998
 9572TIP3    H150207   3.647   0.654  13.274 -0.0404 -1.0121  0.2702
 9572TIP3    H250208   3.508   0.694  13.321 -0.1915 -0.5925 -0.5198
 9573TIP3   OH250209   0.987   3.739  16.784  0.0365 -0.4475 -0.0100
 9573TIP3    H150210   0.993   3.750  16.689  0.1183 -0.5968 -0.0209
 9573TIP3    H250211   1.058   3.794  16.818  0.7574 -1.3009 -0.0923
 9574TIP3   OH250212   5.458   5.955   0.202 -0.2765 -0.5872  0.0547
 9574TIP3    H150213   5.391   5.912   0.148  0.3171 -0.2301 -0.9826
 9574TIP3    H250214   5.534   5.962   0.145 -0.1817  1.3981  0.3566
 9575TIP3   OH250215   2.945   4.761   3.500  0.6999  0.2706 -0.3531
 9575TIP3    H150216   2.987   4.838   3.461  0.2401 -0.2060 -1.8761
 9575TIP3    H250217   2.863   4.795   3.537  0.4442  0.5134 -1.1151
 9576TIP3   OH250218   3.588   2.301   5.168  0.2556 -0.1586  0.4158
 9576TIP3    H150219   3.547   2.276   5.251 -0.0832  0.1839  0.3550
 9576TIP3    H250220   3.682   2.293   5.185  0.2580  1.3827  1.3211
 9577TIP3   OH250221   1.965   3.511   3.107 -0.0530 -0.3664  0.2385
 9577TIP3    H150222   1.896   3.575   3.093  0.6658 -0.1914 -4.0093
 9577TIP3    H250223   1.930   3.430   3.069  1.1089 -0.9267  0.3183
 9578TIP3   OH250224   5.491   4.098  15.888  0.1375 -0.3316  0.2590
 9578TIP3    H150225   5.483   4.192  15.905  0.1027 -0.0823 -1.0339
 9578TIP3    H250226   5.583   4.085  15.869  0.0087 -0.4269 -0.3040
 9579TIP3   OH250227   1.083   1.791  11.029  1.0741  0.4178  0.6817
 9579TIP3    H150228   1.094   1.831  11.116 -2.9071  1.9457  0.7214
 9579TIP3    H250229   1.112   1.859  10.968 -0.1507  1.1542  0.8602
 9580TIP3   OH250230   3.850   3.820   4.428 -0.3813 -0.8073  0.2296
 9580TIP3    H150231   3.867   3.872   4.506 -0.8294 -0.1524 -0.1017
 9580TIP3    H250232   3.774   3.766   4.451  0.2857 -1.5787  0.6872
 9581TIP3   OH250233   0.463   6.552  15.129  0.6503 -0.2659 -0.6403
 9581TIP3    H150234   0.500   6.492  15.194 -0.4930 -0.5724 -0.2532
 9581TIP3    H250235   0.532   6.618  15.116  0.0438  1.2610  2.7721
 9582TIP3   OH250236   3.824   3.209   5.251 -0.1916  0.0743  0.6236
 9582TIP3    H150237   3.800   3.163   5.171 -1.8295  1.6320  0.1342
 9582TIP3    H250238   3.758   3.183   5.315 -0.4958  0.8606  0.6512
 9583TIP3   OH250239   6.800   1.217   1.841  0.4692  0.3609 -0.0701
 9583TIP3    H150240   6.875   1.238   1.897 -0.8277  0.0014  1.9001
 9583TIP3    H250241   6.724   1.243   1.893 -0.8742 -1.8942 -0.8100
 9584TIP3   OH250242   0.120   6.557   6.678  0.0474  0.7095  0.2414
 9584TIP3    H150243   0.171   6.626   6.635 -1.1802  1.0791 -0.6593
 9584TIP3    H250244   0.128   6.481   6.621 -1.0078  0.9931 -0.3055
 9585TIP3   OH250245   3.093   1.687   4.640  0.4078  0.5364  0.1843
 9585TIP3    H150246   3.136   1.669   4.556  0.1794 -0.6368  0.3021
 9585TIP3    H250247   3.160   1.669   4.706  0.4333  0.9649  0.2773
 9586TIP3   OH250248   3.078   4.339   1.015 -1.0609 -0.1619  0.4845
 9586TIP3    H150249   3.091   4.303   1.103 -0.8182  0.6326  0.7857
 9586TIP3    H250250   3.162   4.381   0.995 -1.5129  0.7182  0.3867
 9587TIP3   OH250251   0.698   0.279   0.173  0.6062  0.1292  0.0749
 9587TIP3    H150252   0.701   0.223   0.251 -1.4380 -0.8256 -0.4565
 9587TIP3    H250253   0.725   0.221   0.101 -2.0362 -0.4427 -0.5588
 9588TIP3   OH250254   1.170   5.284   1.783  0.5314 -0.3679  0.1642
 9588TIP3    H150255   1.204   5.210   1.834  0.1681 -0.0373  0.9119
 9588TIP3    H250256   1.112   5.244   1.718 -1.1883 -0.6719  1.7756
 9589TIP3   OH250257   1.320   6.802   5.752 -0.6542  0.2010 -0.2703
 9589TIP3    H150258   1.239   6.843   5.723 -1.2701 -0.6453  0.2324
 9589TIP3    H250259   1.389   6.855   5.712 -1.3573  2.7405  1.6273
 9590TIP3   OH250260   2.056   5.123   1.650  0.4009 -0.6985 -0.7046
 9590TIP3    H150261   2.075   5.034   1.620  2.2601 -0.8595  0.7655
 9590TIP3    H250262   2.104   5.180   1.589 -0.4911 -0.6961 -1.4239
 9591TIP3   OH250263   6.823   0.730  11.062 -0.7557 -0.1492 -0.1254
 9591TIP3    H150264   6.872   0.812  11.052 -1.0552  0.1496  0.7481
 9591TIP3    H250265   6.731   0.758  11.061 -0.8456 -0.4100  0.6980
 9592TIP3   OH250266   6.137   5.295  11.297  0.0289  0.3005 -0.2594
 9592TIP3    H150267   6.168   5.292  11.388  0.8499  0.2470 -0.5273
 9592TIP3    H250268   6.167   5.212  11.259  0.8275  0.8718 -0.9183
 9593TIP3   OH250269   6.510   4.926   4.956  0.1197 -0.3500 -0.2281
 9593TIP3    H150270   6.466   4.879   4.885  0.3318 -0.7868 -0.0728
 9593TIP3    H250271   6.591   4.878   4.971  0.6033  0.3913 -0.4379
 9594TIP3   OH250272   3.022   5.297   4.847  0.5199  0.3918  0.3806
 9594TIP3    H150273   3.095   5.259   4.798  0.8263  0.8764  0.4512
 9594TIP3    H250274   3.063   5.341   4.921  0.2311  1.3019  0.0252
 9595TIP3   OH250275   6.829   0.982   5.822 -0.1774 -0.0452  0.5602
 9595TIP3    H150276   6.859   0.947   5.738  0.6709 -0.9465  1.2153
 9595TIP3    H250277   6.844   0.911   5.885  1.9819  1.5761  2.0255
 9596TIP3   OH250278   3.405   4.941  12.585 -0.2217  0.4395 -0.6576
 9596TIP3    H150279   3.313   4.915  12.585 -0.3848  0.5293  2.6330
 9596TIP3    H250280   3.450   4.869  12.628  0.8691  1.3098 -0.2901
 9597TIP3   OH250281   0.237   0.176   2.758 -0.5811 -0.4079  0.4297
 9597TIP3    H150282   0.287   0.094   2.755  1.1189  0.5400  1.2629
 9597TIP3    H250283   0.259   0.220   2.676  0.1906  0.1179  0.9039
 9598TIP3   OH250284   1.943   4.556  14.035 -0.0752 -0.5351 -0.6058
 9598TIP3    H150285   1.995   4.600  14.102 -1.1345  1.1682 -0.8366
 9598TIP3    H250286   1.886   4.496  14.084  1.0771 -1.3749 -0.2507
 9599TIP3   OH250287   0.184   5.653   1.689 -0.2052 -0.0345 -0.5298
 9599TIP3    H150288   0.231   5.731   1.719 -1.3372  0.4923 -0.0616
 9599TIP3    H250289   0.106   5.687   1.647 -1.0295 -0.9218  0.2402
 9600TIP3   OH250290   1.155   2.720   0.158  0.0334  0.1011  0.2773
 9600TIP3    H150291   1.151   2.625   0.147 -0.0950 -0.0429  1.4726
 9600TIP3    H250292   1.096   2.739   0.231  0.4067  1.0460  0.3523
 9601TIP3   OH250293   0.797   6.203   1.115 -0.0157  0.6849 -0.0150
 9601TIP3    H150294   0.878   6.201   1.064  0.1785  0.2437  0.3095
 9601TIP3    H250295   0.728   6.213   1.049  0.1851 -0.4703 -0.4329
 9602TIP3   OH250296   1.470   5.754   0.672 -0.4503  0.7139 -0.0458
 9602TIP3    H150297   1.392   5.759   0.729  0.5638  0.8981  1.3856
 9602TIP3    H250298   1.533   5.704   0.723  1.2675  2.7263 -0.0421
 9603TIP3   OH250299   4.398   4.381   5.466  0.0915  0.7254 -0.3059
 9603TIP3    H150300   4.473   4.339   5.424  0.5804 -0.9216  1.9709
 9603TIP3    H250301   4.330   4.384   5.399  1.1968 -0.5880 -1.5418
 9604TIP3   OH250302   1.892   0.270   0.956  0.1628  0.0699  0.0779
 9604TIP3    H150303   1.907   0.360   0.986  0.7342  0.2973 -0.8430
 9604TIP3    H250304   1.961   0.219   0.998 -0.4925 -0.0485  1.0388
 9605TIP3   OH250305   3.275   0.829  11.817 -0.6344  0.4824  0.0989
 9605TIP3    H150306   3.360   0.842  11.774  0.5509 -1.9867  1.4905
 9605TIP3    H250307   3.281   0.742  11.856 -2.8754  1.2501  2.4307
 9606TIP3   OH250308   4.915   5.738  10.848  0.1060  0.1275 -0.1167
 9606TIP3    H150309   4.985   5.683  10.885 -0.4855 -0.8760 -0.4466
 9606TIP3    H250310   4.907   5.709  10.757 -1.4402 -0.5248  0.1887
 9607TIP3   OH250311   1.321   5.101   6.104  0.1283 -0.8083 -0.6169
 9607TIP3    H150312   1.356   5.165   6.042 -1.3375  0.0688 -0.6078
 9607TIP3    H250313   1.282   5.033   6.049  0.2792 -0.8652 -0.6512
 9608TIP3   OH250314   6.111   1.993   5.009 -0.1417  0.1336  0.2484
 9608TIP3    H150315   6.057   1.930   4.962 -0.6521 -1.0596  2.3109
 9608TIP3    H250316   6.142   2.054   4.942 -1.0735 -1.2851 -1.5318
 9609TIP3   OH250317   4.372   5.134   5.994 -0.0712  0.5514 -0.1538
 9609TIP3    H150318   4.397   5.086   6.073 -3.4927 -0.9240  0.2334
 9609TIP3    H250319   4.401   5.079   5.922  1.4012  0.9749  0.0852
 9610TIP3   OH250320   6.732   1.644   5.204  0.5339 -0.0668 -0.4010
 9610TIP3    H150321   6.817   1.684   5.186  0.5478 -0.0750 -0.3535
 9610TIP3    H250322   6.700   1.689   5.283  0.2664  0.2885 -0.7067
 9611TIP3   OH250323   6.610   6.277   1.503  0.3443  0.3277  0.4861
 9611TIP3    H150324   6.545   6.305   1.439 -1.4789 -0.2582  2.0037
 9611TIP3    H250325   6.692   6.272   1.454 -0.9911 -0.1848 -1.7834
 9612TIP3   OH250326   3.225   3.688  15.122  0.0229 -0.7688  0.9691
 9612TIP3    H150327   3.248   3.668  15.213 -1.0187 -2.0970  0.9573
 9612TIP3    H250328   3.131   3.671  15.116  0.1377 -0.9998 -0.4458
 9613TIP3   OH250329   1.075   1.032  11.585  0.8520 -0.4394  0.1600
 9613TIP3    H150330   0.990   1.062  11.617  0.7623 -0.9526  0.4207
 9613TIP3    H250331   1.075   1.054  11.492  0.1056 -1.1415 -0.0228
 9614TIP3   OH250332   5.310   6.418   0.159  0.3369  0.4185 -0.1640
 9614TIP3    H150333   5.378   6.404   0.225  0.3730 -1.4465 -0.5426
 9614TIP3    H250334   5.249   6.345   0.172 -0.7002  1.1219 -0.9277
 9615TIP3   OH250335   5.939   5.051  10.527  0.1476  0.0530  0.1653
 9615TIP3    H150336   6.017   5.008  10.561 -0.3930 -1.6525 -0.6259
 9615TIP3    H250337   5.969   5.138  10.501  1.9040 -0.7014 -0.5223
 9616TIP3   OH250338   1.169   4.342  13.819 -0.6446  0.2110  0.1717
 9616TIP3    H150339   1.115   4.309  13.890 -1.6535 -2.1917 -1.5649
 9616TIP3    H250340   1.218   4.266  13.788  1.2040  1.5955 -0.5236
 9617TIP3   OH250341   4.550   1.855  12.143 -0.0754 -0.0153 -0.1196
 9617TIP3    H150342   4.630   1.804  12.155 -0.3033 -0.3019  0.1809
 9617TIP3    H250343   4.554   1.922  12.211 -0.4972 -0.5411  0.4211
 9618TIP3   OH250344   0.244   4.483   5.762 -0.0711  0.3721  0.5348
 9618TIP3    H150345   0.208   4.455   5.846 -0.0981  0.5289  0.5763
 9618TIP3    H250346   0.177   4.541   5.726 -1.0887 -1.4209 -0.6192
 9619TIP3   OH250347   6.245   3.443  11.434 -0.4485 -0.3951  0.1004
 9619TIP3    H150348   6.308   3.462  11.504 -0.3382  0.1200 -0.1389
 9619TIP3    H250349   6.290   3.469  11.354 -1.5766  1.5228  0.0511
 9620TIP3   OH250350   0.584   3.118   0.148  0.2604  0.2994  0.2981
 9620TIP3    H150351   0.641   3.166   0.088  0.0080 -1.5786 -1.5932
 9620TIP3    H250352   0.537   3.186   0.196 -1.5541  2.1377 -3.5936
 9621TIP3   OH250353   2.079   2.990   4.000 -0.0543 -0.5935 -0.1555
 9621TIP3    H150354   1.984   2.982   4.012  0.1168 -3.0630  0.0869
 9621TIP3    H250355   2.111   2.900   4.002  2.4271  0.2187  0.6782
 9622TIP3   OH250356   0.900   4.359   4.159  0.0810 -0.3537 -0.1042
 9622TIP3    H150357   0.936   4.271   4.170 -1.0158 -0.6644  1.1353
 9622TIP3    H250358   0.812   4.346   4.126  0.0701  0.3071 -0.3613
 9623TIP3   OH250359   5.320   0.361   1.741 -0.6194 -0.1147 -0.1799
 9623TIP3    H150360   5.296   0.300   1.812 -2.3676 -0.8682 -1.3511
 9623TIP3    H250361   5.404   0.397   1.769  0.7467 -3.3457  0.4247
 9624TIP3   OH250362   5.187   5.241  14.788 -0.5331 -0.1821 -0.6476
 9624TIP3    H150363   5.145   5.201  14.864  1.0926 -0.2701  0.2657
 9624TIP3    H250364   5.210   5.329  14.818 -1.3663  0.3841 -1.6232
 9625TIP3   OH250365   4.788   5.841   1.566 -0.2831 -0.1560  0.3480
 9625TIP3    H150366   4.745   5.778   1.508 -0.3234 -0.1450  0.3665
 9625TIP3    H250367   4.857   5.790   1.609 -1.8690 -0.7979  2.2119
 9626TIP3   OH250368   2.504   4.257   2.977 -0.3681 -0.1390 -0.2539
 9626TIP3    H150369   2.466   4.332   3.024  2.1067 -0.9243  3.3621
 9626TIP3    H250370   2.437   4.189   2.982 -0.6624  0.2216  1.0948
 9627TIP3   OH250371   2.797   4.346  13.306  0.2238 -0.4638 -0.4234
 9627TIP3    H150372   2.763   4.306  13.386 -0.1994 -1.0896 -0.9034
 9627TIP3    H250373   2.733   4.412  13.283  1.3863  1.2129  0.8866
 9628TIP3   OH250374   5.751   6.851  12.118  0.1378  0.1522  0.0162
 9628TIP3    H150375   5.695   6.816  12.049  0.1573  0.4831 -0.1657
 9628TIP3    H250376   5.690   6.891  12.180  0.1131 -0.2243  0.2404
 9629TIP3   OH250377   3.428   3.197  16.619  0.9030 -0.0742  0.1130
 9629TIP3    H150378   3.469   3.270  16.573 -1.1093  0.7368 -0.4983
 9629TIP3    H250379   3.418   3.129  16.552 -0.8499  0.6307 -0.4113
 9630TIP3   OH250380   2.324   4.007  12.851  0.1488 -0.2640 -0.4223
 9630TIP3    H150381   2.293   3.933  12.799 -2.4625  0.8149 -0.5589
 9630TIP3    H250382   2.299   3.986  12.941  1.9831 -0.7743  0.0168
 9631TIP3   OH250383   5.243   0.968   5.345 -0.2348  0.2259  0.0177
 9631TIP3    H150384   5.248   1.052   5.300  1.2081  0.8631  1.2640
 9631TIP3    H250385   5.318   0.968   5.405 -1.9140 -0.6333  2.2893
 9632TIP3   OH250386   4.499   6.472  10.794  0.7087 -0.1699  0.4178
 9632TIP3    H150387   4.436   6.523  10.844 -0.1072 -1.1063  0.3545
 9632TIP3    H250388   4.461   6.385  10.787  1.0161 -0.1965 -1.4131
 9633TIP3   OH250389   5.088   1.195   5.552 -0.5698  0.0785  0.0502
 9633TIP3    H150390   5.071   1.241   5.470  2.3411 -0.0915 -0.7581
 9633TIP3    H250391   5.090   1.102   5.528  1.1833  0.0835  0.0866
 9634TIP3   OH250392   3.116   5.897  12.210 -0.5488 -0.2386  0.2928
 9634TIP3    H150393   3.162   5.824  12.252 -0.1896 -0.1638  0.0363
 9634TIP3    H250394   3.031   5.862  12.186 -0.7156 -0.3160  0.9800
 9635TIP3   OH250395   2.471   4.892  12.051 -0.1128  0.3171 -0.0915
 9635TIP3    H150396   2.508   4.975  12.080 -1.3912  1.1259 -0.6915
 9635TIP3    H250397   2.494   4.830  12.121 -1.4409  1.7668  1.7479
 9636TIP3   OH250398   2.266   5.044  11.161  0.4273 -0.3733 -0.4873
 9636TIP3    H150399   2.236   4.971  11.106  1.0489  0.6238 -2.2042
 9636TIP3    H250400   2.185   5.085  11.192  0.0690 -1.1398 -0.3821
 9637TIP3   OH250401   0.274   3.613  16.632  0.1635  0.1598  0.0377
 9637TIP3    H150402   0.305   3.598  16.721  0.3117 -1.7408 -0.3022
 9637TIP3    H250403   0.257   3.707  16.628 -0.4877  0.1801  2.2762
 9638TIP3   OH250404   5.974   0.096   3.368 -0.6926 -0.6371 -0.1818
 9638TIP3    H150405   6.066   0.075   3.386 -0.7895 -1.5180 -0.6806
 9638TIP3    H250406   5.961   0.181   3.410 -0.0719 -1.1933  1.2193
 9639TIP3   OH250407   4.243   2.560   4.188  0.4833  0.4510 -0.1065
 9639TIP3    H150408   4.185   2.488   4.162 -0.3629  0.8101  0.7327
 9639TIP3    H250409   4.246   2.554   4.283  0.5358  1.4302 -0.0424
 9640TIP3   OH250410   3.664   5.305   1.334 -0.3126 -0.3854  0.1255
 9640TIP3    H150411   3.680   5.211   1.331  1.3905 -0.1035 -1.9864
 9640TIP3    H250412   3.703   5.334   1.416  1.8803 -1.1441 -0.5890
 9641TIP3   OH250413   2.422   4.264  16.438  0.9993 -0.6196  0.4787
 9641TIP3    H150414   2.462   4.196  16.492  0.3209 -1.4717 -0.0646
 9641TIP3    H250415   2.338   4.227  16.411  1.2533 -0.1668 -1.0422
 9642TIP3   OH250416   3.944   4.095  14.489 -0.1945  0.1401 -0.0570
 9642TIP3    H150417   4.011   4.044  14.444 -1.8469 -0.9710 -1.4363
 9642TIP3    H250418   3.943   4.060  14.578 -0.3185 -1.2848 -0.5892
 9643TIP3   OH250419   4.550   0.327  11.242  0.0705  0.7194  0.2084
 9643TIP3    H150420   4.478   0.267  11.223  0.0766  1.4821 -2.7046
 9643TIP3    H250421   4.582   0.300  11.328 -1.1567 -2.1769 -0.1348
 9644TIP3   OH250422   1.683   0.260  12.326  0.0898 -0.1386  0.3766
 9644TIP3    H150423   1.701   0.354  12.335  2.0868 -0.1667 -2.2362
 9644TIP3    H250424   1.615   0.255  12.258  1.9156 -0.5882 -1.5116
 9645TIP3   OH250425   2.051   0.150   2.453 -0.3178 -0.1599 -0.1854
 9645TIP3    H150426   2.011   0.080   2.402 -1.3990 -1.0801  1.8104
 9645TIP3    H250427   1.978   0.206   2.480  0.2280  0.3698  0.2295
 9646TIP3   OH250428   4.148   3.262  16.117 -0.1232 -0.7939  0.5345
 9646TIP3    H150429   4.193   3.262  16.201 -1.5955  0.2115  1.3778
 9646TIP3    H250430   4.127   3.354  16.101  1.3802 -0.7721 -1.6712
 9647TIP3   OH250431   4.991   4.246  15.577  0.3098 -0.3197 -0.1030
 9647TIP3    H150432   4.943   4.163  15.567 -0.9909  0.4200 -0.2001
 9647TIP3    H250433   5.015   4.270  15.488  1.3893 -0.9744 -0.0035
 9648TIP3   OH250434   2.159   1.750   4.491  0.0856 -0.5360  0.2639
 9648TIP3    H150435   2.213   1.743   4.412 -1.0072  0.2983 -0.6060
 9648TIP3    H250436   2.210   1.709   4.560  1.3922 -0.6302 -0.7326
 9649TIP3   OH250437   1.630   4.443  12.663  0.0137 -0.1450  0.0999
 9649TIP3    H150438   1.707   4.421  12.716  1.6417  0.9113 -1.7126
 9649TIP3    H250439   1.661   4.438  12.573 -1.5499  2.0834 -0.6315
 9650TIP3   OH250440   5.508   6.458  11.471  0.0955  0.2452 -0.1834
 9650TIP3    H150441   5.418   6.490  11.459  0.1418  0.2196 -0.6491
 9650TIP3    H250442   5.498   6.366  11.496 -0.0238  0.4483  0.5211
 9651TIP3   OH250443   2.384   3.164   1.292  0.6590 -0.4633 -0.1915
 9651TIP3    H150444   2.467   3.154   1.245  0.3959  1.4263 -1.1614
 9651TIP3    H250445   2.342   3.240   1.251 -0.1657  0.5355  2.3152
 9652TIP3   OH250446   0.232   1.642   4.024  0.2536 -0.2871  0.0194
 9652TIP3    H150447   0.298   1.573   4.013  0.3947 -0.3278  0.9953
 9652TIP3    H250448   0.283   1.719   4.047  0.1622  0.3681 -1.8552
 9653TIP3   OH250449   3.020   2.133  11.824 -0.1772 -0.5278 -0.5442
 9653TIP3    H150450   3.043   2.062  11.764  0.7439 -0.0342 -0.7962
 9653TIP3    H250451   2.946   2.099  11.874 -0.2432 -1.3700 -1.1880
 9654TIP3   OH250452   6.738   6.606   0.938 -0.0459  0.1079  0.0962
 9654TIP3    H150453   6.758   6.518   0.969  1.6496  1.0801  1.9597
 9654TIP3    H250454   6.740   6.598   0.842  0.6409 -1.7452  0.2188
 9655TIP3   OH250455   0.012   2.788   2.979  0.0181 -0.0460 -0.1015
 9655TIP3    H150456  -0.037   2.809   3.059  1.1549  1.0793  0.3315
 9655TIP3    H250457   0.101   2.770   3.009  0.0898 -1.2608 -0.9639
 9656TIP3   OH250458   6.414   3.595  14.096 -0.7344 -0.2203  0.1526
 9656TIP3    H150459   6.444   3.504  14.103 -2.5755 -0.7355  3.4891
 9656TIP3    H250460   6.334   3.589  14.043 -0.1004 -0.2926 -0.8175
 9657TIP3   OH250461   5.839   3.308   5.132  0.3951  0.2023  0.8220
 9657TIP3    H150462   5.768   3.363   5.164 -0.6478  0.0580 -1.1163
 9657TIP3    H250463   5.910   3.369   5.112 -0.5652  0.8084 -0.8156
 9658TIP3   OH250464   3.371   1.645  17.015 -0.2638  0.4332 -0.1922
 9658TIP3    H150465   3.323   1.575  16.972  2.0040 -1.4893  0.2039
 9658TIP3    H250466   3.413   1.693  16.943 -0.0437 -0.0046 -0.3564
 9659TIP3   OH250467   5.322   5.727  16.724 -0.3035  0.5154  0.3527
 9659TIP3    H150468   5.378   5.765  16.793 -0.3555 -0.9767  1.2677
 9659TIP3    H250469   5.366   5.646  16.700 -0.9308  0.4247 -0.5337
 9660TIP3   OH250470   2.277   3.656   1.739 -0.2125  0.2759  0.1519
 9660TIP3    H150471   2.353   3.628   1.688  0.8668  0.9475  1.3492
 9660TIP3    H250472   2.203   3.646   1.678  0.7889 -0.5448 -0.9853
 9661TIP3   OH250473   4.747   3.958  13.744 -0.0781 -0.2026  0.1467
 9661TIP3    H150474   4.685   4.020  13.705  0.2983 -0.0996 -0.2893
 9661TIP3    H250475   4.831   3.979  13.704  0.5391  0.6036  1.7988
 9662TIP3   OH250476   3.896   1.473   2.629 -0.2229  0.3865  0.3642
 9662TIP3    H150477   3.810   1.437   2.652 -1.1518  2.3916  0.2477
 9662TIP3    H250478   3.912   1.541   2.694 -0.7310  2.9245 -1.9749
 9663TIP3   OH250479   1.898   1.997   5.823  0.3011  0.8767 -0.2667
 9663TIP3    H150480   1.906   1.913   5.779 -0.1611  0.8151 -0.2321
 9663TIP3    H250481   1.912   1.978   5.915 -0.9468  0.6535 -0.1172
 9664TIP3   OH250482   2.082   6.811  13.227  0.5606 -0.6924 -0.3209
 9664TIP3    H150483   2.084   6.797  13.322  1.4249 -0.3019 -0.2660
 9664TIP3    H250484   2.112   6.901  13.216  0.6272 -0.7911 -0.9728
 9665TIP3   OH250485   1.152   0.218  16.528  0.0062  0.0393  0.0762
 9665TIP3    H150486   1.140   0.237  16.622 -0.0452  0.4344 -0.0069
 9665TIP3    H250487   1.063   0.205  16.496 -0.0256  0.5117 -0.0374
 9666TIP3   OH250488   0.143   5.841   3.457  0.1572  1.1994 -0.6566
 9666TIP3    H150489   0.132   5.878   3.370 -1.0013  0.2078 -0.9477
 9666TIP3    H250490   0.078   5.771   3.463 -1.3684  2.6393  1.7788
 9667TIP3   OH250491   2.954   5.795   6.465 -0.2783  0.0622  0.4405
 9667TIP3    H150492   2.879   5.746   6.497 -1.4418  1.1484 -0.5255
 9667TIP3    H250493   3.030   5.742   6.489 -1.3307 -0.9892  1.5670
 9668TIP3   OH250494   2.942   2.198   6.256  0.5151  0.2937 -0.1671
 9668TIP3    H150495   2.893   2.223   6.178 -1.1354  0.3589  0.8548
 9668TIP3    H250496   2.892   2.235   6.329  1.4522 -0.6579  0.9966
 9669TIP3   OH250497   3.651   1.006  11.956 -0.5636 -0.4014 -0.0812
 9669TIP3    H150498   3.576   1.063  11.968 -0.0790  0.2592 -0.1736
 9669TIP3    H250499   3.658   0.957  12.039  0.5192  1.4690  1.0025
 9670TIP3   OH250500   0.052   6.674  15.230 -0.4584 -0.0522  0.1019
 9670TIP3    H150501   0.001   6.640  15.156 -1.1877  0.6193  0.2819
 9670TIP3    H250502   0.027   6.620  15.304  1.4168 -1.7389 -0.4103
 9671TIP3   OH250503   1.669   2.969   6.030  0.3513 -0.0015 -0.7130
 9671TIP3    H150504   1.664   3.017   5.947 -2.0593  0.1847 -0.5319
 9671TIP3    H250505   1.759   2.982   6.060 -0.1712  5.0029 -0.3829
 9672TIP3   OH250506   2.995   2.362   0.911  1.0616  0.0173  0.2079
 9672TIP3    H150507   2.909   2.375   0.951  1.4050  0.7793  0.7173
 9672TIP3    H250508   2.982   2.382   0.818  0.5468 -0.5217  0.1527
 9673TIP3   OH250509   1.417   5.490  14.973 -0.2362 -0.2598  0.3953
 9673TIP3    H150510   1.345   5.429  14.955 -0.5802  0.0796  0.6026
 9673TIP3    H250511   1.461   5.500  14.889 -0.5447 -0.3321  0.2220
 9674TIP3   OH250512   3.179   5.096   2.947  0.1360 -0.1259 -0.0849
 9674TIP3    H150513   3.114   5.034   2.916 -2.3102  0.5856  3.1530
 9674TIP3    H250514   3.136   5.181   2.941  1.1442  0.5105  1.1215
 9675TIP3   OH250515   2.485   5.148   0.367  0.0053 -0.1704  0.4174
 9675TIP3    H150516   2.526   5.068   0.334 -1.2846 -0.9018  0.5059
 9675TIP3    H250517   2.512   5.216   0.305  1.8582 -0.4607  0.8451
 9676TIP3   OH250518   6.797   3.751  14.527  0.1459  0.7242  0.4059
 9676TIP3    H150519   6.704   3.774  14.534  0.1066  0.9844 -0.7079
 9676TIP3    H250520   6.843   3.828  14.561 -0.0416  0.4437  1.3152
 9677TIP3   OH250521   4.873   4.421   0.029  0.0178 -0.5675 -0.4563
 9677TIP3    H150522   4.896   4.328   0.022 -0.9622 -0.7804 -1.0872
 9677TIP3    H250523   4.935   4.465  -0.030 -0.3488 -0.9864 -1.1788
 9678TIP3   OH250524   2.511   6.077   2.880 -0.1404 -0.6373  0.0614
 9678TIP3    H150525   2.526   6.167   2.851  0.9499 -0.0148  2.3952
 9678TIP3    H250526   2.598   6.039   2.889 -0.5547 -1.6181  0.1021
 9679TIP3   OH250527   2.816   1.075  15.742  0.1451  0.2971  0.4350
 9679TIP3    H150528   2.847   1.099  15.829 -0.0869  0.6101  0.4319
 9679TIP3    H250529   2.819   0.979  15.740  0.8057  0.3109  0.5473
 9680TIP3   OH250530   5.480   6.776   1.638  0.5004 -0.2737  0.0834
 9680TIP3    H150531   5.571   6.780   1.668  1.0214  1.3153 -1.5308
 9680TIP3    H250532   5.463   6.864   1.605 -0.9519 -1.1178 -1.5366
 9681TIP3   OH250533   1.521   1.128   2.308  0.0999  0.2237 -0.4770
 9681TIP3    H150534   1.583   1.097   2.242  0.0360  0.1497 -0.5020
 9681TIP3    H250535   1.575   1.177   2.371  0.2418 -0.1960 -0.2720
 9682TIP3   OH250536   6.134   0.486  13.551 -0.3298  0.2269 -0.5899
 9682TIP3    H150537   6.091   0.543  13.614 -0.6089  0.6183 -1.1284
 9682TIP3    H250538   6.224   0.479  13.582 -0.6913 -0.3523  0.3738
 9683TIP3   OH250539   5.725   0.089   3.831 -0.1338 -0.3422  0.1284
 9683TIP3    H150540   5.700  -0.003   3.830 -0.2254 -0.3437 -1.5519
 9683TIP3    H250541   5.646   0.135   3.860 -0.1577 -0.7793  0.7616
 9684TIP3   OH250542   4.681   6.325  12.095 -0.0016  0.4315  0.2226
 9684TIP3    H150543   4.705   6.372  12.175 -0.9244  2.6165 -0.7091
 9684TIP3    H250544   4.590   6.352  12.079 -0.5223 -1.5971 -0.4646
 9685TIP3   OH250545   6.087   4.755   2.843  0.0422 -0.4904 -0.3470
 9685TIP3    H150546   6.179   4.728   2.844  0.6709  1.4599  0.7467
 9685TIP3    H250547   6.068   4.774   2.751  0.5490 -1.4347 -0.6569
 9686TIP3   OH250548   6.571   3.327   0.108 -0.1173  0.4667 -0.3154
 9686TIP3    H150549   6.619   3.400   0.068  1.2500  0.4003  1.0953
 9686TIP3    H250550   6.594   3.251   0.055 -1.9528  1.0612 -2.1114
 9687TIP3   OH250551   6.506   1.516  13.669  0.0153 -0.3031  0.1762
 9687TIP3    H150552   6.425   1.541  13.625 -0.7762 -1.7677  0.7666
 9687TIP3    H250553   6.510   1.421  13.661  1.3877 -0.3053  0.6679
 9688TIP3   OH250554   1.702   3.918   6.076 -0.5131 -0.4489  0.5632
 9688TIP3    H150555   1.739   3.997   6.115  0.7492  0.2748 -1.8583
 9688TIP3    H250556   1.659   3.873   6.148 -0.3880  1.9243  2.2353
 9689TIP3   OH250557   5.287   5.803   0.071 -0.0238 -0.4956 -0.6854
 9689TIP3    H150558   5.202   5.830   0.108 -0.0809  1.2243 -1.9511
 9689TIP3    H250559   5.273   5.713   0.044 -0.9212 -0.7932  0.6461
 9690TIP3   OH250560   5.279   6.552   2.798 -0.0836 -0.4187 -0.6630
 9690TIP3    H150561   5.241   6.466   2.777  2.4288 -1.4973 -1.1441
 9690TIP3    H250562   5.324   6.578   2.718  1.9205 -0.2136  0.4789
 9691TIP3   OH250563   2.041   1.267   0.218  0.1536 -0.0553 -0.3395
 9691TIP3    H150564   1.955   1.273   0.259 -0.5699  1.4000 -1.9349
 9691TIP3    H250565   2.063   1.174   0.222 -1.3644 -0.4169  0.3425
 9692TIP3   OH250566   0.439   4.693  13.234  0.6862 -0.1398  0.1120
 9692TIP3    H150567   0.471   4.696  13.144 -0.3930 -2.3481 -0.4105
 9692TIP3    H250568   0.495   4.629  13.278 -0.8201 -1.5483  0.0736
 9693TIP3   OH250569   4.120   3.907  10.933 -0.0685 -0.8285 -0.0446
 9693TIP3    H150570   4.095   3.951  11.014  0.0410 -2.6064  1.0176
 9693TIP3    H250571   4.080   3.960  10.863 -0.9425  0.2327  1.2076
 9694TIP3   OH250572   4.763   4.907   2.029 -0.2311 -0.1075  0.0723
 9694TIP3    H150573   4.784   4.911   2.122  1.0330 -2.3703 -0.0271
 9694TIP3    H250574   4.838   4.947   1.985  1.5018 -3.1743 -0.0570
 9695TIP3   OH250575   4.664   0.318   5.155 -0.2520 -0.0075  0.4455
 9695TIP3    H150576   4.630   0.354   5.238 -0.3231 -1.0243  0.8687
 9695TIP3    H250577   4.704   0.235   5.180  2.3707  1.0208 -0.0708
 9696TIP3   OH250578   3.007   2.014  12.982  0.1629  0.2297 -0.4276
 9696TIP3    H150579   3.085   2.052  13.021  0.2279 -1.1299  0.8790
 9696TIP3    H250580   2.994   2.062  12.900  2.7098  0.0871 -0.9944
 9697TIP3   OH250581   3.035   6.217  10.205 -0.0939  0.1979  0.2752
 9697TIP3    H150582   2.994   6.288  10.255  2.0792  1.6135  0.1752
 9697TIP3    H250583   2.972   6.197  10.136 -1.9457  0.0926  1.8778
 9698TIP3   OH250584   5.510   0.898  13.133 -0.8456  0.4515 -0.0809
 9698TIP3    H150585   5.496   0.805  13.147  0.6598  0.2061 -0.1041
 9698TIP3    H250586   5.537   0.905  13.041  0.2338  0.7475  0.2408
 9699TIP3   OH250587   1.027   0.849  13.649  0.1981  0.5292 -0.5099
 9699TIP3    H150588   1.104   0.885  13.692  0.0328  0.6208 -0.2898
 9699TIP3    H250589   1.061   0.780  13.592  0.3054 -0.3800  0.6127
 9700TIP3   OH250590   1.244   4.575  16.518  0.6064  0.1337 -0.1361
 9700TIP3    H150591   1.175   4.527  16.564 -0.2777 -0.0499 -1.5961
 9700TIP3    H250592   1.249   4.659  16.563 -1.2796  0.5357 -0.6094
 9701TIP3   OH250593   3.028   1.555   3.527 -0.3261 -0.1527 -0.4812
 9701TIP3    H150594   2.939   1.536   3.495  0.4109 -0.3595 -2.6090
 9701TIP3    H250595   3.021   1.641   3.567 -1.8045 -0.8554  0.8596
 9702TIP3   OH250596   4.665   1.655  10.759 -0.7009 -0.0287 -0.5825
 9702TIP3    H150597   4.634   1.580  10.709 -1.6020  1.2258 -2.0205
 9702TIP3    H250598   4.585   1.692  10.797 -0.2950  0.3114 -0.0600
 9703TIP3   OH250599   0.328   5.385   4.470  0.4687 -0.6597  0.0597
 9703TIP3    H150600   0.368   5.298   4.473 -0.8497 -1.3200 -0.3184
 9703TIP3    H250601   0.369   5.433   4.541 -0.2097 -2.2658  1.6404
 9704TIP3   OH250602   4.850   6.390  16.415  1.0121 -0.0069  0.4606
 9704TIP3    H150603   4.891   6.468  16.375  1.2481 -0.4934 -0.2619
 9704TIP3    H250604   4.851   6.324  16.346  0.1179 -0.4216  0.8310
 9705TIP3   OH250605   0.447   5.227  15.957 -0.3959  0.1181  0.1579
 9705TIP3    H150606   0.402   5.304  15.923 -1.0374  0.7167  2.2175
 9705TIP3    H250607   0.494   5.192  15.881 -1.1614  1.7352 -1.1487
 9706TIP3   OH250608   4.187   5.427  10.680  0.5908  0.2225 -0.8459
 9706TIP3    H150609   4.260   5.464  10.730  0.4398 -0.2786 -0.2515
 9706TIP3    H250610   4.227   5.395  10.599  1.0653 -0.2494 -0.4243
 9707TIP3   OH250611   6.130   2.152  13.654  0.0663  0.1256  0.6058
 9707TIP3    H150612   6.177   2.145  13.737 -0.7859  1.0912  1.1832
 9707TIP3    H250613   6.166   2.230  13.612 -0.1770  0.1909  0.5141
 9708TIP3   OH250614   0.319   4.357   4.282 -0.1046 -0.4324  0.4805
 9708TIP3    H150615   0.360   4.441   4.261  0.1253 -0.6901 -0.1182
 9708TIP3    H250616   0.246   4.350   4.220  0.6514 -1.2608 -0.3346
 9709TIP3   OH250617   3.148   0.397  11.260 -0.2470  0.9260 -1.0786
 9709TIP3    H150618   3.086   0.325  11.270  0.3141  0.4127 -1.2661
 9709TIP3    H250619   3.144   0.444  11.344  2.2005 -1.5710  0.6080
 9710TIP3   OH250620   5.089   2.250  15.708  0.0917  0.1632  0.0394
 9710TIP3    H150621   5.149   2.186  15.745  1.4010  1.1309 -0.3607
 9710TIP3    H250622   5.009   2.240  15.759  1.2598  0.2495  1.9647
 9711TIP3   OH250623   4.452   2.637  14.185 -0.1848  0.0244  0.0820
 9711TIP3    H150624   4.378   2.693  14.205 -0.1737  0.9793 -2.3021
 9711TIP3    H250625   4.499   2.682  14.115  1.9257 -1.1974  0.5941
 9712TIP3   OH250626   5.481   6.165  14.560  0.4349 -0.1849  0.1308
 9712TIP3    H150627   5.560   6.145  14.610  0.1698 -0.6896  0.3519
 9712TIP3    H250628   5.513   6.203  14.478  0.8730  0.7510  0.7211
 9713TIP3   OH250629   6.229   2.178  13.908 -0.1633 -0.2879  0.2198
 9713TIP3    H150630   6.244   2.124  13.985 -0.1214 -0.3995  0.1324
 9713TIP3    H250631   6.290   2.252  13.919 -0.3839 -0.1389  0.4532
 9714TIP3   OH250632   6.644   5.518  11.911  0.2406 -0.1404  0.4405
 9714TIP3    H150633   6.666   5.556  11.825 -1.3569 -0.3924 -0.1231
 9714TIP3    H250634   6.673   5.584  11.974  1.8740 -0.1498 -0.2343
 9715TIP3   OH250635   1.740   0.640   2.560  0.0924 -0.2532  0.7972
 9715TIP3    H150636   1.783   0.643   2.474  0.2564 -1.3145  0.8260
 9715TIP3    H250637   1.647   0.646   2.541  0.1837  1.2142  0.6757
 9716TIP3   OH250638   4.259   1.523   5.105 -0.0735 -0.2859 -0.2791
 9716TIP3    H150639   4.287   1.471   5.029 -1.3565  0.1487 -1.0947
 9716TIP3    H250640   4.238   1.609   5.068 -1.2861 -0.2412  0.4462
 9717TIP3   OH250641   4.867   0.192   2.795 -0.1521 -0.2227 -0.0366
 9717TIP3    H150642   4.862   0.257   2.725  0.3198 -0.2233 -0.0739
 9717TIP3    H250643   4.776   0.182   2.825 -0.3204 -0.0455 -0.4810
 9718TIP3   OH250644   6.657   2.559  13.461  0.1543  0.4386  0.4127
 9718TIP3    H150645   6.607   2.614  13.400  2.4623  2.0173 -0.2209
 9718TIP3    H250646   6.643   2.470  13.430 -1.2149  0.9355 -0.4986
 9719TIP3   OH250647   5.554   6.341  16.078 -0.7670  0.4104  0.1176
 9719TIP3    H150648   5.546   6.413  16.015 -0.8995  0.2761 -0.0210
 9719TIP3    H250649   5.464   6.322  16.105 -1.0385 -1.3566 -1.7379
 9720TIP3   OH250650   6.127   4.465  12.776 -0.2268  0.3026  0.1609
 9720TIP3    H150651   6.205   4.519  12.767 -0.8786  1.4451  1.0990
 9720TIP3    H250652   6.149   4.384  12.730  1.4514  0.6494  0.2737
 9721TIP3   OH250653   2.672   2.595  15.859  0.0339  0.2968 -0.7797
 9721TIP3    H150654   2.645   2.686  15.844  0.6455  0.4898 -0.7318
 9721TIP3    H250655   2.755   2.586  15.813  0.6124  0.1363  0.2689
 9722TIP3   OH250656   5.134   6.661  16.578 -0.1037 -0.3252 -0.4603
 9722TIP3    H150657   5.065   6.602  16.609 -0.8385  0.4860 -0.5201
 9722TIP3    H250658   5.087   6.739  16.548  0.7840 -0.1069 -1.3072
 9723TIP3   OH250659   2.859   2.042  16.050 -0.0918  0.3988 -0.5436
 9723TIP3    H150660   2.847   2.086  16.134  0.2008  0.0709 -0.3268
 9723TIP3    H250661   2.904   1.960  16.072  0.4946  0.5677 -1.0840
 9724TIP3   OH250662   5.173   3.191  15.638  0.3154 -0.2185  0.4692
 9724TIP3    H150663   5.195   3.220  15.727 -1.3399  1.5594  0.3683
 9724TIP3    H250664   5.158   3.097  15.646  0.2262 -0.0902  2.0588
 9725TIP3   OH250665   0.086   1.066   2.923 -0.0573 -0.1991  0.0153
 9725TIP3    H150666   0.018   1.007   2.957 -0.6041  0.8930  0.8798
 9725TIP3    H250667   0.087   1.049   2.829 -2.1272  0.3138 -0.1554
 9726TIP3   OH250668   0.051   0.360  15.296  0.0327 -0.7992 -0.5241
 9726TIP3    H150669   0.069   0.267  15.291  0.1900 -0.9655  1.8998
 9726TIP3    H250670  -0.017   0.368  15.364  0.9378  0.9233  0.2589
 9727TIP3   OH250671   3.942   6.292  16.170  0.5920  0.1576 -0.3448
 9727TIP3    H150672   3.919   6.257  16.084 -2.1430  1.0446 -0.0718
 9727TIP3    H250673   3.927   6.219  16.230  0.0603  0.2568 -0.3544
 9728TIP3   OH250674   2.507   0.314  12.085 -0.1892  0.0721 -0.2686
 9728TIP3    H150675   2.582   0.354  12.042  0.6200  0.1250  1.1390
 9728TIP3    H250676   2.451   0.388  12.108  0.1651  0.1937  0.2181
 9729TIP3   OH250677   6.182   5.030  11.243 -0.2466 -0.3819  0.8237
 9729TIP3    H150678   6.243   4.989  11.304  0.9062 -0.8285 -0.5655
 9729TIP3    H250679   6.119   4.961  11.222 -1.5022  0.1815  2.5281
 9730TIP3   OH250680   2.252   4.871  14.010  0.0152 -0.3015 -0.4885
 9730TIP3    H150681   2.271   4.959  13.980 -2.1562  0.0085 -1.0828
 9730TIP3    H250682   2.221   4.825  13.932  0.8380 -1.5396 -0.1251
 9731TIP3   OH250683   6.641   4.456   0.370 -0.2387 -0.4489 -0.3853
 9731TIP3    H150684   6.637   4.543   0.409 -0.4175 -1.1923  1.3569
 9731TIP3    H250685   6.557   4.446   0.325 -0.8830 -0.2785  0.7352
 9732TIP3   OH250686   2.771   4.358   4.664 -0.3782  0.4237  0.9392
 9732TIP3    H150687   2.806   4.342   4.577 -0.3667  0.3899  0.9501
 9732TIP3    H250688   2.698   4.419   4.650 -0.5790  0.1683  0.8702
 9733TIP3   OH250689   6.347   2.926   0.002 -0.1701 -0.0231 -0.2421
 9733TIP3    H150690   6.276   2.908  -0.059 -1.6101  2.3524  0.6060
 9733TIP3    H250691   6.304   2.958   0.082  1.7337 -1.1890  1.3571
 9734TIP3   OH250692   3.692   1.711  11.649 -0.3138 -0.2544 -0.1305
 9734TIP3    H150693   3.669   1.734  11.559 -2.0468 -1.9861 -0.2076
 9734TIP3    H250694   3.625   1.755  11.702  1.2409  1.5344  0.4672
 9735TIP3   OH250695   3.205   0.150   2.529  0.3396 -0.2766 -0.0439
 9735TIP3    H150696   3.174   0.064   2.556  1.9773 -0.6557  0.7723
 9735TIP3    H250697   3.125   0.200   2.512 -0.6530 -2.0679 -0.9881
 9736TIP3   OH250698   5.686   0.356   5.121 -0.0416  0.3809 -0.2161
 9736TIP3    H150699   5.751   0.416   5.158 -0.3841  0.4177  0.3288
 9736TIP3    H250700   5.708   0.351   5.028  0.5678  0.6142 -0.0872
 9737TIP3   OH250701   4.493   6.303  14.006  0.0233 -0.2046 -0.0542
 9737TIP3    H150702   4.438   6.344  14.072 -0.8087 -1.7986  0.3013
 9737TIP3    H250703   4.445   6.314  13.924  0.7734  1.2497 -0.3372
 9738TIP3   OH250704   1.622   4.105   4.260  0.0650 -0.4025 -0.6939
 9738TIP3    H150705   1.674   4.173   4.302  3.2879 -2.8071 -0.4680
 9738TIP3    H250706   1.561   4.076   4.329 -0.1887  1.0133 -0.2831
 9739TIP3   OH250707   1.196   1.562  14.710 -0.9589 -0.0321  0.2298
 9739TIP3    H150708   1.264   1.624  14.684  0.2203 -1.2206  0.3698
 9739TIP3    H250709   1.187   1.503  14.636  1.7551 -2.8692  1.8961
 9740TIP3   OH250710   5.382   5.719   1.246 -0.6220  0.1444  0.1274
 9740TIP3    H150711   5.427   5.768   1.177 -0.1096 -0.9611 -0.3421
 9740TIP3    H250712   5.294   5.705   1.211  0.0637 -1.7077 -1.0072
 9741TIP3   OH250713   5.392   4.167  14.499 -0.3784  0.8212  0.1990
 9741TIP3    H150714   5.408   4.130  14.586  0.7248  0.6114 -0.0828
 9741TIP3    H250715   5.418   4.099  14.438 -2.5568  0.3825 -0.3426
 9742TIP3   OH250716   2.766   5.191  15.345  0.1980  0.4625  0.8495
 9742TIP3    H150717   2.843   5.228  15.389 -0.9009 -0.0231  3.3364
 9742TIP3    H250718   2.737   5.261  15.286  2.1567  0.8634  0.2648
 9743TIP3   OH250719   4.250   3.039  12.493 -0.0573  0.1892  0.3080
 9743TIP3    H150720   4.246   2.970  12.427 -0.9094 -0.9060  1.4541
 9743TIP3    H250721   4.282   3.116  12.446  1.5545 -1.1329 -0.8635
 9744TIP3   OH250722   1.402   3.948   5.661  0.1842  0.1864  0.1664
 9744TIP3    H150723   1.385   3.889   5.587  1.7842  0.4920 -0.4865
 9744TIP3    H250724   1.484   3.916   5.699  1.0176  1.8969 -0.1235
 9745TIP3   OH250725   3.283   5.601   0.462 -0.0252  0.1231  0.5000
 9745TIP3    H150726   3.319   5.663   0.399 -0.0257  0.5193  0.8853
 9745TIP3    H250727   3.316   5.516   0.434 -0.2053  0.2671 -0.1596
 9746TIP3   OH250728   4.775   4.105   5.383 -0.9641 -0.2032 -0.0005
 9746TIP3    H150729   4.830   4.046   5.435  0.1645 -0.1735 -1.1266
 9746TIP3    H250730   4.837   4.156   5.331 -1.8766  2.1873  1.0933
 9747TIP3   OH250731   6.408   2.250  15.739 -0.7586 -0.2129  0.0465
 9747TIP3    H150732   6.489   2.299  15.725 -1.8149  1.6341  0.0900
 9747TIP3    H250733   6.353   2.272  15.664 -1.6817 -0.4237  0.6428
 9748TIP3   OH250734   4.546   4.362   0.324  0.0433 -0.6610 -0.3887
 9748TIP3    H150735   4.516   4.453   0.319  0.2602 -0.5164  0.6798
 9748TIP3    H250736   4.641   4.368   0.330  0.1487 -1.0242 -1.5044
 9749TIP3   OH250737   3.986   2.626  16.980  0.1157  0.1397  0.5336
 9749TIP3    H150738   3.924   2.655  17.047  0.1859 -1.1734  1.1957
 9749TIP3    H250739   3.991   2.531  16.991  1.7132  0.1375  0.0268
 9750TIP3   OH250740   6.632   2.913   3.793  0.1124 -0.3843 -0.0030
 9750TIP3    H150741   6.552   2.962   3.816  0.6583  0.4563  0.1438
 9750TIP3    H250742   6.600   2.825   3.772 -0.8109 -0.1842  0.4667
 9751TIP3   OH250743   5.981   6.068  12.054  0.2138 -0.6216 -0.4935
 9751TIP3    H150744   5.903   6.090  12.105 -0.7150 -2.6872 -0.9114
 9751TIP3    H250745   6.004   6.149  12.009 -0.9530  0.3500  0.5930
 9752TIP3   OH250746   6.362   2.440   4.273  0.1303 -0.2232 -0.1039
 9752TIP3    H150747   6.436   2.501   4.285 -0.4761  0.6533 -0.6890
 9752TIP3    H250748   6.393   2.377   4.209  0.4708 -0.0346 -0.1298
 9753TIP3   OH250749   5.489   2.694  12.761 -0.2053 -0.3908 -0.2595
 9753TIP3    H150750   5.457   2.728  12.844 -0.5814 -0.8395 -0.2182
 9753TIP3    H250751   5.579   2.666  12.779 -0.0322  0.1930 -0.1943
 9754TIP3   OH250752   3.963   2.462   0.245  0.0535 -0.0140  0.2047
 9754TIP3    H150753   4.022   2.421   0.308  0.2610 -0.5448 -0.3291
 9754TIP3    H250754   3.899   2.395   0.224 -1.1973  0.7848  1.3254
 9755TIP3   OH250755   1.021   3.895  15.088  0.0403  0.6471  0.1798
 9755TIP3    H150756   1.109   3.878  15.120 -1.1645 -1.3144  2.8993
 9755TIP3    H250757   1.015   3.845  15.007  1.2256  0.2087  0.3403
 9756TIP3   OH250758   2.908   4.196   5.607  0.0897  0.1130 -0.6438
 9756TIP3    H150759   2.981   4.256   5.590 -0.0458  0.0221 -1.6080
 9756TIP3    H250760   2.865   4.186   5.522 -0.2523 -0.8875 -0.3651
 9757TIP3   OH250761   2.202   2.956   5.848 -0.0618 -0.2444 -0.6309
 9757TIP3    H150762   2.249   2.984   5.770  1.4048 -0.4973  0.1189
 9757TIP3    H250763   2.218   2.862   5.854  1.6022  0.0637  1.0184
 9758TIP3   OH250764   4.565   5.551   6.120 -0.4074  0.5308 -0.2473
 9758TIP3    H150765   4.626   5.538   6.193 -0.7710  1.1511  0.1720
 9758TIP3    H250766   4.480   5.564   6.162 -0.9371 -0.8041 -0.8388
 9759TIP3   OH250767   4.295   0.163   5.758 -0.0463  0.0661  0.1416
 9759TIP3    H150768   4.302   0.169   5.663 -1.8261 -1.1340 -0.1267
 9759TIP3    H250769   4.298   0.254   5.788 -0.0763  0.5013 -1.1229
 9760TIP3   OH250770   1.167   6.173  15.111  0.0664  0.3669  0.7537
 9760TIP3    H150771   1.242   6.214  15.067  0.0348 -1.0065 -0.6840
 9760TIP3    H250772   1.098   6.173  15.044 -0.4096 -0.6276  1.2253
 9761TIP3   OH250773   4.534   1.668  13.503 -0.3760 -0.0495  0.0541
 9761TIP3    H150774   4.456   1.620  13.532  0.4293 -0.1462  2.2540
 9761TIP3    H250775   4.607   1.619  13.541  0.8287 -0.2045 -2.3286
 9762TIP3   OH250776   1.888   6.140  13.396 -0.3380 -0.0531 -0.2300
 9762TIP3    H150777   1.865   6.233  13.401 -0.1671  0.0682 -1.3012
 9762TIP3    H250778   1.973   6.139  13.352  0.6292 -0.6281  1.5588
 9763TIP3   OH250779   4.247   0.432  12.198 -0.1643  0.0130 -0.3063
 9763TIP3    H150780   4.164   0.404  12.237 -0.5820  1.0780 -0.4002
 9763TIP3    H250781   4.313   0.377  12.239 -1.0075 -1.5780 -0.9644
 9764TIP3   OH250782   0.494   6.817  13.855 -0.0902 -0.3556  0.0011
 9764TIP3    H150783   0.464   6.852  13.771 -1.0294  0.3404  0.5967
 9764TIP3    H250784   0.589   6.811  13.847  0.0035  1.3674 -0.5147
 9765TIP3   OH250785   5.830   0.345  15.892  0.5156  0.8435 -0.1732
 9765TIP3    H150786   5.834   0.312  15.803 -1.4575 -1.0815  0.3555
 9765TIP3    H250787   5.847   0.269  15.948 -1.3047  1.2612  1.0713
 9766TIP3   OH250788   0.652   6.787  12.157 -0.5346 -0.0942  0.1558
 9766TIP3    H150789   0.588   6.859  12.154 -1.9698 -1.1964  1.9404
 9766TIP3    H250790   0.698   6.793  12.073 -2.5786  1.1215 -0.9834
 9767TIP3   OH250791   0.121   6.761  16.096 -0.2975 -0.3177 -0.4755
 9767TIP3    H150792   0.170   6.697  16.045 -1.8928 -1.0395 -1.1851
 9767TIP3    H250793   0.150   6.747  16.186  1.1020 -0.3934 -0.9199
 9768TIP3   OH250794   1.708   3.624  16.104 -0.2043  0.2067  0.0799
 9768TIP3    H150795   1.745   3.542  16.138 -1.3339 -0.2872  0.1698
 9768TIP3    H250796   1.618   3.602  16.080 -0.7222  1.5631  0.6606
 9769TIP3   OH250797   6.565   0.211  15.990 -0.0774 -0.3355 -0.4859
 9769TIP3    H150798   6.606   0.147  16.048 -0.3410 -1.3631 -1.4087
 9769TIP3    H250799   6.489   0.243  16.039 -0.5472 -1.5131 -0.4313
 9770TIP3   OH250800   3.358   5.879   3.642 -0.0901 -0.4058  0.0142
 9770TIP3    H150801   3.382   5.937   3.570  0.1177  0.2450  0.5923
 9770TIP3    H250802   3.272   5.911   3.671  0.6179  0.5076  1.2087
 9771TIP3   OH250803   2.119   2.675  15.306 -0.1497  0.0524  0.6253
 9771TIP3    H150804   2.088   2.671  15.216 -0.3578  0.0847  0.6960
 9771TIP3    H250805   2.211   2.701  15.298  0.5379 -2.2477  0.3071
 9772TIP3   OH250806   0.234   3.190  14.973 -0.0329  0.3138 -0.4648
 9772TIP3    H150807   0.141   3.198  14.951 -0.2913 -2.0656 -0.4250
 9772TIP3    H250808   0.239   3.210  15.066 -0.4443  0.7160 -0.5249
 9773TIP3   OH250809   6.106   4.464   2.866 -0.3101  0.3131 -0.4037
 9773TIP3    H150810   6.029   4.408   2.857  0.1052 -0.2771 -0.3641
 9773TIP3    H250811   6.076   4.551   2.841 -1.2199  0.2720  0.5146
 9774TIP3   OH250812   0.402   2.689   3.962  0.3367  0.5848  0.5206
 9774TIP3    H150813   0.328   2.731   3.919  0.5965  0.9089  0.3857
 9774TIP3    H250814   0.479   2.725   3.918  0.5547 -0.3292  0.1279
 9775TIP3   OH250815   6.056   1.013   4.998  0.0511  0.4661  0.6163
 9775TIP3    H150816   6.028   0.957   5.070  0.7612 -0.0781  0.4840
 9775TIP3    H250817   6.034   1.102   5.026 -1.6888  0.0835  0.5532
 9776TIP3   OH250818   4.486   0.507  13.580 -0.0797 -0.1677 -0.0555
 9776TIP3    H150819   4.434   0.436  13.544 -3.1620  1.9619 -0.1905
 9776TIP3    H250820   4.460   0.512  13.671  1.5241 -0.3220  0.4460
 9777TIP3   OH250821   4.419   1.332  16.641 -0.3905  0.0447 -0.0179
 9777TIP3    H150822   4.440   1.383  16.563  0.2176 -1.6373 -0.9944
 9777TIP3    H250823   4.384   1.396  16.702 -1.3775  1.3367 -1.8440
 9778TIP3   OH250824   0.980   5.065  16.648 -0.1742  0.5239  1.0430
 9778TIP3    H150825   1.034   5.039  16.573  2.6996  0.4673  2.9892
 9778TIP3    H250826   0.975   5.161  16.641 -0.7503  0.4578  0.3158
 9779TIP3   OH250827   6.337   0.668  12.641 -0.3335  0.7530 -0.2067
 9779TIP3    H150828   6.297   0.592  12.682  2.2478 -0.3670  0.4147
 9779TIP3    H250829   6.268   0.735  12.642 -1.7617 -0.6296  1.9108
 9780TIP3   OH250830   6.417   1.807  16.620  0.0288  0.7461 -0.7235
 9780TIP3    H150831   6.505   1.768  16.621  0.1787  1.0769 -0.5790
 9780TIP3    H250832   6.432   1.898  16.594 -0.2018  0.9670 -0.1005
 9781TIP3   OH250833   1.016   2.961  11.551  0.1806 -0.7020 -0.5645
 9781TIP3    H150834   1.051   2.877  11.582  0.3528 -0.4690 -0.1128
 9781TIP3    H250835   1.023   3.019  11.627  1.4788  0.1511 -1.3168
 9782TIP3   OH250836   2.809   5.767  11.517 -0.3248  0.4437  0.4778
 9782TIP3    H150837   2.746   5.813  11.463  0.0880  0.6066  0.1326
 9782TIP3    H250838   2.878   5.831  11.536  0.6530 -0.2200 -0.6631
 9783TIP3   OH250839   5.223   6.627   4.669 -0.1745  0.5566  0.3769
 9783TIP3    H150840   5.171   6.592   4.741 -0.1623  0.5104  0.3633
 9783TIP3    H250841   5.170   6.612   4.591  0.6986 -1.2948  0.0937
 9784TIP3   OH250842   5.652   1.461   2.869 -0.3017 -0.1343  0.3334
 9784TIP3    H150843   5.697   1.377   2.861 -2.2331 -1.1650 -0.4862
 9784TIP3    H250844   5.673   1.508   2.788 -0.4895 -0.4924  0.0769
 9785TIP3   OH250845   4.426   1.003  12.791 -0.2910  0.5331  0.0108
 9785TIP3    H150846   4.456   0.937  12.853 -1.4443 -0.5279 -0.5249
 9785TIP3    H250847   4.350   1.043  12.833 -0.2437  0.7791 -0.1312
 9786TIP3   OH250848   2.890   2.063   0.988  0.1491 -0.8215 -0.4477
 9786TIP3    H150849   2.903   2.056   0.893 -1.4909 -3.4280 -0.5928
 9786TIP3    H250850   2.824   2.131   0.998 -1.4469 -2.1500 -1.4418
 9787TIP3   OH250851   2.764   5.688   5.840  0.1452  0.5349 -0.6527
 9787TIP3    H150852   2.798   5.620   5.783 -0.1212 -0.1083 -0.0607
 9787TIP3    H250853   2.800   5.769   5.806  0.2662  0.1215 -1.5171
 9788TIP3   OH250854   1.270   6.459   5.465 -0.2898 -0.1072  0.3279
 9788TIP3    H150855   1.309   6.382   5.422 -2.7043  0.1390 -2.6459
 9788TIP3    H250856   1.193   6.479   5.411 -0.8453  3.2381  2.1611
 9789TIP3   OH250857   4.795   6.269  15.566  0.4097  0.2461  0.2727
 9789TIP3    H150858   4.883   6.266  15.604  0.7915  1.3608 -0.4755
 9789TIP3    H250859   4.793   6.352  15.517 -1.1556  0.3841  0.5253
 9790TIP3   OH250860   4.858   3.638  16.787 -0.0304  0.2455  0.3416
 9790TIP3    H150861   4.889   3.603  16.703  0.9423 -0.9528  1.1712
 9790TIP3    H250862   4.883   3.731  16.784  0.4152  0.1108 -0.4986
 9791TIP3   OH250863   3.989   3.777   0.305 -0.2109 -0.0428  0.2790
 9791TIP3    H150864   3.922   3.760   0.238 -0.3816  0.4231  0.3281
 9791TIP3    H250865   4.061   3.719   0.282  0.2866  1.0775 -1.1099
 9792TIP3   OH250866   5.431   6.508   1.557 -0.5750 -0.3097  0.0687
 9792TIP3    H150867   5.398   6.465   1.635 -0.9188 -1.6588 -0.7979
 9792TIP3    H250868   5.449   6.598   1.585 -0.0727 -0.9327  1.8527
 9793TIP3   OH250869   2.916   6.347  13.579  0.2890 -0.1501  0.1120
 9793TIP3    H150870   2.909   6.260  13.617 -0.0187 -0.7646 -1.3013
 9793TIP3    H250871   3.003   6.348  13.537  0.8746  0.7242  1.2750
 9794TIP3   OH250872   0.571   2.228   3.595 -0.3362 -0.1503  0.3360
 9794TIP3    H150873   0.614   2.313   3.604  1.0803 -0.7752 -0.1681
 9794TIP3    H250874   0.617   2.185   3.523 -1.7102 -0.9548 -0.0990
 9795TIP3   OH250875   0.736   3.758   5.603 -0.0501 -0.5892 -0.3322
 9795TIP3    H150876   0.679   3.812   5.658 -1.7951 -3.1607  0.6005
 9795TIP3    H250877   0.820   3.805   5.601 -0.8284  1.0854  2.0951
 9796TIP3   OH250878   4.195   4.133  15.309  0.2669  0.3533 -0.3169
 9796TIP3    H150879   4.259   4.183  15.258 -1.2779  1.4901 -1.2371
 9796TIP3    H250880   4.227   4.139  15.399  2.5175 -0.8606 -0.9568
 9797TIP3   OH250881   6.094   6.748   4.543 -0.3791  0.8917  0.6934
 9797TIP3    H150882   6.133   6.662   4.560  0.2159  1.0947  0.3982
 9797TIP3    H250883   6.059   6.742   4.455 -1.3679  0.5926  1.0900
 9798TIP3   OH250884   1.027   5.540  14.457  0.6097 -0.0127 -0.8110
 9798TIP3    H150885   1.061   5.520  14.370  1.2099 -0.8343 -0.4073
 9798TIP3    H250886   1.092   5.504  14.517 -0.9525 -1.6218  0.0083
 9799TIP3   OH250887   1.782   1.561  12.626 -0.1142  0.1168  0.2388
 9799TIP3    H150888   1.789   1.571  12.531  0.2788 -0.3633  0.2089
 9799TIP3    H250889   1.858   1.507  12.650  0.4201  1.1637  0.9702
 9800TIP3   OH250890   2.883   2.669   4.971 -0.9688  0.7881  0.0131
 9800TIP3    H150891   2.812   2.607   4.955  2.2213 -3.2034 -0.2427
 9800TIP3    H250892   2.922   2.684   4.885  1.3765 -1.1893  0.5880
 9801TIP3   OH250893   5.161   6.383   1.744  0.0344  0.2485  0.1876
 9801TIP3    H150894   5.148   6.454   1.681 -1.1158 -0.8606 -0.8909
 9801TIP3    H250895   5.078   6.375   1.789 -0.1680 -1.0114 -0.3725
 9802TIP3   OH250896   4.861   5.036  11.873  0.5962 -0.3253 -0.2276
 9802TIP3    H150897   4.862   5.057  11.967 -1.7935 -0.1105 -0.1800
 9802TIP3    H250898   4.939   5.078  11.838  0.6783  0.9891  1.3980
 9803TIP3   OH250899   4.980   2.580  12.028  0.1195  0.3242 -0.4132
 9803TIP3    H150900   4.967   2.514  12.096  0.9709  2.0888  1.6014
 9803TIP3    H250901   5.065   2.619  12.048  1.1141 -0.0324 -3.4313
 9804TIP3   OH250902   3.216   2.453  13.613 -0.4033 -0.0998  0.2075
 9804TIP3    H150903   3.258   2.508  13.678 -0.5427 -0.5006  0.6415
 9804TIP3    H250904   3.276   2.452  13.539 -0.9896  1.7049 -0.3412
 9805TIP3   OH250905   3.108   6.114   4.538 -0.1799  0.1983 -0.1255
 9805TIP3    H150906   3.102   6.121   4.442 -0.7736 -0.4782 -0.1443
 9805TIP3    H250907   3.082   6.200   4.570  2.8760  1.4524 -0.6413
 9806TIP3   OH250908   6.055   0.029  16.494 -0.0360 -0.0864 -0.4355
 9806TIP3    H150909   6.084   0.121  16.491  0.9583 -0.3964 -0.8397
 9806TIP3    H250910   5.978   0.030  16.551  0.2599  0.9236 -0.0244
 9807TIP3   OH250911   1.321   5.424   0.469 -0.2919 -0.2164  0.8747
 9807TIP3    H150912   1.408   5.454   0.444 -1.1090  0.3808 -1.6183
 9807TIP3    H250913   1.300   5.473   0.548  1.8392 -0.8348  1.8799
 9808TIP3   OH250914   2.339   1.286  14.137  0.3095 -0.4124  0.0175
 9808TIP3    H150915   2.336   1.320  14.226  1.4812 -0.3087  0.0331
 9808TIP3    H250916   2.342   1.191  14.147 -1.1893 -0.4769  0.0243
 9809TIP3   OH250917   1.900   6.819   0.977 -0.1163 -0.0925 -0.1712
 9809TIP3    H150918   1.951   6.854   0.904 -0.1297  0.6239  0.1600
 9809TIP3    H250919   1.815   6.797   0.938 -0.2051  0.5094 -0.3272
 9810TIP3   OH250920   1.878   1.571   3.285  0.0179 -0.0142 -0.0322
 9810TIP3    H150921   1.972   1.559   3.301 -0.3487 -1.1112  1.5962
 9810TIP3    H250922   1.873   1.616   3.201  2.0035  0.1679 -0.0971
 9811TIP3   OH250923   4.450   4.915   4.461 -0.2311 -1.1270  0.2571
 9811TIP3    H150924   4.485   4.948   4.544 -0.3302  0.3750 -0.2594
 9811TIP3    H250925   4.527   4.889   4.411 -0.1570 -1.8277  0.7162
 9812TIP3   OH250926   2.982   1.013   2.483 -0.3895 -0.2424 -0.2781
 9812TIP3    H150927   3.073   1.020   2.453 -0.1423 -2.6135 -0.3186
 9812TIP3    H250928   2.951   1.103   2.489  1.7000  0.5885 -1.0732
 9813TIP3   OH250929   0.650   0.610   2.341 -0.1691  0.0057  0.2154
 9813TIP3    H150930   0.618   0.645   2.424  0.1296 -0.7095  0.6474
 9813TIP3    H250931   0.720   0.549   2.366  1.1316  1.0859 -0.6672
 9814TIP3   OH250932   5.819   5.015  13.667  0.1446  0.3744 -0.0628
 9814TIP3    H150933   5.838   5.040  13.576  0.9919  0.6122  0.1742
 9814TIP3    H250934   5.778   5.093  13.704  1.3525  0.8966  0.2283
 9815TIP3   OH250935   2.116   2.481   1.562 -0.6327 -0.2225 -0.3875
 9815TIP3    H150936   2.058   2.420   1.609  0.4154 -0.3729  0.7628
 9815TIP3    H250937   2.165   2.426   1.501  0.1619 -0.5228  0.5020
 9816TIP3   OH250938   2.779   4.034   4.408 -0.0610 -0.5353 -0.8578
 9816TIP3    H150939   2.800   4.126   4.424 -1.8090 -0.3944  1.0800
 9816TIP3    H250940   2.775   4.026   4.313  1.0725  1.1416 -1.0881
 9817TIP3   OH250941   3.268   5.196   1.229  0.1671  0.0138 -0.1496
 9817TIP3    H150942   3.228   5.280   1.209 -1.0665 -0.6554 -0.5954
 9817TIP3    H250943   3.338   5.186   1.165 -0.6259  0.0599 -1.0429
 9818TIP3   OH250944   3.147   5.307  16.963 -0.6147 -0.2745  0.3901
 9818TIP3    H150945   3.133   5.214  16.947  0.2102 -0.6902  1.9858
 9818TIP3    H250946   3.208   5.334  16.894 -0.1061 -1.1379  0.4877
 9819TIP3   OH250947   0.538   0.428  12.673  0.4915  0.2279 -0.9333
 9819TIP3    H150948   0.541   0.355  12.734 -0.1070 -0.7900 -2.0878
 9819TIP3    H250949   0.625   0.467  12.678  0.2796  0.5579  0.9905
 9820TIP3   OH250950   3.114   3.895  15.798 -0.6605  0.0854 -0.4969
 9820TIP3    H150951   3.133   3.984  15.768  0.2849 -0.5385 -1.8589
 9820TIP3    H250952   3.053   3.907  15.870 -0.3638  1.8529 -0.4855
 9821TIP3   OH250953   3.126   4.224  12.109 -1.1217 -0.3124 -0.1332
 9821TIP3    H150954   3.150   4.133  12.123 -0.8671 -0.1725  0.3796
 9821TIP3    H250955   3.102   4.229  12.017  2.2890 -0.1816 -1.1443
 9822TIP3   OH250956   0.451   3.350   1.895  0.2663 -0.4136  0.0225
 9822TIP3    H150957   0.436   3.436   1.856  0.2344 -0.1344  0.6411
 9822TIP3    H250958   0.493   3.299   1.826  1.3555  0.4593  0.0261
 9823TIP3   OH250959   4.601   2.757  16.301  0.1223 -0.4554  0.2313
 9823TIP3    H150960   4.632   2.682  16.353 -0.8254 -1.5755 -0.7601
 9823TIP3    H250961   4.532   2.796  16.355 -0.3117 -1.1278  0.1768
 9824TIP3   OH250962   3.704   0.139  14.881  0.1229  0.1413  0.1698
 9824TIP3    H150963   3.618   0.123  14.842 -0.8068 -2.3468  2.8550
 9824TIP3    H250964   3.692   0.218  14.933 -0.5695 -0.1470  0.4730
 9825TIP3   OH250965   0.782   4.463   1.143  0.2898 -0.2204  0.0317
 9825TIP3    H150966   0.838   4.418   1.206  1.6934  2.2571  0.6886
 9825TIP3    H250967   0.843   4.515   1.090 -1.1883  0.7568 -0.7963
 9826TIP3   OH250968   4.252   5.613   1.149  0.2695 -0.2872  0.1445
 9826TIP3    H150969   4.185   5.551   1.120 -0.7522  0.7032  0.3020
 9826TIP3    H250970   4.259   5.599   1.243 -0.6271  0.4443  0.3293
 9827TIP3   OH250971   0.128   6.138  16.312 -0.0032  0.2956 -0.3804
 9827TIP3    H150972   0.092   6.225  16.292  1.6524  1.3020  0.8009
 9827TIP3    H250973   0.163   6.108  16.228  1.4296  1.8032 -0.3850
 9828TIP3   OH250974   4.115   1.729  11.815 -0.6955 -0.1985  0.3260
 9828TIP3    H150975   4.068   1.811  11.826 -0.1488  0.3003 -0.9083
 9828TIP3    H250976   4.048   1.667  11.784 -0.9210 -0.0069  0.4261
 9829TIP3   OH250977   3.632   1.723   4.899 -0.5013 -0.0402  0.0396
 9829TIP3    H150978   3.698   1.785   4.866 -1.4688  0.2673 -1.4203
 9829TIP3    H250979   3.674   1.638   4.892 -0.4127  0.0999 -1.3608
 9830TIP3   OH250980   5.121   6.627   3.706 -0.1338  0.5755 -0.7879
 9830TIP3    H150981   5.196   6.644   3.648  0.0657  0.9122 -0.4351
 9830TIP3    H250982   5.159   6.610   3.791 -0.4740  1.2031 -0.5015
 9831TIP3   OH250983   3.203   3.285   0.936 -0.0690 -0.4030  0.2003
 9831TIP3    H150984   3.203   3.208   0.879  1.3889  0.3002 -0.8254
 9831TIP3    H250985   3.252   3.257   1.014 -2.1934 -1.4107  1.2389
 9832TIP3   OH250986   5.555   3.010  11.100 -0.2739 -0.9134 -0.0177
 9832TIP3    H150987   5.635   3.021  11.049 -0.3420 -1.1859 -0.1869
 9832TIP3    H250988   5.489   3.059  11.051 -0.1031 -0.2811  0.3843
 9833TIP3   OH250989   2.836   3.563   3.733 -0.7753 -0.2936  0.0812
 9833TIP3    H150990   2.782   3.630   3.776  0.7423  0.8105  0.3409
 9833TIP3    H250991   2.901   3.540   3.799  0.2624 -0.1631 -0.8726
 9834TIP3   OH250992   4.620   2.667   5.047  0.6584  0.2388 -0.5971
 9834TIP3    H150993   4.646   2.641   4.959  0.3586 -1.8333 -0.1285
 9834TIP3    H250994   4.699   2.654   5.100  1.1499  2.4834 -0.7010
 9835TIP3   OH250995   6.158   2.335   4.467 -0.0774 -0.0539  0.0157
 9835TIP3    H150996   6.206   2.364   4.545  2.1559  0.7191 -1.5437
 9835TIP3    H250997   6.215   2.358   4.394 -1.4383 -2.0629 -1.7962
 9836TIP3   OH250998   3.045   3.980   1.403 -0.2824  0.1927 -0.4609
 9836TIP3    H150999   2.974   4.042   1.418 -0.0591  0.2128  0.6107
 9836TIP3    H251000   3.105   4.025   1.344 -0.2328  0.9187  0.1317
 9837TIP3   OH251001   2.574   5.595   0.665  0.1725 -0.4311  0.6528
 9837TIP3    H151002   2.540   5.585   0.754 -1.6773  0.6026  0.1090
 9837TIP3    H251003   2.523   5.533   0.613  0.3681 -0.1418  0.1114
 9838TIP3   OH251004   1.436   4.277  14.127  0.3668 -0.1714 -0.4735
 9838TIP3    H151005   1.488   4.357  14.138 -1.0647  0.7719 -0.3859
 9838TIP3    H251006   1.408   4.254  14.215  0.6613 -0.7096 -0.5156
 9839TIP3   OH251007   3.725   6.454  15.103  0.0422 -0.1722 -0.1605
 9839TIP3    H151008   3.761   6.466  15.015  1.2776  0.5085  0.4179
 9839TIP3    H251009   3.789   6.494  15.161 -0.9527 -0.2587  1.0347
 9840TIP3   OH251010   1.302   3.759   5.941  0.3091 -0.6069  0.2367
 9840TIP3    H151011   1.310   3.701   6.017  0.7126 -0.7809  0.0667
 9840TIP3    H251012   1.357   3.834   5.962  0.6759 -0.8025 -0.0175
 9841TIP3   OH251013   5.919   2.105   3.947  0.4370  0.6838 -0.2406
 9841TIP3    H151014   5.935   2.176   3.885 -0.9092  1.5585  0.3780
 9841TIP3    H251015   5.842   2.061   3.914 -0.8387  1.7102  1.2288
 9842TIP3   OH251016   5.052   1.780  12.998  0.1273  0.2698  0.1097
 9842TIP3    H151017   4.998   1.836  12.942  1.1492  1.9863  0.7652
 9842TIP3    H251018   5.126   1.836  13.024 -0.9505  0.0532  4.2743
 9843TIP3   OH251019   0.301   0.177   3.187  0.4043 -0.0674 -0.0013
 9843TIP3    H151020   0.233   0.213   3.130  0.8031  1.3113  0.3548
 9843TIP3    H251021   0.374   0.156   3.128  0.5072  0.5830 -0.1106
 9844TIP3   OH251022   6.449   5.840   3.193 -0.4765  0.0196 -0.1665
 9844TIP3    H151023   6.463   5.930   3.165  0.3409  0.3267  1.1088
 9844TIP3    H251024   6.357   5.822   3.174 -0.4172  0.8067 -1.2587
 9845TIP3   OH251025   6.079   5.698   5.885  0.4725 -0.4514 -0.4373
 9845TIP3    H151026   6.095   5.707   5.979  0.0970  1.0288 -0.4873
 9845TIP3    H251027   5.987   5.725   5.874  0.2926 -1.3206 -1.1343
 9846TIP3   OH251028   5.706   2.125   1.481 -0.1369  0.5512  0.0095
 9846TIP3    H151029   5.623   2.168   1.505 -2.1502 -3.2249  0.6469
 9846TIP3    H251030   5.689   2.086   1.395  0.5948 -1.0978  0.5738
 9847TIP3   OH251031   0.133   2.743   2.430 -0.3109 -0.2396  0.2700
 9847TIP3    H151032   0.101   2.748   2.521  0.3530 -1.0679  0.5563
 9847TIP3    H251033   0.158   2.833   2.409 -0.8549  0.0354  0.7639
 9848TIP3   OH251034   5.624   6.822   4.121 -0.1203 -0.3213  0.1367
 9848TIP3    H151035   5.647   6.743   4.168  0.7349 -0.7677 -0.9709
 9848TIP3    H251036   5.591   6.882   4.188  1.0210 -0.9353  1.2816
 9849TIP3   OH251037   3.963   5.000   5.010 -0.0542  0.2046 -0.1597
 9849TIP3    H151038   3.945   4.978   4.918  0.7148  0.1168 -0.2977
 9849TIP3    H251039   3.884   4.973   5.057 -1.2465  1.9538 -1.0340
 9850TIP3   OH251040   6.814   3.894  16.459  0.2235 -0.0787  0.0967
 9850TIP3    H151041   6.779   3.818  16.505  0.6006 -0.2859  0.0512
 9850TIP3    H251042   6.766   3.969  16.494 -0.5102 -0.3932 -0.2267
 9851TIP3   OH251043   3.348   3.298  15.707 -0.1713 -0.0352  0.5113
 9851TIP3    H151044   3.362   3.204  15.696  0.0411 -0.0285  0.6938
 9851TIP3    H251045   3.283   3.304  15.777  0.6363 -0.0339  1.2840
 9852TIP3   OH251046   5.275   5.267   4.719  0.1771 -0.1524  0.0973
 9852TIP3    H151047   5.301   5.299   4.632 -2.3756  2.3492  0.1015
 9852TIP3    H251048   5.297   5.339   4.778 -1.8219 -0.0772  0.8301
 9853TIP3   OH251049   3.861   2.006  12.011 -0.0419  0.3228 -0.8042
 9853TIP3    H151050   3.777   2.001  11.966 -1.0384 -0.3785  1.0246
 9853TIP3    H251051   3.839   2.037  12.099  1.8563  1.9289 -0.8388
 9854TIP3   OH251052   3.082   6.818  15.945 -0.0385 -0.5626 -0.3485
 9854TIP3    H151053   3.075   6.801  16.039 -0.9232 -0.3269 -0.3676
 9854TIP3    H251054   3.173   6.847  15.933  0.3112 -1.3488  0.3002
 9855TIP3   OH251055   4.332   3.434   0.960 -0.7926  0.7751 -0.1243
 9855TIP3    H151056   4.392   3.398   0.896  0.2812  1.3748  0.5122
 9855TIP3    H251057   4.303   3.359   1.012 -0.0704  0.5696 -0.0142
 9856TIP3   OH251058   5.770   0.091   2.840  0.5160 -0.5685  0.6761
 9856TIP3    H151059   5.704   0.071   2.774 -0.5905 -0.8382  1.8280
 9856TIP3    H251060   5.734   0.166   2.888  0.5457 -1.3491  1.9657
 9857TIP3   OH251061   5.873   6.264  14.749 -0.0297 -0.0115  0.2162
 9857TIP3    H151062   5.804   6.199  14.762 -1.4385  1.6083  1.3087
 9857TIP3    H251063   5.952   6.212  14.731 -1.2460 -1.9640  0.1832
 9858TIP3   OH251064   2.143   6.089  12.996 -0.2782 -0.4991 -0.5347
 9858TIP3    H151065   2.066   6.137  13.027  1.5860  2.3933 -0.0181
 9858TIP3    H251066   2.207   6.157  12.977  1.0095 -2.5265 -4.4483
 9859TIP3   OH251067   3.034   5.806   0.708  0.5610 -0.0721  0.1172
 9859TIP3    H151068   3.115   5.755   0.697 -0.6427 -2.0115 -0.2052
 9859TIP3    H251069   3.065   5.895   0.725  2.7532 -0.0823 -2.9301
 9860TIP3   OH251070   6.442   0.533   2.884  0.7569 -0.0031  0.2765
 9860TIP3    H151071   6.392   0.595   2.832 -0.8104 -1.6923 -0.3591
 9860TIP3    H251072   6.436   0.451   2.835 -0.4537 -1.5966  2.8448
 9861TIP3   OH251073   4.820   4.326   2.249 -0.3928  0.0094 -0.0356
 9861TIP3    H151074   4.777   4.286   2.173  0.2560  2.2950 -1.7493
 9861TIP3    H251075   4.910   4.292   2.246 -0.4716 -0.1939 -0.0880
 9862TIP3   OH251076   2.460   0.514  16.954 -0.2887  0.6702 -0.1250
 9862TIP3    H151077   2.448   0.554  16.868  0.2906  0.6050 -0.2368
 9862TIP3    H251078   2.411   0.570  17.014 -0.3396  0.9580 -0.4341
 9863TIP3   OH251079   0.986   2.813  14.285  0.0499  0.6617  0.0892
 9863TIP3    H151080   0.977   2.899  14.326  0.8016  1.3112 -1.0555
 9863TIP3    H251081   0.901   2.797  14.244 -1.1197 -0.4879  2.6542
 9864TIP3   OH251082   1.753   6.324  11.933  0.0048  0.2208  0.0696
 9864TIP3    H151083   1.848   6.313  11.927 -0.1454 -1.0789 -0.2491
 9864TIP3    H251084   1.733   6.310  12.025 -0.1901 -2.8333 -0.3172
 9865TIP3   OH251085   4.650   5.571  12.561  0.5249 -0.4633  0.0061
 9865TIP3    H151086   4.723   5.564  12.622 -1.6300 -2.4658  2.6224
 9865TIP3    H251087   4.617   5.660  12.572  1.4802 -0.1079  0.0789
 9866TIP3   OH251088   4.041   4.306   3.969  0.1191  0.2090 -0.5368
 9866TIP3    H151089   4.096   4.233   3.940 -0.5140 -1.9804  3.0815
 9866TIP3    H251090   3.976   4.265   4.027 -1.8985  3.3774 -0.3097
 9867TIP3   OH251091   1.173   0.800   4.927  0.5469  0.4245  0.0009
 9867TIP3    H151092   1.224   0.825   4.850 -1.4128  0.8327 -1.2440
 9867TIP3    H251093   1.102   0.864   4.931 -0.8016 -1.0466  0.6730
 9868TIP3   OH251094   5.123   0.760  10.472 -0.6450 -0.2693 -0.1857
 9868TIP3    H151095   5.037   0.762  10.515 -0.8837  1.8232 -0.6590
 9868TIP3    H251096   5.105   0.781  10.380  0.5313  2.7048  0.1476
 9869TIP3   OH251097   0.149   5.897   5.398  0.0386  0.1772 -0.2411
 9869TIP3    H151098   0.063   5.879   5.361 -0.4404  2.1195 -0.1948
 9869TIP3    H251099   0.132   5.920   5.490  0.6046  0.5710 -0.2271
 9870TIP3   OH251100   2.310   6.695  10.997  0.4162 -0.1388 -0.4948
 9870TIP3    H151101   2.338   6.609  10.968 -1.0343 -0.7718 -0.0932
 9870TIP3    H251102   2.230   6.712  10.948  0.1020  0.5065  0.2242
 9871TIP3   OH251103   4.464   3.386  11.197 -0.1741  0.2930  0.4162
 9871TIP3    H151104   4.503   3.373  11.110 -0.8149  0.2386  0.1358
 9871TIP3    H251105   4.380   3.341  11.193  0.5797 -1.3494  1.6646
 9872TIP3   OH251106   1.117   5.944  16.763  0.3555 -0.3231  0.3805
 9872TIP3    H151107   1.164   6.014  16.717  2.8497 -0.9800  1.7987
 9872TIP3    H251108   1.132   5.866  16.710  0.3550 -0.4285  0.5357
 9873TIP3   OH251109   1.601   2.561  15.055 -0.9556  0.0554  0.4184
 9873TIP3    H151110   1.657   2.484  15.060 -1.1720 -0.0820  0.7735
 9873TIP3    H251111   1.608   2.601  15.142 -0.3786  0.7681  0.0561
 9874TIP3   OH251112   1.003   6.800  16.215 -0.0933 -0.6860  0.2124
 9874TIP3    H151113   0.940   6.831  16.279 -0.5203 -0.6824 -0.1993
 9874TIP3    H251114   1.037   6.718  16.252 -0.9318 -1.1106  0.0854
 9875TIP3   OH251115   0.091   0.956   2.380  0.0755 -0.2120  0.4368
 9875TIP3    H151116   0.144   0.973   2.303 -1.1251 -0.3574 -0.4501
 9875TIP3    H251117   0.153   0.927   2.447  1.1642  0.1989 -0.3776
 9876TIP3   OH251118   5.457   3.524  15.506 -0.4468  0.2217  0.0748
 9876TIP3    H151119   5.385   3.554  15.449 -1.4784 -0.1577  1.1314
 9876TIP3    H251120   5.468   3.432  15.484  0.2928  0.4735 -0.6597
 9877TIP3   OH251121   3.074   1.178  15.326 -0.5712  0.1588  0.0172
 9877TIP3    H151122   2.988   1.164  15.286 -1.2585 -1.5426  1.9043
 9877TIP3    H251123   3.095   1.269  15.306 -1.1577 -0.2997 -3.4674
 9878TIP3   OH251124   3.304   2.466  11.961  0.5741  0.0277 -0.2542
 9878TIP3    H151125   3.300   2.372  11.977 -0.0338 -0.1001 -1.0951
 9878TIP3    H251126   3.232   2.503  12.013  1.7443  0.2305  1.2904
 9879TIP3   OH251127   0.930   2.138   5.795  0.0046  0.3751  0.1785
 9879TIP3    H151128   0.982   2.065   5.761  0.8818  0.5224  1.1871
 9879TIP3    H251129   0.973   2.216   5.762 -0.8522  0.4733 -0.7775
 9880TIP3   OH251130   2.478   3.109  15.798  0.0427  0.3900  0.0695
 9880TIP3    H151131   2.515   3.194  15.778 -0.0921  0.8076  1.4818
 9880TIP3    H251132   2.385   3.126  15.812 -0.1700 -0.1631 -0.6163
 9881TIP3   OH251133   4.666   3.180   1.904 -0.7769  0.4400 -0.4013
 9881TIP3    H151134   4.670   3.120   1.978  1.5419  1.4863  0.3997
 9881TIP3    H251135   4.708   3.132   1.832 -0.5966  0.4241 -0.2848
 9882TIP3   OH251136   6.228   4.364  16.997  0.3838 -0.2171  0.2378
 9882TIP3    H151137   6.286   4.396  17.067  0.8799  0.9474 -0.6701
 9882TIP3    H251138   6.282   4.368  16.918 -1.3544  2.5552 -0.9502
 9883TIP3   OH251139   2.182   4.705  14.992 -0.0644  0.4481 -0.1881
 9883TIP3    H151140   2.184   4.665  15.079 -0.7524 -0.3818 -0.5305
 9883TIP3    H251141   2.218   4.637  14.934  1.5957  1.4627 -0.4020
 9884TIP3   OH251142   0.192   4.754   3.377 -0.1384 -0.6860  0.1299
 9884TIP3    H151143   0.106   4.740   3.338  0.8731 -1.3075 -2.0927
 9884TIP3    H251144   0.216   4.843   3.350 -0.4119 -0.1844  1.4811
 9885TIP3   OH251145   2.612   1.390   5.729 -0.5658  0.5387  0.7639
 9885TIP3    H151146   2.586   1.346   5.810 -2.2141  0.7005  0.3681
 9885TIP3    H251147   2.697   1.352   5.707 -0.9769 -0.9201  1.5394
 9886TIP3   OH251148   6.560   6.222   3.394 -0.0772  0.8897  0.6948
 9886TIP3    H151149   6.597   6.154   3.450 -1.5634 -0.8495 -0.3171
 9886TIP3    H251150   6.623   6.231   3.322 -0.5871 -0.5714  0.0356
 9887TIP3   OH251151   5.163   4.212   2.311 -0.5179  0.2810  0.1406
 9887TIP3    H151152   5.164   4.308   2.310  0.3239  0.2734 -0.9569
 9887TIP3    H251153   5.242   4.188   2.361 -0.5775  0.1514  0.1741
 9888TIP3   OH251154   4.698   0.321  13.594 -0.6299 -0.0637  0.4203
 9888TIP3    H151155   4.632   0.390  13.588 -0.6746 -0.0927  0.5563
 9888TIP3    H251156   4.648   0.242  13.616 -0.7513 -0.4409 -1.1096
 9889TIP3   OH251157   5.815   5.367   3.561  0.0792  0.0592 -0.3209
 9889TIP3    H151158   5.748   5.310   3.599  0.7206 -0.7237 -0.3480
 9889TIP3    H251159   5.898   5.330   3.591  0.5000  1.4002  0.2616
 9890TIP3   OH251160   4.263   2.602   3.888 -0.3912 -0.5167  0.0087
 9890TIP3    H151161   4.207   2.584   3.813 -0.0100 -1.3195 -0.0914
 9890TIP3    H251162   4.209   2.577   3.964 -1.4514  1.9525  0.1561
 9891TIP3   OH251163   5.772   2.784  16.198 -0.0038  0.0508  0.5032
 9891TIP3    H151164   5.678   2.787  16.181  0.0584  1.5603  0.3003
 9891TIP3    H251165   5.813   2.791  16.112  0.3160 -1.1212  0.5414
 9892TIP3   OH251166   6.744   2.239  17.063  0.1870 -0.3054 -0.0435
 9892TIP3    H151167   6.799   2.315  17.083 -0.5783  0.7437 -1.6942
 9892TIP3    H251168   6.673   2.243  17.127  1.5888 -1.2891  1.6677
 9893TIP3   OH251169   0.833   1.994   0.099  0.0840  0.7249 -0.0614
 9893TIP3    H151170   0.887   1.925   0.060  2.1505  2.6467 -0.8089
 9893TIP3    H251171   0.886   2.028   0.171 -1.6301  0.4543  1.4050
 9894TIP3   OH251172   1.223   0.383  12.889 -0.0853 -0.1610  0.3697
 9894TIP3    H151173   1.168   0.326  12.836 -0.1830 -0.9738  1.3136
 9894TIP3    H251174   1.312   0.353  12.873 -0.2308 -1.4494  1.8420
 9895TIP3   OH251175   2.931   2.962  16.728  0.1570  0.3057  0.4169
 9895TIP3    H151176   2.961   2.877  16.696 -1.1855  0.0701 -0.2629
 9895TIP3    H251177   2.937   2.956  16.823  1.8055  0.1223  0.3428
 9896TIP3   OH251178   6.802   3.535   5.085  0.5164 -0.3012 -0.1180
 9896TIP3    H151179   6.802   3.623   5.123  0.1093  0.5371 -1.9945
 9896TIP3    H251180   6.711   3.506   5.092  0.7633 -0.8811  1.0811
 9897TIP3   OH251181   0.867   6.704  15.192  0.4855 -0.0287 -0.2755
 9897TIP3    H151182   0.794   6.713  15.254  0.7972  2.9264 -0.2251
 9897TIP3    H251183   0.824   6.692  15.107 -0.0367  0.2493 -0.0564
 9898TIP3   OH251184   5.368   3.732   3.536 -0.0315  0.1735  0.0612
 9898TIP3    H151185   5.431   3.758   3.603  0.1222  0.5240 -0.2187
 9898TIP3    H251186   5.288   3.779   3.559 -0.6691 -1.4046  1.2872
 9899TIP3   OH251187   4.116   5.806   6.083  0.5960  0.5625 -0.0524
 9899TIP3    H151188   4.062   5.885   6.088 -0.1848  0.0846 -0.6612
 9899TIP3    H251189   4.074   5.745   6.144  0.1960  0.0589 -0.8054
 9900TIP3   OH251190   3.064   5.652   3.652  0.1185 -0.5464 -0.0920
 9900TIP3    H151191   2.977   5.613   3.648 -0.2300 -0.0388  1.7118
 9900TIP3    H251192   3.048   5.746   3.653  0.7095 -0.4417 -0.1866
 9901TIP3   OH251193   5.160   5.117   5.629 -0.0193  0.2759 -0.0796
 9901TIP3    H151194   5.243   5.085   5.593  0.9013 -0.0191  2.1442
 9901TIP3    H251195   5.164   5.212   5.618 -0.2880  0.1333 -1.6966
 9902TIP3   OH251196   2.185   5.023  15.956  0.2614 -0.3533  0.1182
 9902TIP3    H151197   2.125   4.984  16.019 -0.3324  0.1363 -0.1299
 9902TIP3    H251198   2.153   4.992  15.871 -0.4461  0.9221 -0.1147
 9903TIP3   OH251199   4.105   4.878   2.928 -0.2811  0.1127 -0.2045
 9903TIP3    H151200   4.168   4.878   2.856 -1.8310 -0.9958 -1.6243
 9903TIP3    H251201   4.110   4.967   2.963 -1.1678  1.5179 -3.2658
 9904TIP3   OH251202   1.708   6.055  12.524 -0.0844 -0.3761 -0.7102
 9904TIP3    H151203   1.763   5.986  12.562  1.7198  0.6848 -1.2894
 9904TIP3    H251204   1.700   6.032  12.432  0.0236 -0.1270 -0.7826
 9905TIP3   OH251205   3.605   1.335   1.821 -0.4382  0.0100 -0.1863
 9905TIP3    H151206   3.666   1.375   1.760  0.9384  0.3145  1.3058
 9905TIP3    H251207   3.591   1.401   1.888  0.9305 -1.4885  1.7044
 9906TIP3   OH251208   1.771   3.742   3.054 -0.8130  0.1864 -0.3977
 9906TIP3    H151209   1.700   3.718   2.996 -0.7595  2.1737 -1.3918
 9906TIP3    H251210   1.771   3.838   3.053  0.6311  0.2526  1.1235
 9907TIP3   OH251211   1.540   3.990   4.787 -0.0682  0.5608 -0.1241
 9907TIP3    H151212   1.539   3.909   4.737  1.0538  0.1604  0.4594
 9907TIP3    H251213   1.459   3.988   4.838 -0.9163  0.6786 -1.4227
 9908TIP3   OH251214   1.259   3.162   4.704  0.0261 -0.3689 -0.2343
 9908TIP3    H151215   1.351   3.153   4.728  1.1376 -1.1161 -4.0209
 9908TIP3    H251216   1.227   3.072   4.697 -1.2080 -0.1112  1.5154
 9909TIP3   OH251217   2.657   1.169  16.663  0.2494 -0.2822  0.4352
 9909TIP3    H151218   2.740   1.201  16.628 -0.0681 -1.4575 -1.5432
 9909TIP3    H251219   2.666   1.074  16.665 -2.3169 -0.8969 -3.8217
 9910TIP3   OH251220   1.488   1.975  14.132 -0.7195 -0.1712  0.7279
 9910TIP3    H151221   1.403   2.013  14.108 -0.7536 -0.4396  0.4024
 9910TIP3    H251222   1.504   2.005  14.221 -0.1620  1.6238  0.0728
 9911TIP3   OH251223   1.373   2.232   1.200 -0.0540 -0.4294  0.0252
 9911TIP3    H151224   1.351   2.141   1.218 -0.1303  0.0142  2.5173
 9911TIP3    H251225   1.333   2.282   1.272 -0.2998  1.6213 -1.4483
 9912TIP3   OH251226   6.768   5.050  12.944 -0.0359 -0.2068  0.0367
 9912TIP3    H151227   6.681   5.018  12.921  0.2755 -0.3727 -0.9442
 9912TIP3    H251228   6.787   5.009  13.028 -0.4499 -1.0582 -0.2705
 9913TIP3   OH251229   4.984   4.246   4.273 -0.3059 -0.3748  0.2191
 9913TIP3    H151230   4.934   4.320   4.238 -0.8943 -0.4051  0.9585
 9913TIP3    H251231   5.044   4.286   4.336 -0.2781 -0.4759  0.2555
 9914TIP3   OH251232   0.094   3.681  13.871 -0.1691 -0.1334  0.2535
 9914TIP3    H151233   0.021   3.621  13.860  0.7754 -1.5006  1.0095
 9914TIP3    H251234   0.057   3.768  13.858 -1.1914 -0.9165 -3.0449
 9915TIP3   OH251235   1.202   2.538   3.820 -0.0408  0.0186  0.4736
 9915TIP3    H151236   1.247   2.539   3.904  1.4378  0.1285 -0.2891
 9915TIP3    H251237   1.272   2.525   3.755 -1.1629 -0.2545 -0.7262
 9916TIP3   OH251238   6.694   4.255   0.530 -0.0196 -0.2196 -0.6519
 9916TIP3    H151239   6.626   4.198   0.494 -0.6906  0.2695 -0.1767
 9916TIP3    H251240   6.682   4.338   0.484 -0.0986  0.0357 -0.1664
 9917TIP3   OH251241   0.490   4.947  11.732  0.0585  0.1693 -0.1892
 9917TIP3    H151242   0.520   5.031  11.768 -0.7583  1.0242 -1.4337
 9917TIP3    H251243   0.480   4.963  11.638 -1.2425 -0.9769 -0.2729
 9918TIP3   OH251244   0.802   4.945   3.168  0.2879 -0.1158 -0.1214
 9918TIP3    H151245   0.759   5.002   3.232 -1.0177  1.5825 -2.3764
 9918TIP3    H251246   0.731   4.895   3.129  0.4683  1.4921 -2.7053
 9919TIP3   OH251247   2.221   4.809   1.905 -0.1397 -1.1146 -0.1816
 9919TIP3    H151248   2.211   4.783   1.997 -0.9257 -0.9426 -0.2134
 9919TIP3    H251249   2.215   4.905   1.907 -0.6624 -1.1379 -0.4657
 9920TIP3   OH251250   4.306   5.024  13.343  0.5156 -0.0219  0.5305
 9920TIP3    H151251   4.320   4.941  13.388 -1.3247  1.0252  3.3587
 9920TIP3    H251252   4.215   5.021  13.313  0.3540  1.0162  0.8674
 9921TIP3   OH251253   0.408   0.969  15.976 -0.4972 -0.2226 -0.7159
 9921TIP3    H151254   0.413   0.964  15.880 -3.0738 -3.0023 -0.8504
 9921TIP3    H251255   0.421   0.879  16.005 -0.5599  0.4375  1.5466
 9922TIP3   OH251256   6.107   0.967  11.320  0.0101  0.4538 -0.3841
 9922TIP3    H151257   6.038   0.955  11.384 -1.0120 -0.7541 -1.6488
 9922TIP3    H251258   6.136   0.878  11.299  0.3848  0.8270 -1.5131
 9923TIP3   OH251259   6.188   4.411  11.961  0.3120  0.8197 -0.6117
 9923TIP3    H151260   6.281   4.412  11.938 -0.1717  0.1798 -2.8004
 9923TIP3    H251261   6.150   4.344  11.904 -1.3472  0.3814  0.9235
 9924TIP3   OH251262   4.535   6.107   1.318  0.3502  0.2816 -0.5085
 9924TIP3    H151263   4.482   6.185   1.332 -0.5668 -0.5308  0.7765
 9924TIP3    H251264   4.477   6.034   1.340  2.0301 -0.6492  1.1578
 9925TIP3   OH251265   2.692   6.168  10.919  0.3199 -0.1928 -0.2705
 9925TIP3    H151266   2.743   6.248  10.907 -1.3412  1.2170  1.4947
 9925TIP3    H251267   2.696   6.125  10.833  3.0208  0.6441 -0.6660
 9926TIP3   OH251268   4.497   1.336  13.739  0.2160  0.3128 -0.2699
 9926TIP3    H151269   4.452   1.418  13.754  1.5847  0.9411  0.6571
 9926TIP3    H251270   4.571   1.337  13.800  1.0305 -1.0033 -1.1588
 9927TIP3   OH251271   1.966   5.958  15.623 -0.0917 -0.2608 -0.7771
 9927TIP3    H151272   2.003   6.037  15.661  0.0029 -1.0478  0.8556
 9927TIP3    H251273   1.883   5.987  15.584 -0.4141  0.5199  0.4364
 9928TIP3   OH251274   3.231   2.619   4.650 -0.0117 -0.3695  0.3103
 9928TIP3    H151275   3.190   2.535   4.631  0.6846 -0.9951  1.4634
 9928TIP3    H251276   3.174   2.660   4.716 -0.9665  0.5992 -1.0580
 9929TIP3   OH251277   4.811   2.529   0.815 -0.3755  0.6354  0.1763
 9929TIP3    H151278   4.886   2.497   0.764 -0.9940  0.5274 -0.6942
 9929TIP3    H251279   4.813   2.478   0.895  1.0197  1.2779  0.5840
 9930TIP3   OH251280   6.164   6.381   3.136  0.1136  0.6290  1.0706
 9930TIP3    H151281   6.140   6.469   3.109 -1.2672 -0.3200 -1.1028
 9930TIP3    H251282   6.241   6.360   3.083 -1.0509 -0.3130 -0.3221
 9931TIP3   OH251283   3.176   6.381   2.954 -0.1751 -0.4302 -0.1791
 9931TIP3    H151284   3.116   6.344   3.018 -0.0666  0.6386  0.5590
 9931TIP3    H251285   3.230   6.443   3.004 -1.9780  2.6347 -1.7343
 9932TIP3   OH251286   3.197   2.958  11.018  0.7252  0.4199 -0.1250
 9932TIP3    H151287   3.178   3.048  11.043  0.5134  1.3302 -3.1907
 9932TIP3    H251288   3.150   2.904  11.083 -1.3156  2.5238  0.2713
 9933TIP3   OH251289   4.668   1.248   0.798  0.1714  0.1302 -0.2610
 9933TIP3    H151290   4.611   1.172   0.807 -0.2374  0.4951  0.2934
 9933TIP3    H251291   4.615   1.313   0.752  0.8560 -0.2571 -1.6417
 9934TIP3   OH251292   5.551   2.134  10.768  0.0668  0.3079 -0.6865
 9934TIP3    H151293   5.609   2.210  10.765  0.3921  0.1029  0.2157
 9934TIP3    H251294   5.605   2.062  10.734  0.1665  0.2343 -0.3794
 9935TIP3   OH251295   3.871   4.962   0.958 -0.3410  0.2103 -0.3971
 9935TIP3    H151296   3.782   4.963   0.922 -0.6313 -0.5554  0.2876
 9935TIP3    H251297   3.861   4.928   1.046  0.0270  4.0249  1.3404
 9936TIP3   OH251298   4.158   4.371  14.788 -0.4954 -0.6132 -0.0081
 9936TIP3    H151299   4.225   4.303  14.778  0.1446 -0.0022 -0.0292
 9936TIP3    H251300   4.192   4.444  14.735 -0.6253  0.1082  0.8842
 9937TIP3   OH251301   4.152   1.364   3.546  0.3737 -0.0556  0.3565
 9937TIP3    H151302   4.100   1.287   3.566  0.4524 -0.5503 -1.2770
 9937TIP3    H251303   4.090   1.437   3.550 -1.0429 -0.8310 -3.4924
 9938TIP3   OH251304   1.111   2.367  11.847 -0.3651 -0.0186 -0.2214
 9938TIP3    H151305   1.043   2.331  11.904 -1.0850  0.4803 -0.7638
 9938TIP3    H251306   1.092   2.460  11.842 -2.0791 -0.4078 -3.5703
 9939TIP3   OH251307   0.004   4.583  14.810 -0.4172  0.4166 -0.6276
 9939TIP3    H151308   0.074   4.601  14.748  0.3171 -0.4663 -0.0748
 9939TIP3    H251309   0.048   4.573  14.894 -1.1805 -0.3227 -0.2962
 9940TIP3   OH251310   6.302   0.239   1.212  0.1354  0.0889 -0.1382
 9940TIP3    H151311   6.299   0.267   1.120 -0.8487  0.4758  0.0044
 9940TIP3    H251312   6.331   0.148   1.207  2.2155  0.7232 -0.6783
 9941TIP3   OH251313   2.134   0.835   5.242 -0.2342  0.6130 -0.4336
 9941TIP3    H151314   2.192   0.780   5.189 -0.3558  2.0919 -2.1906
 9941TIP3    H251315   2.160   0.924   5.221 -0.7254  1.2854  1.5886
 9942TIP3   OH251316   5.414   5.626  16.282 -0.2921  0.1830  1.3420
 9942TIP3    H151317   5.332   5.576  16.276  0.3954 -0.9035  0.8068
 9942TIP3    H251318   5.412   5.683  16.206 -0.9441  0.7921  1.7991
 9943TIP3   OH251319   2.809   2.505   1.276  0.4924  0.6307 -0.0625
 9943TIP3    H151320   2.801   2.446   1.201  0.9016  1.0105 -0.4118
 9943TIP3    H251321   2.720   2.534   1.294  0.3867  0.4963 -0.3675
 9944TIP3   OH251322   3.356   3.201  15.076 -0.4393 -0.3890 -0.2098
 9944TIP3    H151323   3.419   3.271  15.093 -0.3968 -0.4314 -0.1914
 9944TIP3    H251324   3.409   3.122  15.072 -0.2770 -0.2419 -1.7508
 9945TIP3   OH251325   4.830   4.974   3.855  0.1925  0.3091 -0.3752
 9945TIP3    H151326   4.795   4.890   3.826  2.3326 -0.3580 -1.2386
 9945TIP3    H251327   4.761   5.038   3.835 -0.9019 -1.0268 -1.0290
 9946TIP3   OH251328   5.432   2.421   0.067 -0.2901 -0.1989  0.5088
 9946TIP3    H151329   5.451   2.492   0.006  1.0434 -1.0608 -0.1308
 9946TIP3    H251330   5.377   2.361   0.017  0.0092 -0.4351  0.4539
 9947TIP3   OH251331   5.217   3.202  15.037 -0.2023  0.0688  0.1419
 9947TIP3    H151332   5.286   3.157  15.087 -0.3252 -0.0816  0.1769
 9947TIP3    H251333   5.156   3.234  15.104 -0.8503 -0.9254  0.0497
 9948TIP3   OH251334   2.095   0.825   1.626 -0.3621  0.1820  0.2810
 9948TIP3    H151335   2.029   0.771   1.583  0.4352 -0.7777  0.2256
 9948TIP3    H251336   2.128   0.770   1.698  0.5528  0.5372  0.1475
 9949TIP3   OH251337   4.953   5.440   1.478  0.5005  0.1524  0.5745
 9949TIP3    H151338   4.919   5.372   1.421 -0.1120  1.6692 -0.9623
 9949TIP3    H251339   5.048   5.437   1.467  0.3633  0.7654 -0.9824
 9950TIP3   OH251340   6.247   3.531   4.474 -0.1838 -0.0030  0.3305
 9950TIP3    H151341   6.249   3.465   4.544  2.2326  1.5812  1.9302
 9950TIP3    H251342   6.339   3.545   4.452 -0.6763  2.1179 -0.6302
 9951TIP3   OH251343   4.177   4.410  15.901 -1.1047 -0.5412  0.1830
 9951TIP3    H151344   4.266   4.433  15.877 -1.6880  0.7610 -0.8594
 9951TIP3    H251345   4.151   4.343  15.837 -1.5770  0.6414 -0.9099
 9952TIP3   OH251346   0.976   0.174   4.532  0.0196  0.6398  0.2966
 9952TIP3    H151347   0.970   0.119   4.453 -1.4537 -0.8340  1.3562
 9952TIP3    H251348   0.981   0.263   4.499 -0.5927  0.0635 -1.4733
 9953TIP3   OH251349   0.602   0.204   6.311 -0.2637 -0.2931 -0.0985
 9953TIP3    H151350   0.681   0.255   6.325 -0.3659 -0.4180  1.0443
 9953TIP3    H251351   0.634   0.115   6.295 -0.0169  0.2503 -3.3316
 9954TIP3   OH251352   4.386   2.463  12.268  0.7701  0.3675  0.0660
 9954TIP3    H151353   4.348   2.383  12.232 -0.0261  0.9127 -0.3213
 9954TIP3    H251354   4.367   2.459  12.362 -0.2063  0.6149 -0.1181
 9955TIP3   OH251355   4.474   4.169   1.174  0.0326  0.1297  0.0644
 9955TIP3    H151356   4.460   4.092   1.119  1.9846  0.5036 -1.0713
 9955TIP3    H251357   4.387   4.209   1.183 -0.8668 -1.7384  0.0121
 9956TIP3   OH251358   5.163   5.448  11.644  0.2185 -0.3986 -0.0026
 9956TIP3    H151359   5.152   5.482  11.733  1.2952  2.6373 -0.9111
 9956TIP3    H251360   5.250   5.408  11.644  0.3148 -0.1932  0.2539
 9957TIP3   OH251361   6.426   0.856   1.456  0.6118  0.3050 -0.0156
 9957TIP3    H151362   6.331   0.854   1.450  0.5640 -0.3904  0.7133
 9957TIP3    H251363   6.444   0.899   1.540  0.9353  0.3180 -0.0884
 9958TIP3   OH251364   4.283   6.029   4.139  0.2688  0.0552  0.3159
 9958TIP3    H151365   4.317   6.064   4.057 -1.6941  1.1829 -0.1000
 9958TIP3    H251366   4.244   5.945   4.114 -0.5039  0.4869  0.0070
 9959TIP3   OH251367   3.441   3.172   4.880 -0.0365 -0.6222  0.7811
 9959TIP3    H151368   3.488   3.194   4.800  2.1497 -0.3532  2.0432
 9959TIP3    H251369   3.450   3.077   4.887 -1.3785 -0.8225  0.0740
 9960TIP3   OH251370   2.530   1.584  11.119 -0.1026  0.5278 -0.8105
 9960TIP3    H151371   2.518   1.493  11.092  1.0293  0.4361 -1.0301
 9960TIP3    H251372   2.518   1.582  11.214  1.4624 -0.1461 -0.5996
 9961TIP3   OH251373   3.609   6.298  14.441  0.8049 -0.1941  0.2042
 9961TIP3    H151374   3.533   6.351  14.417 -0.9417 -1.9892  1.4653
 9961TIP3    H251375   3.683   6.346  14.405 -0.9081  1.5518 -1.2610
 9962TIP3   OH251376   2.548   3.063   6.541 -0.5027  0.1184  0.2394
 9962TIP3    H151377   2.456   3.038   6.532 -0.5569 -0.4709  2.0708
 9962TIP3    H251378   2.546   3.142   6.594  0.0768 -0.2776  0.8611
 9963TIP3   OH251379   3.042   2.460  16.517  0.2158 -0.3684  0.3805
 9963TIP3    H151380   3.036   2.550  16.550 -1.7982 -0.0456 -0.6598
 9963TIP3    H251381   3.086   2.412  16.587 -1.2093  0.8683  2.2647
 9964TIP3   OH251382   4.193   3.018   3.841 -0.3422 -0.2454  0.2852
 9964TIP3    H151383   4.231   3.104   3.825 -1.6852  0.2556 -0.2884
 9964TIP3    H251384   4.106   3.021   3.801 -2.5521 -0.1290  4.4857
 9965TIP3   OH251385   6.823   6.110   1.221  0.0132 -0.2091 -0.4382
 9965TIP3    H151386   6.833   6.119   1.316 -0.0650 -0.5971 -0.3934
 9965TIP3    H251387   6.774   6.029   1.210  1.0535 -0.7919 -0.8669
 9966TIP3   OH251388   2.158   5.597  14.196 -0.1426  0.1786 -0.4039
 9966TIP3    H151389   2.223   5.625  14.260  0.0837 -2.0575  0.4368
 9966TIP3    H251390   2.161   5.665  14.128  2.6454  0.4753 -0.1188
 9967TIP3   OH251391   4.869   0.526   1.894 -0.0689  0.3937 -0.2980
 9967TIP3    H151392   4.777   0.538   1.914 -0.4035  0.1224 -1.5962
 9967TIP3    H251393   4.910   0.609   1.919 -0.4555  0.1269  1.3176
 9968TIP3   OH251394   3.606   2.824  11.343 -0.3665  0.4373 -0.5907
 9968TIP3    H151395   3.609   2.819  11.248 -0.5267  0.0008 -0.5739
 9968TIP3    H251396   3.668   2.894  11.365  1.0748 -0.6914 -0.9134
 9969TIP3   OH251397   4.244   0.641  14.798 -0.2265 -0.3967  0.0604
 9969TIP3    H151398   4.261   0.705  14.867 -0.6766  0.1500 -0.3299
 9969TIP3    H251399   4.249   0.556  14.843  0.9226 -0.1283  0.4703
 9970TIP3   OH251400   5.882   1.677   4.646  0.2215 -0.2956  0.0872
 9970TIP3    H151401   5.941   1.714   4.712 -0.2160 -0.1359  0.3921
 9970TIP3    H251402   5.936   1.612   4.600  0.7040  0.0170  0.2041
 9971TIP3   OH251403   1.770   6.580   4.597  0.1391  0.1891  0.4902
 9971TIP3    H151404   1.820   6.498   4.601  1.0435  0.7288  0.4704
 9971TIP3    H251405   1.812   6.637   4.662  0.3993  1.1066 -0.4449
 9972TIP3   OH251406   6.211   2.428   3.246 -0.7411  0.0802  0.0848
 9972TIP3    H151407   6.159   2.500   3.281  1.4902  0.9201  1.9404
 9972TIP3    H251408   6.156   2.351   3.256 -3.1059  1.3916 -1.6902
 9973TIP3   OH251409   0.238   3.780  16.231  0.4211  0.5747  0.0281
 9973TIP3    H151410   0.156   3.730  16.232  0.2098  0.8460  2.1054
 9973TIP3    H251411   0.242   3.819  16.144 -1.0334 -0.4424 -0.5285
 9974TIP3   OH251412   4.044   6.478  10.985  0.1881  0.0431  0.3313
 9974TIP3    H151413   4.102   6.529  11.042 -1.6038 -1.4829  3.8269
 9974TIP3    H251414   3.995   6.543  10.936  0.9810  1.5037  1.4001
 9975TIP3   OH251415   0.982   0.845  14.308  0.0005  0.2944 -0.3597
 9975TIP3    H151416   0.943   0.762  14.282  2.1058 -0.6825 -0.5209
 9975TIP3    H251417   0.907   0.904  14.319 -1.8119 -2.2867  2.4946
 9976TIP3   OH251418   6.575   4.033  12.092 -0.1701  0.5852  0.1199
 9976TIP3    H151419   6.538   4.118  12.070 -0.1865  0.3473 -0.8085
 9976TIP3    H251420   6.665   4.037  12.060 -0.3649  0.0265 -0.5245
 9977TIP3   OH251421   6.103   4.937   4.684  0.1894 -0.4213 -0.3331
 9977TIP3    H151422   6.061   4.937   4.770 -1.6369  1.7928 -1.1340
 9977TIP3    H251423   6.039   4.895   4.626 -0.1711  1.3023 -1.2344
 9978TIP3   OH251424   3.706   1.472   2.922 -0.0859  0.2910  0.0023
 9978TIP3    H151425   3.700   1.567   2.924 -0.8665  0.2399  0.6989
 9978TIP3    H251426   3.627   1.443   2.877 -0.3326 -0.0606  0.6480
 9979TIP3   OH251427   2.604   4.212   5.636  0.0816 -0.5771 -0.1200
 9979TIP3    H151428   2.605   4.288   5.579  0.8991 -0.0184  0.6213
 9979TIP3    H251429   2.683   4.162   5.611 -0.7041 -1.4549 -0.9394
 9980TIP3   OH251430   6.116   5.078   3.226  0.1170 -0.2325 -0.0915
 9980TIP3    H151431   6.169   5.141   3.275 -0.4120 -0.5010  0.8538
 9980TIP3    H251432   6.114   5.113   3.136  1.4675  0.0297 -0.0380
 9981TIP3   OH251433   6.144   6.548  10.348 -0.4586 -0.5459 -0.4337
 9981TIP3    H151434   6.104   6.632  10.371 -0.4906 -0.6487 -0.1080
 9981TIP3    H251435   6.237   6.567  10.340 -0.7954  0.2076 -3.5326
 9982TIP3   OH251436   4.394   1.446  13.360  0.5817 -0.1827  0.5187
 9982TIP3    H151437   4.338   1.523  13.366 -1.3451 -1.2327 -1.8798
 9982TIP3    H251438   4.357   1.385  13.424 -0.6425 -0.5938 -0.5297
 9983TIP3   OH251439   3.131   1.297   3.470 -0.2620  0.3116  0.6538
 9983TIP3    H151440   3.078   1.264   3.543  1.8468  2.1571  3.2504
 9983TIP3    H251441   3.099   1.386   3.455  0.7454  0.7280  0.8930
 9984TIP3   OH251442   2.158   1.515  16.369  0.2008  0.3303 -0.0389
 9984TIP3    H151443   2.210   1.453  16.317 -0.3121  0.2764 -0.4993
 9984TIP3    H251444   2.092   1.547  16.308 -1.6288 -1.1582  1.0794
 9985TIP3   OH251445   0.244   1.392   1.052 -0.0499  0.2709 -0.6172
 9985TIP3    H151446   0.291   1.361   0.974  0.6697  1.6353 -0.7528
 9985TIP3    H251447   0.257   1.487   1.052  0.0988  0.2924  1.2593
 9986TIP3   OH251448   2.412   0.083   0.668  0.1781 -0.3216 -0.0553
 9986TIP3    H151449   2.456   0.162   0.636 -0.4536 -0.2223 -0.7072
 9986TIP3    H251450   2.465   0.011   0.635  0.0561 -0.1952 -0.5338
 9987TIP3   OH251451   4.900   2.782   5.098  0.1515 -0.0136 -0.0304
 9987TIP3    H151452   4.819   2.802   5.052 -0.6820 -1.3311  0.7816
 9987TIP3    H251453   4.918   2.860   5.150 -0.7750  0.1887  0.0095
 9988TIP3   OH251454   3.059   4.422   6.035  0.1672 -0.0359 -0.6415
 9988TIP3    H151455   2.989   4.424   6.100  0.2411 -0.5829 -0.5425
 9988TIP3    H251456   3.058   4.333   6.000  0.7250 -0.0111 -0.7316
 9989TIP3   OH251457   1.131   1.675   5.866  0.3424 -0.3300  0.3975
 9989TIP3    H151458   1.054   1.723   5.898  1.4318  1.8064  0.0468
 9989TIP3    H251459   1.194   1.682   5.937  0.0458 -2.6811  0.9651
 9990TIP3   OH251460   5.782   4.430  10.732  0.1531 -0.6831  0.0189
 9990TIP3    H151461   5.860   4.390  10.771 -0.2100 -0.9106  0.5272
 9990TIP3    H251462   5.724   4.446  10.806 -0.7960 -1.6735 -0.4793
 9991TIP3   OH251463   5.597   6.284   2.726 -0.2101 -0.2153  0.0259
 9991TIP3    H151464   5.501   6.287   2.720 -0.1999  1.0804  0.3510
 9991TIP3    H251465   5.615   6.269   2.819 -0.0870  1.1209  0.2293
 9992TIP3   OH251466   2.562   3.478   2.944 -0.0126  0.6389 -0.0829
 9992TIP3    H151467   2.611   3.396   2.946 -0.4469  0.2503 -2.2687
 9992TIP3    H251468   2.482   3.461   2.993  1.0348  0.5997  1.6719
 9993TIP3   OH251469   0.032   0.961   1.859 -0.6536 -0.6793 -0.2143
 9993TIP3    H151470  -0.015   1.044   1.861 -1.2933 -1.0417  0.2647
 9993TIP3    H251471   0.118   0.983   1.823  0.5679  0.8763  3.1997
 9994TIP3   OH251472   1.513   6.249  14.163 -0.5761 -0.3147  0.1896
 9994TIP3    H151473   1.568   6.191  14.112  0.0213  0.8174 -0.4889
 9994TIP3    H251474   1.573   6.297  14.220 -0.9064  0.5301 -0.1533
 9995TIP3   OH251475   2.252   4.125  13.430 -0.5789  0.2910  0.0732
 9995TIP3    H151476   2.176   4.175  13.462 -2.5380 -1.3654 -1.6479
 9995TIP3    H251477   2.261   4.053  13.493 -0.0466  0.7886  0.5795
 9996TIP3   OH251478   5.363   2.814   6.224  0.1009  0.1162 -0.0098
 9996TIP3    H151479   5.388   2.874   6.154 -1.7042  1.3300  0.3142
 9996TIP3    H251480   5.299   2.754   6.184 -0.7642  0.6699  0.5016
 9997TIP3   OH251481   0.553   3.484   0.673  0.1758  0.3938  0.0047
 9997TIP3    H151482   0.509   3.400   0.662  1.8862 -0.7754  1.4511
 9997TIP3    H251483   0.502   3.529   0.742 -0.6496  0.5103 -0.6640
 9998TIP3   OH251484   1.365   2.713   3.195 -0.1881  0.3942 -0.0645
 9998TIP3    H151485   1.390   2.724   3.287 -0.4181 -2.1995  0.3655
 9998TIP3    H251486   1.298   2.780   3.180 -0.1844  0.8214  1.6449
 9999TIP3   OH251487   3.147   0.639   1.245 -0.0710 -0.0435 -0.1697
 9999TIP3    H151488   3.195   0.593   1.176 -1.4983 -0.2581 -1.0600
 9999TIP3    H251489   3.153   0.581   1.321  2.0745  0.4959  0.1339
10000TIP3   OH251490   0.217   6.050   4.468  0.1513  0.3503  0.1714
10000TIP3    H151491   0.286   5.989   4.441 -0.9325 -0.6945 -0.2868
10000TIP3    H251492   0.172   6.072   4.386  0.2870  1.4943  0.3838
10001TIP3   OH251493   5.582   4.077  13.654  0.2655  0.0119 -0.4854
10001TIP3    H151494   5.502   4.124  13.676  1.2797  1.2563  0.7488
10001TIP3    H251495   5.633   4.140  13.602  0.1786 -1.0214 -1.8904
10002TIP3   OH251496   0.200   0.382   0.894 -0.4813  0.2056 -0.0937
10002TIP3    H151497   0.244   0.459   0.858  1.1850 -0.2541  0.8464
10002TIP3    H251498   0.271   0.319   0.909 -1.1538  0.0435  3.0733
10003TIP3   OH251499   6.578   4.563   5.900  0.3964  0.2892 -0.6061
10003TIP3    H151500   6.551   4.474   5.878 -1.2008  0.6893 -0.3215
10003TIP3    H251501   6.498   4.607   5.927  1.1118  1.9095 -1.0085
10004TIP3   OH251502   2.096   2.096   4.432 -0.4733 -0.2166 -0.6791
10004TIP3    H151503   2.080   2.087   4.525 -0.1412  0.4451 -0.5491
10004TIP3    H251504   2.183   2.059   4.418 -0.7314 -0.7776 -0.8154
10005TIP3   OH251505   6.501   6.083  10.780 -0.1889  0.2682 -0.0150
10005TIP3    H151506   6.442   6.011  10.801 -0.9910  0.8093 -0.3763
10005TIP3    H251507   6.577   6.040  10.739  0.6691 -0.6341  2.3741
10006TIP3   OH251508   5.164   2.305  12.117 -0.4078 -0.1688  0.0616
10006TIP3    H151509   5.241   2.285  12.064  0.9490 -0.2056  1.9725
10006TIP3    H251510   5.170   2.245  12.192 -1.5847  0.7241  0.8992
10007TIP3   OH251511   5.367   4.568   5.960  0.5880  0.0491 -0.3553
10007TIP3    H151512   5.414   4.518   6.026  1.1215  0.3101 -0.5368
10007TIP3    H251513   5.384   4.659   5.983 -1.1160  0.2011  0.5259
10008TIP3   OH251514   0.655   4.107   2.908  0.2713 -0.0035  0.3383
10008TIP3    H151515   0.716   4.168   2.868  0.9674 -0.8988 -0.0098
10008TIP3    H251516   0.594   4.162   2.958 -0.4496  1.1480 -1.6902
10009TIP3   OH251517   0.608   0.260   3.817 -0.0352 -0.2233  0.7199
10009TIP3    H151518   0.595   0.277   3.911 -0.3730 -2.9841  1.2517
10009TIP3    H251519   0.560   0.179   3.800 -1.5090  1.1300 -2.3037
10010TIP3   OH251520   4.703   1.565  16.221  0.5146 -0.8666  0.0413
10010TIP3    H151521   4.664   1.644  16.257  1.6860 -0.7597  1.1506
10010TIP3    H251522   4.647   1.541  16.147 -2.4590 -1.5017  2.3042
10011TIP3   OH251523   4.561   0.116  15.881 -0.8544  0.0107  0.7738
10011TIP3    H151524   4.606   0.143  15.800  0.6028 -1.3628  1.0723
10011TIP3    H251525   4.475   0.158  15.876 -0.2798  1.1037 -0.8072
10012TIP3   OH251526   1.874   5.425  13.805  0.0304 -0.0189  0.1389
10012TIP3    H151527   1.948   5.469  13.763  0.3693  0.1408  0.8928
10012TIP3    H251528   1.903   5.411  13.895 -0.8672  0.0601  0.4419
10013TIP3   OH251529   2.126   0.772  16.064  0.3536  0.3252 -0.1084
10013TIP3    H151530   2.156   0.788  16.154 -0.6353  0.2391  0.2478
10013TIP3    H251531   2.035   0.801  16.063  1.0824  2.8240 -1.8050
10014TIP3   OH251532   3.651   2.957   2.925  0.6318 -0.3238  0.0587
10014TIP3    H151533   3.653   3.052   2.937  0.0175 -0.1061 -1.4125
10014TIP3    H251534   3.577   2.941   2.866 -0.1710 -1.8664  1.3993
10015TIP3   OH251535   1.413   0.465   4.158 -0.3128 -0.1035 -0.0198
10015TIP3    H151536   1.418   0.374   4.128  2.9885 -0.2872  0.6720
10015TIP3    H251537   1.352   0.462   4.233  1.0092 -2.1533  1.0673
10016TIP3   OH251538   1.671   6.570  12.593  0.2550 -0.3183  0.1620
10016TIP3    H151539   1.631   6.632  12.531  0.9056 -0.7531 -0.7253
10016TIP3    H251540   1.691   6.622  12.670  2.2178  0.9967 -1.1313
10017TIP3   OH251541   4.673   4.928   4.289 -0.2945  0.6299 -0.6803
10017TIP3    H151542   4.765   4.928   4.318 -0.1495 -0.0541 -1.1065
10017TIP3    H251543   4.678   4.954   4.197 -0.4253 -0.3384 -0.9723
10018TIP3   OH251544   0.509   1.054  14.111  0.2378 -0.0726 -0.0314
10018TIP3    H151545   0.414   1.048  14.122 -0.3636  3.1380 -2.1128
10018TIP3    H251546   0.526   1.010  14.028  0.3201  0.5413 -0.3479
10019TIP3   OH251547   6.184   1.741  11.721 -0.1086  0.3749  0.2945
10019TIP3    H151548   6.118   1.802  11.752 -0.4735 -0.6584  1.6597
10019TIP3    H251549   6.134   1.666  11.687  0.3364  0.5734 -0.8475
10020TIP3   OH251550   5.259   4.706  10.910 -0.1002  0.1927 -0.2066
10020TIP3    H151551   5.260   4.801  10.924  1.5007  0.0336  0.9570
10020TIP3    H251552   5.167   4.686  10.889 -0.3536  2.0583 -1.0690
10021TIP3   OH251553   2.507   2.217  14.392  0.1532  0.2685 -0.0266
10021TIP3    H151554   2.589   2.168  14.386 -0.9034 -1.4352 -1.7003
10021TIP3    H251555   2.530   2.296  14.441  2.5934 -0.5170  0.2485
10022TIP3   OH251556   3.556   0.249  11.442 -0.3111 -0.2344 -0.3329
10022TIP3    H151557   3.512   0.175  11.400  0.1169  0.1635 -1.4997
10022TIP3    H251558   3.612   0.286  11.374  0.0886  0.6799  0.4732
10023TIP3   OH251559   6.711   2.935   0.755 -0.6799  0.6810 -0.9729
10023TIP3    H151560   6.729   2.878   0.830 -0.3356  0.8286 -0.9467
10023TIP3    H251561   6.705   3.023   0.792  1.7729  1.1032 -1.4100
10024TIP3   OH251562   0.854   2.038   4.560  0.6735  0.2629 -0.1341
10024TIP3    H151563   0.787   2.082   4.613  0.7014 -0.5645  0.6106
10024TIP3    H251564   0.844   2.076   4.473 -0.7347  0.1942 -0.0320
10025TIP3   OH251565   5.071   5.556  12.181  0.9049  0.0442 -0.7988
10025TIP3    H151566   5.076   5.569  12.276  2.7317  0.0373 -0.8706
10025TIP3    H251567   4.978   5.540  12.165  0.4744  0.5613  0.9135
10026TIP3   OH251568   6.702   4.089  16.633  0.1408  0.2210 -0.5958
10026TIP3    H151569   6.632   4.150  16.609 -1.1832 -1.1476 -0.3471
10026TIP3    H251570   6.782   4.129  16.598 -0.8101  1.6175 -1.2529
10027TIP3   OH251571   3.190   2.203  16.101  0.6967  0.1885  0.8574
10027TIP3    H151572   3.236   2.147  16.039  0.4033 -0.3394  1.1058
10027TIP3    H251573   3.117   2.240  16.051  0.2891 -0.4652  0.9572
10028TIP3   OH251574   4.296   1.853   1.173  0.0218 -0.1628  0.1726
10028TIP3    H151575   4.214   1.889   1.139  0.6309 -0.4374 -1.6892
10028TIP3    H251576   4.283   1.758   1.171  0.9340 -0.2854 -1.7249
10029TIP3   OH251577   1.929   4.298  14.132  0.4901  0.1504 -0.0867
10029TIP3    H151578   1.990   4.300  14.057  0.5652  1.3737 -0.0089
10029TIP3    H251579   1.888   4.212  14.126  3.1810 -1.3149  0.6326
10030TIP3   OH251580   4.238   3.101   5.758 -0.1153 -0.3975  0.3732
10030TIP3    H151581   4.324   3.121   5.797 -0.5886  0.0357  1.2281
10030TIP3    H251582   4.176   3.114   5.830 -1.0769  0.8133 -0.6161
10031TIP3   OH251583   3.428   1.248   0.889  0.2340  0.1630 -0.3764
10031TIP3    H151584   3.343   1.262   0.931  0.0801 -1.2349 -0.1951
10031TIP3    H251585   3.464   1.336   0.879 -0.3091  0.6414  1.4815
10032TIP3   OH251586   4.328   1.271   5.575 -0.1367 -0.2097 -0.1422
10032TIP3    H151587   4.365   1.356   5.601  1.9098 -1.5964  1.8590
10032TIP3    H251588   4.364   1.255   5.488  1.4221 -0.0337  0.4327
10033TIP3   OH251589   5.012   1.660  13.642  0.1227  0.3100 -0.3335
10033TIP3    H151590   5.067   1.737  13.657 -0.1501  0.6332 -0.9300
10033TIP3    H251591   5.063   1.587  13.676  0.6208  0.6889 -0.2490
10034TIP3   OH251592   5.679   0.646  16.027 -0.2833 -0.0402  0.1000
10034TIP3    H151593   5.751   0.681  16.080 -0.6849  0.2670  0.4526
10034TIP3    H251594   5.717   0.633  15.940 -0.1655  1.5218 -0.1137
10035TIP3   OH251595   2.282   1.085  17.136  0.2153  0.1834 -0.9752
10035TIP3    H151596   2.339   1.047  17.069  5.1654  2.2894  1.4708
10035TIP3    H251597   2.255   1.170  17.099  1.1850  0.4336 -1.1365
10036TIP3   OH251598   0.000   4.090  16.902  0.0010  0.1302  0.1340
10036TIP3    H151599   0.077   4.145  16.918  0.4275 -0.7480  1.2334
10036TIP3    H251600  -0.035   4.121  16.819 -0.2430  2.6044  1.0775
10037TIP3   OH251601   4.392   2.020  15.761  0.0429 -0.8442 -0.0230
10037TIP3    H151602   4.351   2.045  15.678 -1.5574 -1.8957  0.3972
10037TIP3    H251603   4.326   2.043  15.827  1.3611  0.1373  0.9929
10038TIP3   OH251604   1.619   2.271   5.290 -0.3557 -0.1038  0.2028
10038TIP3    H151605   1.529   2.243   5.304 -0.8728  1.3910  0.0189
10038TIP3    H251606   1.669   2.224   5.357 -1.1148 -1.5657 -0.1984
10039TIP3   OH251607   6.686   2.793  16.525  0.2026  0.4911  0.0756
10039TIP3    H151608   6.779   2.783  16.543  0.6213  1.4433 -1.3682
10039TIP3    H251609   6.651   2.704  16.525  1.5603 -0.0907 -1.5650
10040TIP3   OH251610   4.433   4.416  15.807  0.2371 -0.7842 -0.4150
10040TIP3    H151611   4.524   4.432  15.829 -0.2807 -0.1234  1.4752
10040TIP3    H251612   4.436   4.353  15.735  2.1630 -1.0529 -0.1492
10041TIP3   OH251613   4.122   6.209  15.744  0.2449  0.1653  0.1728
10041TIP3    H151614   4.144   6.296  15.711 -1.2033  0.2767 -0.6043
10041TIP3    H251615   4.160   6.148  15.681 -1.1378  0.3354 -0.8562
10042TIP3   OH251616   0.239   1.179  13.635 -0.5297 -0.5114  0.2152
10042TIP3    H151617   0.230   1.086  13.611 -3.0404 -0.2272 -0.2615
10042TIP3    H251618   0.203   1.226  13.560  1.1113  0.9068  0.2668
10043TIP3   OH251619   2.958   0.485  15.387  0.0418 -0.3601  0.1267
10043TIP3    H151620   3.036   0.469  15.335 -1.1511 -0.0164 -1.8893
10043TIP3    H251621   2.965   0.577  15.415  0.2286 -0.2555 -0.2721
10044TIP3   OH251622   2.110   6.436  14.174  0.0111 -0.5824 -0.1385
10044TIP3    H151623   2.101   6.521  14.217  0.3832 -0.6559  0.0990
10044TIP3    H251624   2.202   6.433  14.147  0.3320 -1.3987  0.9420
10045TIP3   OH251625   4.450   2.222   1.841 -0.1406 -0.2223  0.3384
10045TIP3    H151626   4.516   2.183   1.783  0.3818 -0.6731  1.2136
10045TIP3    H251627   4.444   2.313   1.814  0.7816 -0.2010  0.1904
10046TIP3   OH251628   1.422   1.319   4.450  0.4594  0.3991  0.3012
10046TIP3    H151629   1.460   1.407   4.441  1.3573 -0.0030  0.0923
10046TIP3    H251630   1.417   1.286   4.361  0.0422  0.2627  0.3730
10047TIP3   OH251631   0.114   2.924  12.982  0.3005  0.1687  0.0305
10047TIP3    H151632   0.070   2.904  13.065  0.9079 -1.8781 -0.0834
10047TIP3    H251633   0.143   3.014  12.991 -0.4424  0.2734  1.6786
10048TIP3   OH251634   3.129   2.804  14.475 -0.1186  0.2529 -0.0651
10048TIP3    H151635   3.190   2.854  14.421 -1.7938 -0.3690 -2.6937
10048TIP3    H251636   3.045   2.848  14.464 -0.6691 -0.3276  1.5089
10049TIP3   OH251637   4.120   4.382  10.365  0.0968  0.5783  0.5393
10049TIP3    H151638   4.033   4.399  10.330 -0.7746  0.1196  2.3795
10049TIP3    H251639   4.160   4.323  10.301 -0.2240  2.1818 -1.2421
10050TIP3   OH251640   6.559   6.531   3.056  0.3029 -0.1944  0.5367
10050TIP3    H151641   6.519   6.607   3.013 -0.2803 -0.9227 -0.2314
10050TIP3    H251642   6.546   6.547   3.150 -2.5416 -0.7768  0.3247
10051TIP3   OH251643   2.746   2.364  16.894  0.0366  0.4966 -0.0270
10051TIP3    H151644   2.751   2.268  16.888 -0.1661  0.5230 -0.6751
10051TIP3    H251645   2.721   2.392  16.806  0.7061  1.1956 -0.0014
10052TIP3   OH251646   4.953   3.563   1.690  0.0913 -0.1585 -0.4072
10052TIP3    H151647   4.882   3.521   1.738 -0.6703  2.1209  0.5655
10052TIP3    H251648   4.910   3.630   1.637  1.4311  0.6647 -0.4932
10053TIP3   OH251649   2.021   4.952  12.215  0.2185 -0.2514  0.2974
10053TIP3    H151650   2.069   4.993  12.143 -0.2321  0.9407  0.6523
10053TIP3    H251651   1.961   5.019  12.245 -0.2648 -1.0517  1.1792
10054TIP3   OH251652   6.537   3.873   3.001 -0.0833 -0.1433  0.3554
10054TIP3    H151653   6.459   3.827   2.968 -1.1451  2.1207 -0.4646
10054TIP3    H251654   6.590   3.888   2.923 -0.2024  0.8324  0.4569
10055TIP3   OH251655   1.896   0.897  10.582  0.2957  0.2239  0.2676
10055TIP3    H151656   1.803   0.916  10.573  0.8162  2.4251 -1.2469
10055TIP3    H251657   1.905   0.806  10.554 -1.5126 -0.4065  1.5815
10056TIP3   OH251658   6.561   4.537  11.222 -0.5643  0.1855  0.2220
10056TIP3    H151659   6.580   4.591  11.145  1.5118 -0.5904  0.1292
10056TIP3    H251660   6.517   4.597  11.283 -2.7085  0.7009 -1.6970
10057TIP3   OH251661   0.336   6.582  16.192  0.0589 -0.4767 -0.1829
10057TIP3    H151662   0.414   6.616  16.147  0.3801 -0.5324  0.3212
10057TIP3    H251663   0.344   6.616  16.281 -0.8068  0.0068 -0.2819
10058TIP3   OH251664   3.642   2.516   5.460 -0.1197 -0.0607 -0.4089
10058TIP3    H151665   3.626   2.443   5.401  0.6488  0.6878 -1.5720
10058TIP3    H251666   3.610   2.593   5.413 -2.6251  0.2148  1.5210
10059TIP3   OH251667   1.215   2.345   2.618  0.6362 -0.0564  0.4226
10059TIP3    H151668   1.191   2.317   2.706 -0.2935 -1.3673 -0.2007
10059TIP3    H251669   1.147   2.407   2.593 -0.1375 -1.0433 -0.0069
10060TIP3   OH251670   4.696   0.531  12.944 -0.2023  0.2643 -0.2576
10060TIP3    H151671   4.703   0.626  12.931 -1.8795  0.3346 -0.8520
10060TIP3    H251672   4.695   0.519  13.038  0.2563  0.8173 -0.1792
10061TIP3   OH251673   2.399   2.657   4.160  0.5785  0.0922 -0.4702
10061TIP3    H151674   2.432   2.714   4.229  0.6064  1.4815 -1.5682
10061TIP3    H251675   2.444   2.574   4.173  1.3075  0.6364  0.5896
10062TIP3   OH251676   3.029   1.650   1.451 -0.6689  0.2830  0.8255
10062TIP3    H151677   2.974   1.623   1.377 -0.7364 -0.8004  1.2488
10062TIP3    H251678   3.089   1.714   1.414 -0.2794 -0.7092 -0.3404
10063TIP3   OH251679   4.579   1.919  13.600 -0.2429  0.5957 -0.0459
10063TIP3    H151680   4.584   1.838  13.550 -0.6256  1.3801 -1.3926
10063TIP3    H251681   4.669   1.938  13.626  0.0160  0.3573 -0.7521
10064TIP3   OH251682   5.699   3.049   0.984  0.4241 -0.2416  0.0847
10064TIP3    H151683   5.686   2.967   1.032 -0.5640  0.2570  0.6973
10064TIP3    H251684   5.693   3.024   0.891 -0.5575 -0.7522  0.2780
10065TIP3   OH251685   1.487   5.887   1.974 -0.0442 -0.4778  1.1049
10065TIP3    H151686   1.452   5.971   1.943 -2.6841 -2.1888 -1.1547
10065TIP3    H251687   1.416   5.849   2.026  1.3369 -1.1064  2.6148
10066TIP3   OH251688   5.588   6.682  13.607  0.1384  0.1445  0.5809
10066TIP3    H151689   5.602   6.673  13.513  0.4893 -0.6639  0.7028
10066TIP3    H251690   5.660   6.633  13.647  0.1192  0.6662  1.2777
10067TIP3   OH251691   5.697   4.043  12.966  0.7014 -0.0965  0.0256
10067TIP3    H151692   5.631   4.113  12.970  2.3809  1.8114 -2.4726
10067TIP3    H251693   5.737   4.043  13.052 -0.8897  0.3979  0.8057
10068TIP3   OH251694   5.549   2.864  11.751 -0.5135  0.1853  0.2152
10068TIP3    H151695   5.640   2.840  11.734 -1.0642 -1.8499 -0.0391
10068TIP3    H251696   5.534   2.940  11.694  0.3926 -0.8498 -1.4834
10069TIP3   OH251697   3.815   0.936   2.255  0.0810  0.0610 -0.3467
10069TIP3    H151698   3.906   0.960   2.237  0.7888 -0.3706  2.2258
10069TIP3    H251699   3.764   1.007   2.216  1.3480 -0.4295 -3.1713
10070TIP3   OH251700   5.288   3.638  13.277  0.5530 -0.1130  0.0481
10070TIP3    H151701   5.358   3.678  13.328  1.1080  1.8454 -2.0636
10070TIP3    H251702   5.287   3.688  13.195 -1.1837 -2.1718 -1.2985
10071TIP3   OH251703   2.694   3.361  16.329  0.4219 -0.1850  1.1049
10071TIP3    H151704   2.768   3.396  16.279  0.8422 -3.0803 -0.4987
10071TIP3    H251705   2.727   3.280  16.369 -1.8323 -1.6160  0.2937
10072TIP3   OH251706   0.202   6.267  13.203 -0.2768  0.4765  0.1920
10072TIP3    H151707   0.178   6.336  13.142  1.8772  1.0794 -0.0678
10072TIP3    H251708   0.269   6.307  13.259  1.9866 -1.7319 -0.7843
10073TIP3   OH251709   2.221   0.070   6.347 -0.0515  0.0589 -0.3024
10073TIP3    H151710   2.184  -0.007   6.305  0.4258 -0.1709 -0.3158
10073TIP3    H251711   2.147   0.129   6.359 -0.8142 -1.1473  1.3966
10074TIP3   OH251712   3.844   2.520   6.107  0.0636  0.0800 -0.1356
10074TIP3    H151713   3.812   2.455   6.170 -1.6776  0.5782 -0.4541
10074TIP3    H251714   3.770   2.579   6.094  1.5149  1.9950 -0.0788
10075TIP3   OH251715   3.854   3.096  15.446 -0.2807 -0.1957  0.1629
10075TIP3    H151716   3.909   3.174  15.452  1.7664 -1.5852  0.2542
10075TIP3    H251717   3.880   3.055  15.364 -0.0248 -1.7204  0.9847
10076TIP3   OH251718   1.511   5.144  11.084 -0.6135  0.1595  0.1144
10076TIP3    H151719   1.512   5.130  10.989  2.6834  1.0414 -0.1187
10076TIP3    H251720   1.514   5.056  11.121 -1.9265 -0.1961 -0.5340
10077TIP3   OH251721   6.061   4.570   4.344  0.1343 -0.6079 -0.1359
10077TIP3    H151722   5.985   4.522   4.375  0.2153 -0.5977  0.0760
10077TIP3    H251723   6.072   4.541   4.253 -0.2216 -0.4855 -0.2186
10078TIP3   OH251724   3.931   1.092   5.158  0.2702 -0.1721  0.4696
10078TIP3    H151725   3.905   1.145   5.234 -1.1858 -0.1290 -0.0303
10078TIP3    H251726   4.024   1.111   5.147 -0.0059  1.6499  0.8222
10079TIP3   OH251727   2.707   5.141  13.634 -0.4590 -0.5837 -0.1012
10079TIP3    H151728   2.763   5.066  13.616 -0.1403 -0.2210 -0.6555
10079TIP3    H251729   2.618   5.106  13.628 -0.3097 -0.9720 -0.0924
10080TIP3   OH251730   1.500   2.435   3.283 -0.3370 -0.2997 -0.2443
10080TIP3    H151731   1.428   2.464   3.340 -0.1794  1.5827 -0.9456
10080TIP3    H251732   1.497   2.494   3.208  1.5892 -0.5645 -0.5766
10081TIP3   OH251733   0.308   5.850  13.663  0.1818 -0.7558 -0.5462
10081TIP3    H151734   0.328   5.943  13.650  0.3674 -0.9002 -1.3311
10081TIP3    H251735   0.266   5.822  13.581  1.8098 -1.8059 -1.0769
10082TIP3   OH251736   1.486   4.511  16.837 -0.4145  0.1129  0.1136
10082TIP3    H151737   1.396   4.525  16.810 -0.3625 -1.6263 -1.1606
10082TIP3    H251738   1.483   4.430  16.889  0.7418 -1.7595 -2.4975
10083TIP3   OH251739   1.559   1.730   5.373 -0.2394 -0.5839 -0.3854
10083TIP3    H151740   1.577   1.765   5.460  0.8127  0.3644 -0.9550
10083TIP3    H251741   1.644   1.731   5.329 -0.8830 -0.3302 -1.6643
10084TIP3   OH251742   2.573   0.027  15.421 -0.6634  0.5525  0.3902
10084TIP3    H151743   2.572   0.105  15.366  0.5889 -0.5330 -1.2812
10084TIP3    H251744   2.512  -0.033  15.379  1.1934 -0.7420 -0.6180
10085TIP3   OH251745   0.025   5.334   0.611 -0.2318 -0.0521 -0.0882
10085TIP3    H151746   0.022   5.295   0.699 -0.0945  1.5197  0.6435
10085TIP3    H251747   0.090   5.404   0.618  0.8284 -0.7917 -1.8500
10086TIP3   OH251748   3.445   1.019   0.519 -0.0620 -0.3443  0.3318
10086TIP3    H151749   3.416   0.979   0.601 -1.5243 -2.2291 -1.0100
10086TIP3    H251750   3.371   1.073   0.492  0.8024  1.0702  0.7004
10087TIP3   OH251751   3.646   3.802  10.771  0.1256 -0.2162  0.0226
10087TIP3    H151752   3.599   3.885  10.781 -0.9714 -0.8320  0.2652
10087TIP3    H251753   3.576   3.736  10.765  0.9685 -1.1524  0.1539
10088TIP3   OH251754   5.059   1.337  14.662  0.1495  0.8856  0.0613
10088TIP3    H151755   5.099   1.252  14.681 -0.7430 -0.0632 -1.9738
10088TIP3    H251756   5.021   1.366  14.745  2.0420  0.2083  1.2273
10089TIP3   OH251757   6.503   2.172   2.992  0.3383  0.1555 -0.1401
10089TIP3    H151758   6.515   2.159   2.897 -1.1773 -0.8074 -0.2286
10089TIP3    H251759   6.464   2.090   3.022  0.8133  0.4572  1.3380
10090TIP3   OH251760   5.031   6.231  15.859  0.7039 -0.4485  0.3958
10090TIP3    H151761   5.076   6.156  15.899 -1.3653 -0.6229  2.6324
10090TIP3    H251762   5.022   6.295  15.929  0.8884  1.2063 -1.0213
10091TIP3   OH251763   3.516   5.572  12.652  0.1062 -0.2235 -0.2662
10091TIP3    H151764   3.463   5.554  12.730  0.1375  0.5287 -0.0665
10091TIP3    H251765   3.562   5.490  12.635  0.5657 -0.2214  0.8722
10092TIP3   OH251766   6.667   3.945  13.426 -0.0500  0.2305 -0.9419
10092TIP3    H151767   6.588   3.915  13.381  0.6056 -2.2472 -0.5604
10092TIP3    H251768   6.705   3.866  13.464  2.8007  1.2658 -1.3834
10093TIP3   OH251769   2.465   6.723  14.897  0.2987 -0.6966  1.2985
10093TIP3    H151770   2.456   6.798  14.838  0.8001 -0.2976  1.7253
10093TIP3    H251771   2.420   6.652  14.851  0.1792 -0.2467  0.6986
10094TIP3   OH251772   5.463   1.317   5.890 -0.4385  0.1793  0.4907
10094TIP3    H151773   5.441   1.257   5.961  0.5815 -2.7431 -1.4573
10094TIP3    H251774   5.380   1.359   5.867 -1.2477 -0.6179  1.8462
10095TIP3   OH251775   1.958   4.868  12.615 -0.3491  0.3181  0.0751
10095TIP3    H151776   1.948   4.814  12.536 -1.1773  1.8121 -0.8918
10095TIP3    H251777   1.874   4.862  12.659  0.0304 -0.3054  0.7349
10096TIP3   OH251778   2.460   0.608   3.273 -0.5725  0.6590 -0.3400
10096TIP3    H151779   2.525   0.671   3.303 -0.2785  0.0497  0.3204
10096TIP3    H251780   2.502   0.523   3.284 -1.5865  0.2353  0.3607
10097TIP3   OH251781   2.516   4.555  11.529  0.1445 -0.2849 -0.0912
10097TIP3    H151782   2.448   4.612  11.493  2.6601  1.6332 -2.1438
10097TIP3    H251783   2.545   4.502  11.455  0.1449 -1.9422  1.0353
10098TIP3   OH251784   3.337   1.949  11.424 -0.2194  0.2658  0.2263
10098TIP3    H151785   3.427   1.975  11.401  0.1726 -1.3697 -0.1863
10098TIP3    H251786   3.282   2.018  11.386  0.8450  1.3150  0.5075
10099TIP3   OH251787   1.877   3.076   1.260  0.0395  0.3442  0.2543
10099TIP3    H151788   1.787   3.047   1.248  0.0900 -0.2239  1.1082
10099TIP3    H251789   1.929   3.016   1.206 -0.1308  1.0611 -0.7280
10100TIP3   OH251790   4.252   1.287   5.944  0.5208  0.4508  0.5838
10100TIP3    H151791   4.212   1.345   5.879 -0.9116 -1.6837 -0.5836
10100TIP3    H251792   4.197   1.297   6.022 -0.2230  0.1221  0.1217
10101TIP3   OH251793   2.102   5.981  10.331 -0.5035  0.0220 -0.3401
10101TIP3    H151794   2.053   5.962  10.251  1.7216 -2.1854 -1.3321
10101TIP3    H251795   2.095   6.076  10.341 -0.6130  0.4517 -3.3724
10102TIP3   OH251796   0.260   2.279   3.259  0.7805 -0.3102 -0.4450
10102TIP3    H151797   0.229   2.366   3.283  0.5474 -0.6975  0.7560
10102TIP3    H251798   0.327   2.294   3.192  1.9540  0.9316  0.9369
10103TIP3   OH251799   1.958   0.052   3.363 -0.0095  0.2443 -0.3622
10103TIP3    H151800   1.937   0.103   3.441 -0.5970 -0.7016  0.1001
10103TIP3    H251801   1.970   0.119   3.294  1.2398  1.1401  0.6594
10104TIP3   OH251802   3.539   1.240   5.601  0.5729  0.0139  0.2900
10104TIP3    H151803   3.543   1.261   5.694  1.3341 -0.3704  0.3425
10104TIP3    H251804   3.586   1.158   5.592  0.7234  0.1776 -0.4784
10105TIP3   OH251805   5.559   6.332  13.764  0.3881 -0.6718  0.1698
10105TIP3    H151806   5.500   6.400  13.797 -2.4998 -2.5796 -0.6685
10105TIP3    H251807   5.577   6.277  13.841 -1.4948 -1.7652 -0.1055
10106TIP3   OH251808   3.868   3.577   1.679 -0.0895 -0.1561  0.1369
10106TIP3    H151809   3.878   3.631   1.601  0.0312  0.1644  0.3719
10106TIP3    H251810   3.928   3.615   1.743 -0.1359 -0.4582  0.3645
10107TIP3   OH251811   4.129   2.238   5.026 -0.7786  0.0648 -0.0227
10107TIP3    H151812   4.181   2.160   5.046 -1.8811 -0.4821  0.8623
10107TIP3    H251813   4.189   2.297   4.981  0.3629 -0.8736  0.2336
10108TIP3   OH251814   6.170   2.935   5.054 -0.2074  0.1306 -0.1840
10108TIP3    H151815   6.127   2.910   4.973  0.2379 -1.1089 -0.0613
10108TIP3    H251816   6.113   2.901   5.123 -0.4592  0.9647  0.0366
10109TIP3   OH251817   0.284   6.111   3.544  0.0495  0.1524 -0.2262
10109TIP3    H151818   0.244   6.024   3.544 -1.7517  0.9177  0.9780
10109TIP3    H251819   0.232   6.161   3.480  0.7870  0.4684 -0.5900
10110TIP3   OH251820   3.359   4.149  11.322 -0.6662 -0.0589 -0.2461
10110TIP3    H151821   3.408   4.117  11.246 -1.6549  0.6355 -1.2134
10110TIP3    H251822   3.289   4.084  11.334 -0.3790 -0.2857  0.2199
10111TIP3   OH251823   1.138   6.305   1.342  0.5171  0.6720 -0.4481
10111TIP3    H151824   1.129   6.398   1.362 -1.1375  0.1645  1.5010
10111TIP3    H251825   1.057   6.265   1.374  2.1924 -1.7816  1.1414
10112TIP3   OH251826   2.388   6.474   4.700  0.3661 -0.5864  0.2278
10112TIP3    H151827   2.295   6.465   4.719  0.3302 -1.0111 -0.1281
10112TIP3    H251828   2.394   6.553   4.647  0.1916 -0.6236  0.1516
10113TIP3   OH251829   5.437   6.647  16.385 -0.3480 -0.3756  0.2030
10113TIP3    H151830   5.522   6.604  16.372  1.0782  2.3346 -0.2108
10113TIP3    H251831   5.432   6.662  16.480  0.1455  0.3417  0.1261
10114TIP3   OH251832   1.099   1.009  14.521 -0.3030 -0.2907 -0.0954
10114TIP3    H151833   1.061   0.948  14.458 -0.9771 -1.3649  1.2700
10114TIP3    H251834   1.192   0.989  14.521 -0.1670  0.2660 -1.2866
10115TIP3   OH251835   3.342   2.229  15.713  0.0593 -0.1588 -0.8995
10115TIP3    H151836   3.246   2.221  15.713 -0.0333  0.7852 -0.1392
10115TIP3    H251837   3.369   2.194  15.798  0.4523 -0.9540 -1.3430
10116TIP3   OH251838   4.659   5.375   3.328  0.4002 -0.1021  0.0212
10116TIP3    H151839   4.641   5.433   3.401  1.2224 -1.0705  1.0447
10116TIP3    H251840   4.703   5.430   3.263 -0.8506  0.8961 -0.0144
10117TIP3   OH251841   3.845   3.086  13.417 -0.5278 -0.0242 -0.6360
10117TIP3    H151842   3.923   3.078  13.472 -0.4296 -0.8711 -0.8904
10117TIP3    H251843   3.863   3.163  13.362  0.9321 -1.2087 -1.9167
10118TIP3   OH251844   5.600   2.581  14.891  0.5298 -0.5484 -0.3528
10118TIP3    H151845   5.602   2.519  14.965  0.0988  0.0049  0.1303
10118TIP3    H251846   5.674   2.639  14.906 -0.0210  0.0510  0.0783
10119TIP3   OH251847   6.563   2.851   4.609 -0.0533 -0.1422 -0.4176
10119TIP3    H151848   6.582   2.856   4.515 -0.7941 -0.6850 -0.6022
10119TIP3    H251849   6.473   2.882   4.617  0.0248 -0.0515  0.1262
10120TIP3   OH251850   6.135   5.686  13.056  0.0185  0.0932  0.4880
10120TIP3    H151851   6.156   5.683  12.963 -1.0650  1.9499  0.1310
10120TIP3    H251852   6.079   5.610  13.071  1.1303 -0.8674 -0.0899
10121TIP3   OH251853   3.275   0.546   0.270 -0.0912 -0.3930 -0.0156
10121TIP3    H151854   3.247   0.454   0.264  0.5470 -0.5141 -1.3450
10121TIP3    H251855   3.255   0.570   0.361  1.1717 -2.3161  0.8376
10122TIP3   OH251856   3.147   2.878   1.245 -0.0298  0.2665 -0.1840
10122TIP3    H151857   3.227   2.868   1.193 -0.1571  0.4552 -0.4182
10122TIP3    H251858   3.160   2.958   1.295 -0.0812  0.3104 -0.2405
10123TIP3   OH251859   3.940   0.525   1.985 -0.4273 -0.0608 -0.2996
10123TIP3    H151860   4.014   0.555   1.933  0.1782 -2.1641 -0.7541
10123TIP3    H251861   3.953   0.564   2.071  0.7170  0.3327 -0.6359
10124TIP3   OH251862   1.155   3.358  15.500 -0.6138  1.8685  0.0399
10124TIP3    H151863   1.062   3.378  15.512 -1.5974 -0.2526 -2.8266
10124TIP3    H251864   1.186   3.426  15.440 -0.5024  2.1579  0.4233
10125TIP3   OH251865   4.713   5.383  16.607  0.1050 -0.1686  0.0954
10125TIP3    H151866   4.721   5.338  16.691  1.1881 -1.5231 -0.6951
10125TIP3    H251867   4.803   5.398  16.578 -0.2125 -1.0105 -1.4588
10126TIP3   OH251868   5.592   5.761   5.250 -0.0546 -0.3428  0.4402
10126TIP3    H151869   5.497   5.769   5.254 -0.0133  1.1954 -0.7936
10126TIP3    H251870   5.624   5.810   5.326 -0.2219  0.4371  0.0198
10127TIP3   OH251871   2.148   1.430   3.734  0.4751  0.1574  0.0799
10127TIP3    H151872   2.063   1.385   3.739  1.7931 -2.9602 -2.3783
10127TIP3    H251873   2.135   1.497   3.666  0.1317 -0.7078 -0.7211
10128TIP3   OH251874   6.357   0.451  14.895 -0.0501  0.4091  0.2534
10128TIP3    H151875   6.331   0.526  14.949 -0.8693  1.8289 -1.9724
10128TIP3    H251876   6.304   0.459  14.815  0.0662 -2.3911 -0.2175
10129TIP3   OH251877   0.187   4.770  17.069  0.2475  0.4752  0.2927
10129TIP3    H151878   0.150   4.858  17.077  0.6221  0.5823  0.9047
10129TIP3    H251879   0.270   4.774  17.117 -0.0297 -0.3797  0.8603
10130TIP3   OH251880   0.163   3.952  14.215 -0.0091 -0.0175  0.4499
10130TIP3    H151881   0.170   4.048  14.219 -0.3739  0.0320 -0.0306
10130TIP3    H251882   0.254   3.922  14.209  0.0558  0.3714 -0.7842
10131TIP3   OH251883   0.888   5.532   5.192  0.6610  0.3000 -0.2153
10131TIP3    H151884   0.821   5.507   5.256 -0.4917 -0.4187 -1.6429
10131TIP3    H251885   0.967   5.547   5.244 -0.8424  2.2578  1.6847
10132TIP3   OH251886   5.365   6.223  12.769  0.0958 -0.2832 -0.0245
10132TIP3    H151887   5.391   6.307  12.807  1.1923 -0.4647 -0.3429
10132TIP3    H251888   5.326   6.175  12.842  0.3595  0.1302  0.3927
10133TIP3   OH251889   6.468   0.633  11.548 -1.0133  0.0327 -0.3270
10133TIP3    H151890   6.415   0.554  11.543  1.8511 -2.0701  0.2065
10133TIP3    H251891   6.481   0.659  11.457 -1.2402 -0.6665 -0.5632
10134TIP3   OH251892   3.355   0.359   2.406  0.1702 -0.4623 -0.2493
10134TIP3    H151893   3.314   0.282   2.446  2.8907 -0.8036  2.2428
10134TIP3    H251894   3.441   0.327   2.377  1.2855  1.5571  0.6551
10135TIP3   OH251895   5.885   1.065   5.618 -0.2411 -0.6109  0.3939
10135TIP3    H151896   5.804   1.108   5.646  0.1794  0.1245  0.5023
10135TIP3    H251897   5.883   1.070   5.523 -1.3446 -2.5154  0.2474
10136TIP3   OH251898   4.879   1.984   5.921 -0.0967 -0.3752  0.6470
10136TIP3    H151899   4.956   1.936   5.951 -0.6233 -2.2214 -0.7312
10136TIP3    H251900   4.813   1.969   5.988 -0.2469 -1.6124  0.2430
10137TIP3   OH251901   1.023   0.147  15.724  0.0042  0.5088 -0.6097
10137TIP3    H151902   0.950   0.154  15.663 -0.4975 -0.7149 -0.1849
10137TIP3    H251903   1.003   0.070  15.777  1.5633  0.1922 -0.4299
10138TIP3   OH251904   0.938   3.401   5.104  0.0699 -0.0854 -0.5084
10138TIP3    H151905   0.859   3.416   5.052  0.6088  0.7417 -1.1123
10138TIP3    H251906   0.971   3.317   5.073  0.2739  0.3049 -1.3729
10139TIP3   OH251907   2.290   5.214   1.515 -0.0830 -0.0315 -0.0094
10139TIP3    H151908   2.283   5.248   1.426  1.1793 -0.3782 -0.2551
10139TIP3    H251909   2.337   5.283   1.563  0.3055 -0.3677  0.0939
10140TIP3   OH251910   3.430   3.501   4.815  0.1345  0.6118 -0.2725
10140TIP3    H151911   3.363   3.452   4.862  0.6627  0.6064  0.4909
10140TIP3    H251912   3.420   3.591   4.845 -0.2389  0.8092 -0.9810
10141TIP3   OH251913   6.194   2.495   1.672 -0.1434 -0.1169  0.2568
10141TIP3    H151914   6.264   2.540   1.720  1.1755 -1.0614 -0.7002
10141TIP3    H251915   6.124   2.560   1.664  1.4519  1.5750 -0.5852
10142TIP3   OH251916   0.919   1.986  16.102  0.2562  0.2051  0.0628
10142TIP3    H151917   1.008   2.019  16.099  0.2987  0.2460  1.1957
10142TIP3    H251918   0.900   1.957  16.013  0.3766  2.8423 -0.8959
10143TIP3   OH251919   0.815   4.084   1.545 -0.1676 -0.4386 -0.5910
10143TIP3    H151920   0.777   4.028   1.613 -1.7465  0.0929 -0.9870
10143TIP3    H251921   0.844   4.162   1.592 -1.1391 -0.1254 -0.4896
10144TIP3   OH251922   6.165   6.632   3.231 -0.1206 -0.0164  0.5794
10144TIP3    H151923   6.149   6.645   3.325 -1.9508  0.7406  0.2047
10144TIP3    H251924   6.218   6.707   3.205  0.1127 -0.0566  0.9212
10145TIP3   OH251925   1.782   3.773   1.938  0.1801  0.3090 -0.1944
10145TIP3    H151926   1.817   3.858   1.965  0.5884 -0.0722  0.4841
10145TIP3    H251927   1.823   3.756   1.854  1.0046  0.2390  0.2164
10146TIP3   OH251928   4.564   6.287  11.309  0.1167 -0.6368  0.3960
10146TIP3    H151929   4.575   6.201  11.351  1.3228 -0.6958  0.0171
10146TIP3    H251930   4.536   6.266  11.220  0.0542 -0.6295  0.4144
10147TIP3   OH251931   1.362   1.144  14.730 -0.0817  0.5755 -0.1606
10147TIP3    H151932   1.327   1.183  14.650 -2.1032  0.6022  0.6907
10147TIP3    H251933   1.352   1.212  14.797 -0.6092 -0.2315  0.6095
10148TIP3   OH251934   6.505   3.263   4.467 -0.0303 -0.3520 -0.1714
10148TIP3    H151935   6.560   3.186   4.459 -0.0741 -0.3749 -0.2545
10148TIP3    H251936   6.427   3.243   4.414  0.9303  0.6531 -2.0848
10149TIP3   OH251937   5.798   3.926   0.648 -0.1482 -0.4295 -0.5193
10149TIP3    H151938   5.753   4.002   0.612 -0.1466 -0.1767  0.0094
10149TIP3    H251939   5.738   3.891   0.714  1.4913  1.5417  2.2367
10150TIP3   OH251940   0.837   2.140   2.012 -0.4697  0.0398 -0.2103
10150TIP3    H151941   0.844   2.235   2.021  1.8592  0.0696 -1.4608
10150TIP3    H251942   0.782   2.128   1.934 -2.9168  0.2252  1.3807
10151TIP3   OH251943   0.873   2.080  15.193  0.4811  0.7048  0.0615
10151TIP3    H151944   0.821   2.126  15.259  0.8858  0.5218  0.5053
10151TIP3    H251945   0.934   2.026  15.243  1.7304  1.6051 -0.4453
10152TIP3   OH251946   4.660   5.908  16.226  0.1400 -0.4671  0.4741
10152TIP3    H151947   4.713   5.873  16.154  1.2709  1.4268  0.3444
10152TIP3    H251948   4.672   5.845  16.297  0.7763 -1.2226 -0.2753
10153TIP3   OH251949   3.412   3.190   3.424 -0.1478  0.3881 -0.0308
10153TIP3    H151950   3.408   3.261   3.360 -0.0769 -0.9219 -1.5784
10153TIP3    H251951   3.328   3.193   3.469  0.4535  2.4093  1.0760
10154TIP3   OH251952   6.752   3.546   4.102  0.3611 -0.3169 -0.3066
10154TIP3    H151953   6.742   3.513   4.192 -0.1387  0.0517 -0.2185
10154TIP3    H251954   6.833   3.506   4.070  0.7039 -0.2204  0.4156
10155TIP3   OH251955   5.202   2.302   5.409  1.0796 -0.0019  0.3402
10155TIP3    H151956   5.134   2.292   5.476  0.5691  1.4965  0.0803
10155TIP3    H251957   5.178   2.239   5.341  0.5122 -0.1877  0.7035
10156TIP3   OH251958   3.109   3.166  15.209 -0.1098 -0.0207 -0.1622
10156TIP3    H151959   3.188   3.179  15.156  1.1083 -4.0426  0.3208
10156TIP3    H251960   3.123   3.217  15.288  1.9797 -0.4802 -0.1868
10157TIP3   OH251961   6.104   5.858   1.098 -0.1266  0.0837  0.2799
10157TIP3    H151962   6.167   5.842   1.168  0.9283  0.5904 -0.5324
10157TIP3    H251963   6.034   5.794   1.114 -0.8645  1.4277  2.8754
10158TIP3   OH251964   6.770   4.806   3.198 -0.5300  0.1870  0.8727
10158TIP3    H151965   6.753   4.870   3.267  0.5897 -0.1682  1.4985
10158TIP3    H251966   6.684   4.793   3.156 -0.9573  1.4099  1.3088
10159TIP3   OH251967   6.475   2.143  14.175  0.8039  0.5155 -0.2404
10159TIP3    H151968   6.412   2.074  14.159  1.8164 -0.7938  1.1102
10159TIP3    H251969   6.450   2.179  14.261  0.8372  1.1970 -0.5078
10160TIP3   OH251970   5.836   6.557  14.701 -0.3417 -0.4982 -0.4762
10160TIP3    H151971   5.764   6.495  14.713  0.3501 -0.9373  1.8029
10160TIP3    H251972   5.910   6.517  14.747  0.5273  1.3332 -0.2085
10161TIP3   OH251973   5.261   0.533   1.552  0.0116 -0.3501  0.0906
10161TIP3    H151974   5.170   0.562   1.553  0.8370  2.7945  2.6147
10161TIP3    H251975   5.269   0.473   1.627 -0.0103 -0.7915 -0.2567
10162TIP3   OH251976   4.454   4.781  17.010  0.0297  0.0002 -0.0337
10162TIP3    H151977   4.383   4.824  16.962 -0.0124  0.0810  0.1016
10162TIP3    H251978   4.415   4.753  17.092 -0.1966 -1.1541 -0.5175
10163TIP3   OH251979   4.556   1.609   3.150  0.0582  0.0548  0.4383
10163TIP3    H151980   4.519   1.600   3.062 -0.3176 -0.4030  0.6373
10163TIP3    H251981   4.614   1.685   3.145 -0.8381  0.7300  0.0908
10164TIP3   OH251982   2.684   1.128   0.641 -0.3589 -0.2635 -0.5876
10164TIP3    H151983   2.700   1.083   0.724 -1.4726  0.4334  0.0377
10164TIP3    H251984   2.691   1.221   0.662 -0.9239 -0.0685 -1.2034
10165TIP3   OH251985   4.812   5.168   0.868 -0.3808 -0.4919 -0.3182
10165TIP3    H151986   4.740   5.143   0.810  0.1026 -0.0296 -1.1318
10165TIP3    H251987   4.879   5.203   0.809 -0.1934  0.7261  0.5884
10166TIP3   OH251988   0.352   5.178   1.584 -0.2223 -0.1194  0.3908
10166TIP3    H151989   0.305   5.148   1.662  0.5931  0.4014  1.1035
10166TIP3    H251990   0.325   5.269   1.573 -1.6294 -0.6479 -0.9581
10167TIP3   OH251991   5.126   0.076  10.690  0.3285  0.5830  0.1707
10167TIP3    H151992   5.180   0.109  10.618 -0.4416  2.7775  0.5191
10167TIP3    H251993   5.036   0.094  10.663 -0.0023  0.8617  1.3982
10168TIP3   OH251994   1.304   0.266  16.074  0.1072  0.0925 -0.2735
10168TIP3    H151995   1.274   0.183  16.037  1.4665 -0.3251 -0.4906
10168TIP3    H251996   1.250   0.332  16.030  0.4208 -0.5319 -1.6575
10169TIP3   OH251997   0.250   6.351  13.669  0.2138  0.3103 -0.0264
10169TIP3    H151998   0.193   6.427  13.678  3.0214  2.3986  2.1401
10169TIP3    H251999   0.247   6.308  13.755 -0.0268 -1.0544 -0.6927
10170TIP3   OH252000   5.904   0.164  12.498 -0.1670 -0.0646  0.2313
10170TIP3    H152001   5.951   0.242  12.527  0.5219 -1.1326  2.1359
10170TIP3    H252002   5.839   0.148  12.566 -1.1573 -0.4749 -0.7670
10171TIP3   OH252003   0.284   1.791   5.517 -0.4937 -0.2203 -0.2529
10171TIP3    H152004   0.351   1.846   5.557 -1.9166  0.9975  0.5602
10171TIP3    H252005   0.243   1.847   5.451 -0.1503 -1.2387 -1.3535
10172TIP3   OH252006   2.438   0.242   1.569  0.1794 -0.6825  0.3480
10172TIP3    H152007   2.444   0.201   1.656 -1.1411  1.9153  1.7706
10172TIP3    H252008   2.351   0.217   1.537 -0.4193  0.5204  0.9907
10173TIP3   OH252009   5.905   2.848   3.326 -0.0877  0.1442  0.3517
10173TIP3    H152010   5.960   2.914   3.286 -0.1728  0.8903  1.4379
10173TIP3    H252011   5.823   2.893   3.345 -0.8189 -0.7485 -0.5374
10174TIP3   OH252012   4.724   6.085  14.471 -0.0458  0.1886 -0.5462
10174TIP3    H152013   4.767   6.051  14.393  0.9466 -0.1185  0.1121
10174TIP3    H252014   4.792   6.085  14.538 -0.7932  0.7391  0.2436
10175TIP3   OH252015   4.187   1.038   6.671 -0.1928 -0.0129  0.0487
10175TIP3    H152016   4.173   0.966   6.731 -1.3168  1.2769  1.4308
10175TIP3    H252017   4.101   1.082   6.666 -0.2688 -0.2725 -2.8207
10176TIP3   OH252018   6.549   6.080   0.980  0.4669  0.4089 -0.3607
10176TIP3    H152019   6.498   6.084   1.062  1.5297  2.5589  0.2501
10176TIP3    H252020   6.516   6.152   0.928  1.1315  0.2334 -1.0356
10177TIP3   OH252021   2.318   3.423   3.066  0.0005  0.3275 -0.6434
10177TIP3    H152022   2.352   3.400   3.153  0.4993 -0.3424 -1.0090
10177TIP3    H252023   2.227   3.448   3.081 -0.4445 -1.4522 -0.1583
10178TIP3   OH252024   3.251   5.493  12.775  0.1659 -0.1842  0.4108
10178TIP3    H152025   3.184   5.549  12.814  0.7364 -0.3049  1.6396
10178TIP3    H252026   3.206   5.445  12.706 -1.3751 -1.2433  2.0548
10179TIP3   OH252027   2.380   3.928  13.573  0.1931 -0.4926  0.2606
10179TIP3    H152028   2.361   3.864  13.641 -2.1610 -0.7577 -0.5642
10179TIP3    H252029   2.437   3.882  13.512  0.8804 -0.8148  1.1233
10180TIP3   OH252030   1.633   2.839   2.867  0.4984  0.3507 -0.1281
10180TIP3    H152031   1.590   2.882   2.941  0.2297  0.5800 -0.4204
10180TIP3    H252032   1.629   2.746   2.890 -2.1653  0.1122 -1.1593
10181TIP3   OH252033   3.642   5.530  12.974 -0.7450 -0.6877  0.0909
10181TIP3    H152034   3.588   5.561  13.045 -1.0515 -0.1058 -0.3913
10181TIP3    H252035   3.589   5.462  12.931 -1.2820  0.1715 -0.6372
10182TIP3   OH252036   6.517   5.634   0.070  0.9145  0.1587 -0.0568
10182TIP3    H152037   6.522   5.727   0.048 -0.6536  0.3604  0.2937
10182TIP3    H252038   6.434   5.605   0.031  2.1566 -1.5372 -1.6457
10183TIP3   OH252039   2.637   3.383   1.039  0.9107 -0.1283 -0.6339
10183TIP3    H152040   2.645   3.417   0.950 -0.4552  0.9869 -0.3696
10183TIP3    H252041   2.685   3.446   1.093  0.1309  0.2512 -0.3749
10184TIP3   OH252042   0.642   1.083  15.220  0.3488 -0.4920  0.2093
10184TIP3    H152043   0.612   1.168  15.188 -0.3248 -0.7823  0.0438
10184TIP3    H252044   0.697   1.050  15.149 -0.3859 -0.7227 -0.2690
10185TIP3   OH252045   1.766   5.321  16.549 -0.1936  0.0938  0.0302
10185TIP3    H152046   1.846   5.323  16.601  0.9334  0.2965 -1.6510
10185TIP3    H252047   1.777   5.246  16.491 -2.2768 -1.3014  1.3006
10186TIP3   OH252048   2.105   0.662  11.063 -0.3022  0.0615  0.2941
10186TIP3    H152049   2.052   0.740  11.081 -1.6041 -1.1139  1.9095
10186TIP3    H252050   2.109   0.657  10.968 -1.5171  1.2547  0.1531
10187TIP3   OH252051   0.443   1.854   4.085  0.1463 -0.5345 -0.4173
10187TIP3    H152052   0.480   1.939   4.062 -2.2721  0.4307 -1.0859
10187TIP3    H252053   0.430   1.859   4.180 -2.1095  0.8591 -0.7215
10188TIP3   OH252054   1.667   3.851   5.090 -0.4793 -0.2328  0.1201
10188TIP3    H152055   1.727   3.856   5.015 -0.7093 -0.0074 -0.0513
10188TIP3    H252056   1.667   3.940   5.127 -1.8293  0.1633 -0.7655
10189TIP3   OH252057   0.626   4.054   1.126 -0.6479  0.0842  0.8191
10189TIP3    H152058   0.715   4.075   1.154 -0.9910  0.8684  1.3626
10189TIP3    H252059   0.570   4.096   1.192 -1.4236 -0.1803  0.3376
10190TIP3   OH252060   2.620   0.150   1.166  0.4080 -0.5495 -0.4086
10190TIP3    H152061   2.539   0.114   1.200 -0.0209  0.5226 -0.2536
10190TIP3    H252062   2.676   0.074   1.152 -1.1335 -1.4759 -1.9613
10191TIP3   OH252063   6.577   6.405   4.915 -0.1867 -0.3638 -0.2999
10191TIP3    H152064   6.543   6.330   4.866  2.4134 -2.1201  0.3662
10191TIP3    H252065   6.569   6.379   5.007  0.1363  0.4669 -0.0333
10192TIP3   OH252066   2.606   1.608  13.809 -0.2754 -0.3734  0.1282
10192TIP3    H152067   2.652   1.544  13.753 -1.6603 -1.3785  0.0915
10192TIP3    H252068   2.550   1.554  13.865 -1.3518  0.8146  0.2143
10193TIP3   OH252069   6.059   4.823  11.118  0.3343 -0.2192  0.0211
10193TIP3    H152070   5.979   4.818  11.169 -0.2689 -0.0880 -0.8802
10193TIP3    H252071   6.029   4.821  11.027  1.3817 -0.6654 -0.3296
10194TIP3   OH252072   6.519   5.244  16.540  0.4256 -0.1280 -0.2253
10194TIP3    H152073   6.425   5.258  16.553  0.5629  0.6254  0.0283
10194TIP3    H252074   6.555   5.332  16.536  1.1843 -0.4173  0.1579
10195TIP3   OH252075   0.323   6.216  12.188 -0.1531  0.9627 -0.3320
10195TIP3    H152076   0.362   6.303  12.180 -1.6506  1.7278  0.2469
10195TIP3    H252077   0.254   6.227  12.253 -1.1029 -0.4017 -1.0574
10196TIP3   OH252078   1.418   1.647  14.352  0.2256  0.0705 -0.2297
10196TIP3    H152079   1.444   1.641  14.260  0.9289  1.4003 -0.1350
10196TIP3    H252080   1.423   1.740  14.372 -0.7594 -0.1030  0.9284
10197TIP3   OH252081   0.810   5.238   4.030 -0.4087 -0.4264  0.3513
10197TIP3    H152082   0.776   5.323   4.000  0.0652 -0.7993 -1.3210
10197TIP3    H252083   0.866   5.208   3.959  1.2030 -1.1374  1.8596
10198TIP3   OH252084   0.578   4.853   3.576 -0.1222  0.1236 -0.7546
10198TIP3    H152085   0.656   4.799   3.590  0.4609  0.8283 -1.2094
10198TIP3    H252086   0.610   4.930   3.530 -1.1211  0.3641 -1.0741
10199TIP3   OH252087   1.606   2.407  17.008  0.0949  0.0691 -0.2321
10199TIP3    H152088   1.655   2.332  16.975 -2.4295 -1.1957 -1.3820
10199TIP3    H252089   1.617   2.474  16.940  0.7712  0.0632 -0.1361
10200TIP3   OH252090   1.389   2.112  17.035  0.1361  0.0473 -0.5102
10200TIP3    H152091   1.333   2.147  17.104 -2.3694 -0.5050 -2.1183
10200TIP3    H252092   1.477   2.112  17.072 -1.2526 -1.5531  3.1795
10201TIP3   OH252093   2.456   3.266   5.614 -0.4133 -0.3445  0.1805
10201TIP3    H152094   2.419   3.285   5.527  2.4912  0.4975 -1.0178
10201TIP3    H252095   2.537   3.220   5.595  0.9121  0.9160  2.3800
10202TIP3   OH252096   4.431   5.213   4.886 -0.7367  0.3623  0.2522
10202TIP3    H152097   4.412   5.196   4.793 -1.2963 -0.2402  0.4671
10202TIP3    H252098   4.358   5.267   4.916 -0.7283  0.2795  0.4243
10203TIP3   OH252099   3.683   0.979   5.499 -0.3510  0.5669 -0.1015
10203TIP3    H152100   3.721   0.926   5.569  2.0547 -0.1594 -1.8418
10203TIP3    H252101   3.632   0.917   5.447 -0.3988  0.6656 -0.1734
10204TIP3   OH252102   3.573   5.870   2.318  0.0353  0.2895  0.6326
10204TIP3    H152103   3.550   5.795   2.373 -0.4425 -1.0246 -1.2449
10204TIP3    H252104   3.598   5.831   2.234  1.3506  2.1671  0.0900
10205TIP3   OH252105   3.588   5.301  16.071  0.1070  0.2347  0.7354
10205TIP3    H152106   3.602   5.331  16.161 -0.8839  0.0127  0.9815
10205TIP3    H252107   3.498   5.327  16.051  0.0103 -0.5181  0.1371
10206TIP3   OH252108   1.430   1.105  10.944 -0.0069 -0.5429 -0.3455
10206TIP3    H152109   1.419   1.046  10.870  0.3984  0.6567 -1.3942
10206TIP3    H252110   1.360   1.169  10.934 -0.7048 -1.0546  1.0177
10207TIP3   OH252111   4.113   3.699  10.671  0.1998 -0.5121  0.5034
10207TIP3    H152112   4.209   3.701  10.674  0.1711 -0.3758  1.8113
10207TIP3    H252113   4.087   3.790  10.656  0.2647 -0.3950  1.0681
10208TIP3   OH252114   0.541   3.053  13.566  0.0300  0.1693 -0.2434
10208TIP3    H152115   0.501   2.966  13.566  0.9469 -0.2799  0.3445
10208TIP3    H252116   0.509   3.094  13.646 -1.6999  1.0323 -1.3297
10209TIP3   OH252117   0.780   1.088  15.851 -0.0038 -0.4095 -0.0416
10209TIP3    H152118   0.787   1.085  15.755  1.0442 -1.5028  0.0446
10209TIP3    H252119   0.870   1.100  15.881 -0.0799 -1.9230  0.8570
10210TIP3   OH252120   2.871   6.406  10.352 -0.0486 -0.8088 -0.2267
10210TIP3    H152121   2.812   6.349  10.402 -0.1784 -0.3431  0.1608
10210TIP3    H252122   2.845   6.495  10.378  1.0896 -0.6053  0.2674
10211TIP3   OH252123   5.816   4.657  17.001  0.4738 -0.0294  0.5568
10211TIP3    H152124   5.891   4.624  16.952  0.3771  0.3839  0.1218
10211TIP3    H252125   5.747   4.665  16.936  0.5763  1.2901  0.5828
10212TIP3   OH252126   3.168   6.236   5.671  0.3042 -0.7810  0.0701
10212TIP3    H152127   3.264   6.234   5.663  0.1654 -0.5403 -2.2685
10212TIP3    H252128   3.144   6.327   5.653 -0.2139  0.2707  4.7215
10213TIP3   OH252129   3.648   4.459   4.693  0.1744  0.0304  0.2583
10213TIP3    H152130   3.695   4.376   4.688  0.5270  0.2294  0.2255
10213TIP3    H252131   3.609   4.459   4.780  1.8813  0.7257  1.0612
10214TIP3   OH252132   0.728   2.868  14.798 -0.5313  0.3584  0.1353
10214TIP3    H152133   0.787   2.870  14.723  0.0620  1.0053  0.6095
10214TIP3    H252134   0.749   2.947  14.847 -0.6781 -0.2316  1.1707
10215TIP3   OH252135   2.487   1.806  14.556  0.0639 -0.0757 -0.1342
10215TIP3    H152136   2.421   1.789  14.489 -0.2435 -2.0755  0.6141
10215TIP3    H252137   2.440   1.796  14.639  0.9481  0.0809  0.3972
10216TIP3   OH252138   0.474   1.200   1.454  0.4253 -0.2372 -0.0139
10216TIP3    H152139   0.437   1.238   1.375 -0.4008 -0.7374  0.1139
10216TIP3    H252140   0.400   1.195   1.515  1.2355  0.9201  1.0981
10217TIP3   OH252141   5.193   1.132   4.525  0.6180 -0.2388  0.3084
10217TIP3    H152142   5.145   1.066   4.476  0.3034  0.4142 -0.2732
10217TIP3    H252143   5.127   1.198   4.547  0.7488 -0.5058  1.6026
10218TIP3   OH252144   5.548   3.409   3.329 -0.0921  0.1549  0.4614
10218TIP3    H152145   5.580   3.448   3.248  0.8573  3.6396  2.3378
10218TIP3    H252146   5.474   3.354   3.302 -1.3721  3.0330 -2.5687
10219TIP3   OH252147   6.374   6.298  15.539 -0.0916 -0.8358 -0.3527
10219TIP3    H152148   6.418   6.364  15.486 -0.4191 -0.5732 -0.3052
10219TIP3    H252149   6.389   6.327  15.630  0.1166 -1.0554 -0.3176
10220TIP3   OH252150   5.286   4.552   4.942 -0.6628  0.5012 -0.1615
10220TIP3    H152151   5.314   4.624   4.885 -0.0249  0.8882  0.5999
10220TIP3    H252152   5.344   4.559   5.018 -1.9167  0.4160  0.8329
10221TIP3   OH252153   1.307   2.711  11.379 -0.3074 -0.0213 -0.5062
10221TIP3    H152154   1.396   2.676  11.383 -0.0541  0.6055  3.1483
10221TIP3    H252155   1.320   2.806  11.376 -0.7963  0.0735  0.1271
10222TIP3   OH252156   4.846   2.378  16.241 -0.0696 -0.1748  0.1541
10222TIP3    H152157   4.775   2.314  16.250 -2.8018  2.5270 -0.2048
10222TIP3    H252158   4.843   2.404  16.148  1.7957 -0.3631  0.0065
10223TIP3   OH252159   2.406   5.642  15.931 -0.2794 -0.1046  0.2987
10223TIP3    H152160   2.454   5.706  15.878 -0.0351 -0.6512 -0.1394
10223TIP3    H252161   2.323   5.685  15.951 -0.3239  0.1459 -0.4218
10224TIP3   OH252162   5.628   6.116  12.781 -0.2206 -0.1091  0.5019
10224TIP3    H152163   5.552   6.161  12.743 -0.1323  0.4863  1.0244
10224TIP3    H252164   5.700   6.137  12.722 -0.0179  1.0724  1.1573
10225TIP3   OH252165   5.236   5.929   4.732 -0.0259 -0.1249 -0.5939
10225TIP3    H152166   5.250   5.981   4.654  2.3103  0.0322 -0.1350
10225TIP3    H252167   5.251   5.989   4.805 -1.6587 -0.3900 -0.0001
10226TIP3   OH252168   5.667   6.418  15.489  0.1518  0.0845  0.3290
10226TIP3    H152169   5.693   6.406  15.398 -0.2421  1.0845  0.0720
10226TIP3    H252170   5.724   6.487  15.522  0.4729 -0.4546  0.9278
10227TIP3   OH252171   5.257   4.296   5.056 -0.3901 -0.6261  0.4537
10227TIP3    H152172   5.260   4.376   5.003  0.2647  0.3994  1.9634
10227TIP3    H252173   5.248   4.225   4.992 -1.5104  0.6725 -0.9010
10228TIP3   OH252174   3.267   5.214   3.582 -0.8010 -0.0553  0.1936
10228TIP3    H152175   3.223   5.132   3.604  1.4607 -1.3603  0.1276
10228TIP3    H252176   3.268   5.215   3.486 -0.5617 -0.1036  0.1956
10229TIP3   OH252177   1.488   3.139  12.837 -0.3692 -0.1436  0.3481
10229TIP3    H152178   1.420   3.071  12.833 -0.6384  0.1152  0.5588
10229TIP3    H252179   1.539   3.116  12.914 -0.6237  0.0459  0.5756
10230TIP3   OH252180   2.582   6.421   1.854  0.4952  0.6045 -0.8573
10230TIP3    H152181   2.632   6.443   1.776  0.4665  1.6523 -0.6010
10230TIP3    H252182   2.649   6.409   1.922  0.4614  0.7598 -0.7974
10231TIP3   OH252183   2.638   0.672   5.318  0.1702 -0.1940  0.1717
10231TIP3    H152184   2.585   0.595   5.341 -0.7223  0.4079  0.1535
10231TIP3    H252185   2.709   0.671   5.383  0.6560 -1.4954 -0.3403
10232TIP3   OH252186   6.127   0.706  11.365  0.1837  0.5410  0.5951
10232TIP3    H152187   6.159   0.617  11.348  1.3694  1.1799 -0.6719
10232TIP3    H252188   6.154   0.724  11.456 -0.5222 -0.5560  1.0455
10233TIP3   OH252189   6.204   4.211  16.099  0.4945 -0.2299  0.5945
10233TIP3    H152190   6.213   4.305  16.082  0.3524 -0.5854 -1.6207
10233TIP3    H252191   6.210   4.205  16.195  1.5748  1.9084  0.7459
10234TIP3   OH252192   0.815   3.866  11.034  0.1132 -0.6506  0.2421
10234TIP3    H152193   0.734   3.880  10.986  0.0935 -0.2652  0.3831
10234TIP3    H252194   0.884   3.897  10.976  0.0254  0.6165  0.7823
10235TIP3   OH252195   6.333   1.178   3.694  0.5706 -0.0207 -0.2880
10235TIP3    H152196   6.326   1.119   3.769  1.7254  1.0189  0.6926
10235TIP3    H252197   6.274   1.141   3.628  0.3096 -1.5342  0.7490
10236TIP3   OH252198   2.271   6.760  12.286 -0.0906 -0.1059  0.3774
10236TIP3    H152199   2.339   6.724  12.343 -1.6516 -0.0741  2.3656
10236TIP3    H252200   2.268   6.853  12.309 -1.7928 -0.3862  1.4435
10237TIP3   OH252201   6.472   0.046   1.626 -0.6140 -0.1916 -0.4940
10237TIP3    H152202   6.441   0.127   1.666 -0.9010 -0.7420  0.4220
10237TIP3    H252203   6.518   0.074   1.546 -2.1158  0.7557 -1.0634
10238TIP3   OH252204   6.043   4.704  10.525  0.1186 -0.0374 -0.5503
10238TIP3    H152205   5.956   4.732  10.497  0.3697  0.6823 -0.6309
10238TIP3    H252206   6.061   4.626  10.472 -0.6038 -0.3824 -0.3034
10239TIP3   OH252207   6.536   6.103   3.109 -0.3700  0.0434 -0.1641
10239TIP3    H152208   6.623   6.125   3.075 -0.1305 -1.0057 -0.2546
10239TIP3    H252209   6.488   6.186   3.105  1.1067  1.0619  1.4147
10240TIP3   OH252210   3.718   1.209  13.101  0.5737  0.5537 -0.6269
10240TIP3    H152211   3.730   1.282  13.162  1.9623  1.3297 -1.7608
10240TIP3    H252212   3.736   1.131  13.153  1.9900  1.2090 -0.0636
10241TIP3   OH252213   2.793   2.860   6.148  0.3048 -0.4231 -0.0695
10241TIP3    H152214   2.778   2.864   6.243  1.5576 -2.3049  0.2774
10241TIP3    H252215   2.843   2.939   6.129  2.4447 -1.2926  1.4184
10242TIP3   OH252216   6.139   4.390  11.265  0.8006 -0.3648 -0.5645
10242TIP3    H152217   6.143   4.342  11.348  1.5597 -1.4501 -1.2039
10242TIP3    H252218   6.058   4.360  11.224  1.1873 -0.9781 -0.8862
10243TIP3   OH252219   0.604   5.235   4.943  0.2331  0.2648 -0.7490
10243TIP3    H152220   0.692   5.225   4.980 -0.4729 -1.3064  0.5963
10243TIP3    H252221   0.546   5.191   5.005 -1.1334 -1.7499 -3.2574
10244TIP3   OH252222   0.962   5.943   2.568  0.0128 -0.3761 -0.9680
10244TIP3    H152223   1.055   5.939   2.545 -0.2819 -1.5631 -2.0693
10244TIP3    H252224   0.949   5.869   2.628 -0.0406  0.3620 -0.0514
10245TIP3   OH252225   4.637   4.542   1.943 -0.9399 -0.3437 -0.1494
10245TIP3    H152226   4.664   4.574   1.857 -0.9274  2.7627  0.8916
10245TIP3    H252227   4.545   4.566   1.949 -0.9918 -0.7209  0.6203
10246TIP3   OH252228   1.757   2.939  15.333 -0.1337  0.1878 -0.1580
10246TIP3    H152229   1.693   3.006  15.308 -1.4501 -0.2907  1.7029
10246TIP3    H252230   1.817   2.983  15.393 -2.2567 -0.6261  2.8165
10247TIP3   OH252231   6.200   1.431   1.170  0.5577  0.0107  0.5688
10247TIP3    H152232   6.294   1.419   1.159  0.5823  0.9630 -0.3597
10247TIP3    H252233   6.190   1.473   1.255  1.0225  0.4436  0.4122
10248TIP3   OH252234   1.664   3.691  12.502  0.1721  0.0836  0.1913
10248TIP3    H152235   1.704   3.749  12.436 -0.5856  1.3369  0.7916
10248TIP3    H252236   1.614   3.750  12.558 -1.2480 -1.2485  0.3972
10249TIP3   OH252237   5.282   4.468  15.041 -0.0766  0.1035  0.2921
10249TIP3    H152238   5.270   4.458  14.946  1.1233  1.5625 -0.0522
10249TIP3    H252239   5.217   4.534  15.066 -0.0471  0.0938  0.3926
10250TIP3   OH252240   4.392   6.194   5.624  0.1981 -0.1030  0.6487
10250TIP3    H152241   4.367   6.189   5.717 -0.2768 -0.2512  0.5145
10250TIP3    H252242   4.329   6.254   5.585 -0.1423 -0.7130  0.2457
10251TIP3   OH252243   4.970   4.718  14.680  0.6371  0.6165  0.1850
10251TIP3    H152244   4.983   4.777  14.754 -1.7672  0.9603  0.4043
10251TIP3    H252245   4.939   4.774  14.609 -0.2369 -0.1656 -0.0737
10252TIP3   OH252246   1.537   1.139  13.960  0.7406 -0.3514  0.0967
10252TIP3    H152247   1.490   1.067  14.003  0.2773  0.5260  1.1032
10252TIP3    H252248   1.574   1.190  14.032  1.5610  0.0991 -0.6233
10253TIP3   OH252249   5.088   0.311  15.939  0.3577  0.0255 -0.6283
10253TIP3    H152250   5.136   0.381  15.895 -1.4466  1.1269 -0.9383
10253TIP3    H252251   5.109   0.323  16.032  2.1790 -0.7517 -0.8854
10254TIP3   OH252252   2.143   6.505   2.906  0.5131 -0.0094  0.3969
10254TIP3    H152253   2.103   6.573   2.851  0.9810  1.8792  2.2616
10254TIP3    H252254   2.232   6.535   2.921  1.3867 -2.0843 -0.3204
10255TIP3   OH252255   3.677   1.008  14.395 -0.1730 -0.1006 -0.3145
10255TIP3    H152256   3.718   1.089  14.363  0.9642 -0.9029 -0.9650
10255TIP3    H252257   3.749   0.959  14.434 -0.9644 -0.5498  0.6302
10256TIP3   OH252258   2.928   1.572  10.877 -0.3290 -0.6815  0.2283
10256TIP3    H152259   2.985   1.559  10.802  0.6916  3.1708  0.0863
10256TIP3    H252260   2.971   1.525  10.949  2.4654  1.0037 -0.1741
10257TIP3   OH252261   5.627   5.497   1.069  0.6499 -0.5820  0.2520
10257TIP3    H152262   5.572   5.419   1.070 -0.8646  0.4528  0.9128
10257TIP3    H252263   5.606   5.541   0.987  1.2809 -0.7048  0.0188
10258TIP3   OH252264   6.036   2.973  10.766 -0.2146  0.2320 -0.0513
10258TIP3    H152265   5.992   3.037  10.710 -0.4311  1.9908  2.0239
10258TIP3    H252266   5.998   2.889  10.739 -3.5066  1.4490  0.3021
10259TIP3   OH252267   2.692   6.045  15.710  0.2994  0.7053  0.4610
10259TIP3    H152268   2.688   6.080  15.621 -0.9486  1.2996  0.7371
10259TIP3    H252269   2.665   6.118  15.766  0.2963  0.0913  1.2708
10260TIP3   OH252270   5.884   5.554  15.614  0.0183  0.2669 -0.0070
10260TIP3    H152271   5.923   5.568  15.528  0.5899  2.5718  0.5608
10260TIP3    H252272   5.885   5.459  15.625  1.8602  0.0210 -1.6613
10261TIP3   OH252273   6.419   4.349   1.822  0.0824  0.4255  0.3312
10261TIP3    H152274   6.436   4.268   1.870  1.1166 -0.1304 -0.9073
10261TIP3    H252275   6.334   4.379   1.855 -0.3152 -1.1511  0.8232
10262TIP3   OH252276   6.730   6.001  11.018  0.3604  0.3372  0.4741
10262TIP3    H152277   6.794   6.051  10.967  1.0493  1.5044  2.3689
10262TIP3    H252278   6.760   5.910  11.011 -0.5635  0.1464 -2.5298
10263TIP3   OH252279   3.440   6.764  11.755  0.1492 -0.5630 -0.3168
10263TIP3    H152280   3.425   6.786  11.663  1.0324 -0.2320 -0.3875
10263TIP3    H252281   3.439   6.668  11.757  3.0912 -0.6843 -1.2240
10264TIP3   OH252282   2.183   5.332   6.773 -0.0966 -0.3959  0.6322
10264TIP3    H152283   2.224   5.415   6.797  2.3555 -1.6322  1.0485
10264TIP3    H252284   2.121   5.355   6.704 -1.1045  2.0446  2.1728
10265TIP3   OH252285   5.895   3.410  16.808 -0.1193  0.3032 -0.5139
10265TIP3    H152286   5.985   3.390  16.779 -0.1409 -2.3928  0.9346
10265TIP3    H252287   5.896   3.504  16.825  2.5589  0.2931 -0.1733
10266TIP3   OH252288   3.407   2.520   3.130 -0.1186 -0.2699 -0.1164
10266TIP3    H152289   3.423   2.592   3.069 -0.1907 -0.6124 -0.5411
10266TIP3    H252290   3.391   2.563   3.214 -0.3200  0.2211 -0.4024
10267TIP3   OH252291   3.724   1.749  13.778 -0.2934  0.0079 -0.0702
10267TIP3    H152292   3.800   1.699  13.806 -0.0907 -1.3513 -2.7083
10267TIP3    H252293   3.749   1.841  13.789  0.7415 -0.4221  1.4002
10268TIP3   OH252294   2.186   6.429  16.433 -0.2617  0.0273  0.2923
10268TIP3    H152295   2.180   6.425  16.338 -3.2118 -0.3520  0.4012
10268TIP3    H252296   2.227   6.347  16.459  0.6136  0.1626 -0.6245
10269TIP3   OH252297   5.160   4.497  15.839  0.0438  0.3563 -0.0084
10269TIP3    H152298   5.235   4.496  15.780 -0.8985  0.1976 -1.2401
10269TIP3    H252299   5.199   4.492  15.927  1.4102 -2.6385 -0.6470
10270TIP3   OH252300   5.930   5.994   0.213  0.7963 -0.2181 -0.4985
10270TIP3    H152301   6.004   5.936   0.231 -0.4687 -1.7994 -0.1718
10270TIP3    H252302   5.905   6.028   0.299  1.2925  0.5047 -0.6399
10271TIP3   OH252303   1.629   6.239   2.514 -0.5960 -0.5493 -0.0969
10271TIP3    H152304   1.660   6.273   2.430  3.3115  0.4975  1.5468
10271TIP3    H252305   1.548   6.287   2.530 -0.6810  0.3060 -2.5811
10272TIP3   OH252306   6.577   0.391  15.779  0.2034 -0.1458 -0.3443
10272TIP3    H152307   6.667   0.396  15.748  0.5908  2.4442  0.9503
10272TIP3    H252308   6.578   0.324  15.847  1.1643 -0.1057 -0.3074
10273TIP3   OH252309   2.045   2.664  15.729 -0.5127 -0.1160  0.1595
10273TIP3    H152310   2.043   2.713  15.812 -1.1800  0.0349  0.0570
10273TIP3    H252311   1.958   2.625  15.722 -0.4622 -0.1246 -0.4768
10274TIP3   OH252312   5.794   1.528  12.953  0.2866  0.4055 -0.6814
10274TIP3    H152313   5.766   1.596  13.015 -2.2103  0.2456 -1.4979
10274TIP3    H252314   5.736   1.539  12.878 -0.1118 -2.5044 -0.9293
10275TIP3   OH252315   5.128   5.641   1.211  0.0876  0.3579 -0.0776
10275TIP3    H152316   5.076   5.561   1.212 -2.4495  1.8948  1.1879
10275TIP3    H252317   5.064   5.712   1.201  2.1325  2.3034 -0.3443
10276TIP3   OH252318   0.436   2.586   1.173 -0.3401 -0.4155  0.0816
10276TIP3    H152319   0.520   2.618   1.204 -0.4066 -0.9272  0.8055
10276TIP3    H252320   0.456   2.546   1.088  0.4057 -1.7597  0.8590
10277TIP3   OH252321   4.405   5.574   0.336  0.0850 -0.8391  0.4917
10277TIP3    H152322   4.500   5.578   0.345  0.1503 -0.1724 -0.3623
10277TIP3    H252323   4.389   5.588   0.243 -0.9477  1.2056  0.9159
10278TIP3   OH252324   6.054   4.933  13.136  1.1819  0.0934 -0.2568
10278TIP3    H152325   6.034   4.840  13.127 -0.2617  0.1776  1.4872
10278TIP3    H252326   6.034   4.970  13.050  0.4335 -0.9947 -0.5733
10279TIP3   OH252327   2.082   0.175   1.163 -0.8200  0.3192  0.3047
10279TIP3    H152328   2.105   0.082   1.162 -1.2144  0.2059 -0.8925
10279TIP3    H252329   2.136   0.213   1.232  0.8199 -0.4430 -0.5067
10280TIP3   OH252330   0.642   3.064   3.767  0.5384  0.5035 -0.4113
10280TIP3    H152331   0.700   3.110   3.827  0.3182  0.8625 -0.4728
10280TIP3    H252332   0.559   3.112   3.771 -0.3765 -1.0786  1.0693
10281TIP3   OH252333   2.949   1.934   6.610  0.0870  0.5923  0.4952
10281TIP3    H152334   2.929   1.986   6.688 -0.5590 -1.3828  1.7329
10281TIP3    H252335   2.888   1.965   6.544 -0.2378  1.4394  1.1748
10282TIP3   OH252336   3.702   1.390   4.068 -0.5190  0.1065  0.2088
10282TIP3    H152337   3.707   1.475   4.023 -0.7271  0.4238  0.7708
10282TIP3    H252338   3.613   1.360   4.052  0.2291 -1.1777 -2.0333
10283TIP3   OH252339   3.018   1.719  13.372 -0.0565 -0.4135  0.3627
10283TIP3    H152340   2.987   1.640  13.417 -0.3727  0.3198  1.4487
10283TIP3    H252341   2.940   1.774  13.363  0.4712  0.4740  1.0803
10284TIP3   OH252342   3.830   2.031   0.777 -0.0778 -0.4669  0.2393
10284TIP3    H152343   3.852   1.995   0.691  1.4261  1.3817 -0.2202
10284TIP3    H252344   3.773   2.106   0.758 -2.9130 -2.2117  1.1568
10285TIP3   OH252345   0.240   5.774   4.119 -0.0837  0.6136 -0.1056
10285TIP3    H152346   0.263   5.854   4.071  1.4678  0.7177  0.7316
10285TIP3    H252347   0.324   5.729   4.130 -0.9056 -1.0570 -0.3988
10286TIP3   OH252348   2.162   0.971  13.746 -0.2063  0.3586  0.9549
10286TIP3    H152349   2.110   1.050  13.731  1.5530  1.4613  0.3961
10286TIP3    H252350   2.228   0.972  13.677  1.2382 -0.3792  2.2544
10287TIP3   OH252351   6.720   1.461  14.571 -0.2883 -1.0155  0.0187
10287TIP3    H152352   6.758   1.394  14.515  0.4780  0.8721 -1.8558
10287TIP3    H252353   6.781   1.466  14.645  1.5219 -0.1778 -1.4376
10288TIP3   OH252354   2.260   4.321   4.521 -0.2022  0.0227  0.6094
10288TIP3    H152355   2.227   4.388   4.582 -0.5663 -1.4018  2.0728
10288TIP3    H252356   2.209   4.334   4.441 -1.2667  0.6185  1.3559
10289TIP3   OH252357   1.961   5.763  10.500 -0.2077 -0.2867  0.2199
10289TIP3    H152358   1.912   5.833  10.457  0.1409 -1.1578 -1.6821
10289TIP3    H252359   1.950   5.687  10.443  0.7591 -1.3579  1.3954
10290TIP3   OH252360   4.916   3.697   5.392  0.3064 -0.0418 -0.1397
10290TIP3    H152361   4.968   3.703   5.312  1.0848 -2.8044  0.0684
10290TIP3    H252362   4.931   3.781   5.436  3.5919 -0.2074 -0.6999
10291TIP3   OH252363   2.798   0.618  15.997 -0.3443 -0.0744  0.0310
10291TIP3    H152364   2.742   0.680  16.044 -0.0842  0.2479 -0.0800
10291TIP3    H252365   2.778   0.533  16.036 -2.5142 -0.3368 -1.4432
10292TIP3   OH252366   6.335   4.399   3.841  0.3540 -0.2516 -0.6168
10292TIP3    H152367   6.317   4.378   3.749  1.1471 -0.6927 -0.6828
10292TIP3    H252368   6.313   4.319   3.889  0.0888 -0.0739 -0.4396
10293TIP3   OH252369   2.224   1.695  14.458  0.1635  0.3049  0.2879
10293TIP3    H152370   2.129   1.707  14.452 -0.1565 -1.5516  1.0447
10293TIP3    H252371   2.258   1.742  14.382 -1.3950  0.6402 -0.2501
10294TIP3   OH252372   0.715   4.524  11.843  0.1589  0.5452 -0.0324
10294TIP3    H152373   0.786   4.560  11.896  1.6798 -0.2546 -1.4292
10294TIP3    H252374   0.652   4.595  11.835  0.6976  1.2271  1.3848
10295TIP3   OH252375   4.223   4.846  14.732  0.4056  0.0041  0.0752
10295TIP3    H152376   4.296   4.891  14.689 -0.4581  0.9818 -0.4188
10295TIP3    H252377   4.174   4.917  14.775 -1.2579 -0.3647 -1.1077
10296TIP3   OH252378   4.497   0.249   1.944  0.0352 -0.1211 -0.0739
10296TIP3    H152379   4.511   0.321   1.883 -2.4020  0.1404 -0.4247
10296TIP3    H252380   4.465   0.291   2.023  0.5205 -0.6927  0.4345
10297TIP3   OH252381   3.631   2.385  14.545 -0.0409  0.5074  0.0051
10297TIP3    H152382   3.660   2.451  14.608  0.0184  0.1209  0.3904
10297TIP3    H252383   3.583   2.435  14.479 -0.7582  0.8431  0.7528
10298TIP3   OH252384   2.744   2.117  11.956 -0.0867  0.1073 -0.6263
10298TIP3    H152385   2.672   2.175  11.982 -0.0547 -0.5880  1.1870
10298TIP3    H252386   2.713   2.030  11.980  1.9319 -0.0594  1.7139
10299TIP3   OH252387   3.916   2.467   2.102  0.7064 -0.4266 -0.8347
10299TIP3    H152388   3.988   2.481   2.163  0.4118 -0.6073 -0.4456
10299TIP3    H252389   3.956   2.417   2.030  1.6077  1.7718 -1.9423
10300TIP3   OH252390   4.358   4.546   4.559  0.5529 -0.0287  0.3160
10300TIP3    H152391   4.373   4.491   4.482 -0.9154  2.3124 -1.7883
10300TIP3    H252392   4.302   4.493   4.616 -1.4427 -0.5303 -1.9758
10301TIP3   OH252393   1.004   5.120  16.132  0.3607  0.1220  0.4120
10301TIP3    H152394   0.920   5.166  16.124  0.2801 -0.2170 -0.8753
10301TIP3    H252395   1.001   5.054  16.063  2.0464  0.6878 -0.2478
10302TIP3   OH252396   2.703   1.620  14.502  0.2498  0.3722 -0.4913
10302TIP3    H152397   2.627   1.670  14.530 -0.5076 -0.3746 -1.1480
10302TIP3    H252398   2.716   1.646  14.410  0.0653 -0.3550 -0.7307
10303TIP3   OH252399   6.563   6.527   3.348 -0.0559  0.6315 -0.4280
10303TIP3    H152400   6.655   6.552   3.351 -0.0902  0.6843  0.7146
10303TIP3    H252401   6.565   6.431   3.339  0.1703  0.3639  1.9055
10304TIP3   OH252402   0.449   6.178   0.729  0.3882  0.4616  0.0550
10304TIP3    H152403   0.530   6.212   0.766  0.6072  0.9079 -0.7996
10304TIP3    H252404   0.379   6.218   0.780  0.7016  0.4021  0.5282
10305TIP3   OH252405   6.833   5.758   5.229 -0.9471  0.3110  0.0231
10305TIP3    H152406   6.777   5.784   5.156  0.4101 -1.1695 -1.6345
10305TIP3    H252407   6.803   5.670   5.252 -0.0924 -0.0211 -0.0999
10306TIP3   OH252408   1.801   5.026  14.967  0.0592 -0.3472 -0.1727
10306TIP3    H152409   1.755   5.078  14.900 -0.2184 -0.8541 -0.3777
10306TIP3    H252410   1.877   4.991  14.921  0.3313 -0.0074  0.0072
10307TIP3   OH252411   6.487   3.840  16.249  0.0780  0.5988  0.4560
10307TIP3    H152412   6.537   3.789  16.312 -1.1874  0.2452  1.2068
10307TIP3    H252413   6.546   3.912  16.225  0.9309  0.2203  1.3329
10308TIP3   OH252414   4.270   2.348   2.075  0.0767 -0.5723 -0.3679
10308TIP3    H152415   4.364   2.332   2.078 -0.0856 -1.5740 -0.4391
10308TIP3    H252416   4.233   2.290   2.142 -0.2829  1.5521  1.4057
10309TIP3   OH252417   1.937   0.252   3.166  0.3836 -0.0726  0.3666
10309TIP3    H152418   1.849   0.234   3.132  0.1052 -1.4803  1.7218
10309TIP3    H252419   1.946   0.347   3.159 -1.4568  0.1684  0.6855
10310TIP3   OH252420   2.938   0.348  13.797 -0.0117 -0.3438 -0.0698
10310TIP3    H152421   2.936   0.385  13.885 -0.6262 -0.4240 -0.0430
10310TIP3    H252422   2.850   0.363  13.763 -0.4937 -2.3655  0.1736
10311TIP3   OH252423   0.664   4.503  12.201 -0.3593 -0.2702 -0.2789
10311TIP3    H152424   0.745   4.471  12.162  0.5191  1.4639  0.0388
10311TIP3    H252425   0.680   4.502  12.295 -0.4667  0.6344 -0.2414
10312TIP3   OH252426   3.919   4.662   4.658 -0.6654  0.8562  0.5965
10312TIP3    H152427   3.844   4.638   4.713  0.2941  0.6865  1.8652
10312TIP3    H252428   3.909   4.608   4.580 -1.6927  0.6057  0.8829
10313TIP3   OH252429   6.731   5.872   3.185 -0.2090 -0.0607  0.1116
10313TIP3    H152430   6.756   5.819   3.109  0.7373  0.7809 -0.1815
10313TIP3    H252431   6.638   5.853   3.198 -0.6786  0.6241 -1.9285
10314TIP3   OH252432   2.649   6.531   5.660 -0.6100 -0.4420 -0.3340
10314TIP3    H152433   2.701   6.555   5.583  1.1036  0.1102  0.9312
10314TIP3    H252434   2.588   6.464   5.628  0.2398 -0.4362 -2.0954
10315TIP3   OH252435   2.403   4.876   3.559  0.2272  0.1091 -0.9830
10315TIP3    H152436   2.401   4.958   3.510  2.4149  2.4138  2.2962
10315TIP3    H252437   2.312   4.850   3.566 -0.6335  2.5550 -1.7666
10316TIP3   OH252438   5.404   1.237  15.573  0.3501  1.0084  0.3057
10316TIP3    H152439   5.319   1.198  15.551  0.3671  0.3625  1.3369
10316TIP3    H252440   5.415   1.307  15.509 -0.2855  0.1538 -0.7855
10317TIP3   OH252441   3.923   0.097  12.224  0.1726 -0.0212 -0.0573
10317TIP3    H152442   3.944   0.032  12.157 -2.5281 -2.2185  1.0377
10317TIP3    H252443   3.993   0.087  12.289  0.4245 -0.9943 -0.4546
10318TIP3   OH252444   0.129   1.029  12.817 -0.7628 -0.5089  0.1126
10318TIP3    H152445   0.203   1.024  12.757 -1.1986 -0.8710 -0.3976
10318TIP3    H252446   0.169   1.023  12.904  0.0108  1.3737 -0.0564
10319TIP3   OH252447   3.824   4.562   4.934 -0.2360  0.3819  0.0398
10319TIP3    H152448   3.783   4.496   4.991  1.0577 -0.4042  0.0936
10319TIP3    H252449   3.823   4.642   4.987 -2.8220  0.7711 -0.4284
10320TIP3   OH252450   5.995   6.408   1.246  0.1577 -0.1506  0.0825
10320TIP3    H152451   6.069   6.412   1.186  0.1174  0.6924  0.0677
10320TIP3    H252452   5.970   6.316   1.248  1.7922 -0.6131  0.8224
10321TIP3   OH252453   2.844   0.881  12.053 -0.4232  0.2570  0.6821
10321TIP3    H152454   2.906   0.843  12.115 -0.9054 -0.2193  0.8725
10321TIP3    H252455   2.887   0.873  11.968  0.5373  1.5137  1.0114
10322TIP3   OH252456   4.938   6.364  13.347 -0.2676  0.1378 -0.1341
10322TIP3    H152457   4.970   6.333  13.262 -0.2648 -0.9113  0.2271
10322TIP3    H252458   4.928   6.284  13.399  0.4082  0.8208  1.0887
10323TIP3   OH252459   2.148   3.055   3.525 -0.3618 -0.5367 -0.0609
10323TIP3    H152460   2.081   3.082   3.588  0.3111 -0.8415  0.8033
10323TIP3    H252461   2.182   2.972   3.560  0.3613 -0.4606 -0.5637
10324TIP3   OH252462   1.637   5.632  14.449 -0.0542  0.0678  0.3967
10324TIP3    H152463   1.617   5.614  14.357 -1.2397  2.3340  0.1358
10324TIP3    H252464   1.731   5.651  14.450 -0.1347  0.5694 -0.4629
10325TIP3   OH252465   0.097   0.526   2.443  0.3091  0.4240 -0.1549
10325TIP3    H152466   0.121   0.618   2.440 -2.9976  1.5158  1.4305
10325TIP3    H252467   0.147   0.490   2.516  1.3222  1.0275 -0.5322
10326TIP3   OH252468   1.678   2.758   5.844  0.5048 -0.4007 -0.0508
10326TIP3    H152469   1.683   2.851   5.864 -0.1094 -0.0725 -1.2997
10326TIP3    H252470   1.670   2.715   5.929 -0.0497  0.7498  0.5045
10327TIP3   OH252471   3.650   5.775   2.080 -0.6847  0.1589 -0.0593
10327TIP3    H152472   3.636   5.682   2.065  0.7601  0.0448 -0.8500
10327TIP3    H252473   3.743   5.788   2.065 -0.6375  1.5252  1.2202
10328TIP3   OH252474   1.137   1.200  15.125 -0.0240  0.1640 -0.2722
10328TIP3    H152475   1.206   1.135  15.113 -0.6091 -0.5083 -0.0842
10328TIP3    H252476   1.132   1.245  15.041  1.2402  0.8273 -0.0110
10329TIP3   OH252477   6.680   4.910   2.803  0.1660  0.4608 -0.1457
10329TIP3    H152478   6.721   4.853   2.867  0.7893  2.0190  0.8936
10329TIP3    H252479   6.742   4.914   2.730  1.0573  1.3535  0.6363
10330TIP3   OH252480   3.459   2.222   5.380 -0.6924  0.5311 -0.8073
10330TIP3    H152481   3.385   2.281   5.397 -1.3259 -0.9286  2.0849
10330TIP3    H252482   3.419   2.138   5.358 -0.0534 -0.6315  2.0682
10331TIP3   OH252483   6.842   1.597   0.571 -0.3543 -0.7529  0.0327
10331TIP3    H152484   6.821   1.550   0.490 -0.9041  0.2011 -0.4052
10331TIP3    H252485   6.777   1.566   0.634 -0.0273 -1.3795  0.0634
10332TIP3   OH252486   3.045   5.013   6.415 -0.0194  0.4894 -0.4451
10332TIP3    H152487   3.034   5.043   6.325  2.4044 -0.2778 -1.0864
10332TIP3    H252488   3.058   5.093   6.466 -1.8992  0.9594 -0.6447
10333TIP3   OH252489   4.965   4.237  13.720  0.0024  0.0219 -0.4117
10333TIP3    H152490   5.016   4.164  13.684 -1.9038 -1.0555 -1.0198
10333TIP3    H252491   4.925   4.279  13.644  0.5647  1.3514 -0.0103
10334TIP3   OH252492   5.788   3.416   1.599  0.6957 -0.2457 -0.1281
10334TIP3    H152493   5.806   3.476   1.527 -1.0843 -0.3335 -0.6900
10334TIP3    H252494   5.858   3.433   1.662  1.0687  1.3672 -0.9152
10335TIP3   OH252495   0.997   5.966  16.297 -0.5992 -0.1215  0.2340
10335TIP3    H152496   0.923   5.975  16.238 -1.3023  0.3438  1.1645
10335TIP3    H252497   0.960   5.928  16.377  0.3919 -1.0788  0.2697
10336TIP3   OH252498   0.196   2.300   0.036 -0.1174  0.0881 -0.3456
10336TIP3    H152499   0.212   2.258  -0.048  0.2597  0.6952 -0.5801
10336TIP3    H252500   0.262   2.369   0.042 -0.1052  0.0152  0.4717
10337TIP3   OH252501   0.759   0.332   4.605 -0.3589 -0.3376  0.0157
10337TIP3    H152502   0.703   0.283   4.545 -0.1515 -0.4845 -0.0573
10337TIP3    H252503   0.847   0.299   4.589 -0.3379 -0.5867  0.5982
10338TIP3   OH252504   3.575   4.970   5.973 -0.1425 -0.2424  0.3663
10338TIP3    H152505   3.656   4.937   5.934  0.0172  0.3007  0.2417
10338TIP3    H252506   3.506   4.912   5.937  0.1698 -0.6303  0.3839
10339TIP3   OH252507   5.477   5.412  15.248  0.2162 -0.4542 -0.6858
10339TIP3    H152508   5.382   5.407  15.242  0.0628 -0.9917  1.3446
10339TIP3    H252509   5.501   5.335  15.300  1.7197 -0.0550 -0.7599
10340TIP3   OH252510   3.771   5.106   3.907 -0.1810 -0.2714 -0.5156
10340TIP3    H152511   3.699   5.055   3.944  0.6719 -1.1283  0.0071
10340TIP3    H252512   3.729   5.184   3.870 -1.5345 -1.4153 -1.4873
10341TIP3   OH252513   4.204   3.293  13.783  0.4720  0.5220  0.0493
10341TIP3    H152514   4.225   3.321  13.872  1.0297  0.8852 -0.1927
10341TIP3    H252515   4.278   3.323  13.730  0.1352  0.3269 -0.5406
10342TIP3   OH252516   3.634   2.789   2.029  0.3948  0.1170  0.5661
10342TIP3    H152517   3.560   2.799   2.088 -0.8085 -0.8823 -0.6910
10342TIP3    H252518   3.629   2.698   2.000  1.9094  0.1355  0.1645
10343TIP3   OH252519   3.258   0.535   2.890 -0.6436  0.0554 -0.0932
10343TIP3    H152520   3.203   0.614   2.889 -0.1357  0.4236 -1.1042
10343TIP3    H252521   3.328   0.555   2.951 -0.6973  0.2522 -0.0953
10344TIP3   OH252522   2.725   2.546   0.939 -0.1301  0.2103 -0.2977
10344TIP3    H152523   2.687   2.601   1.007  0.5368 -0.2268  0.4533
10344TIP3    H252524   2.754   2.607   0.872  1.0314  0.8418  0.7346
10345TIP3   OH252525   1.932   2.647   5.720 -0.1615 -0.1180  0.3318
10345TIP3    H152526   1.878   2.716   5.758 -1.5505 -1.6366  1.2341
10345TIP3    H252527   1.969   2.600   5.795  2.1382  0.6015 -0.2562
10346TIP3   OH252528   5.973   3.928   0.219 -0.1125  0.3053  0.2619
10346TIP3    H152529   5.882   3.946   0.243 -0.5796 -0.8519 -0.5442
10346TIP3    H252530   5.967   3.886   0.133  1.0711 -0.8913  0.7364
10347TIP3   OH252531   5.281   2.257  13.804 -0.2024 -0.6701 -0.2169
10347TIP3    H152532   5.220   2.330  13.802  0.7736  0.2010  0.5602
10347TIP3    H252533   5.367   2.298  13.808  0.3152 -1.7814  2.9982
10348TIP3   OH252534   3.141   1.066  14.045 -0.2889  0.0865 -0.9479
10348TIP3    H152535   3.069   1.120  14.014  0.0206  0.5669 -0.8415
10348TIP3    H252536   3.213   1.128  14.060 -0.3616 -0.1546  0.5109
10349TIP3   OH252537   6.292   3.430  15.635 -0.1060 -0.1048 -0.0470
10349TIP3    H152538   6.305   3.462  15.545 -0.0949  0.7686  0.2625
10349TIP3    H252539   6.247   3.501  15.680 -0.9994 -0.9133  0.3960
10350TIP3   OH252540   0.226   5.598   0.333  0.4633 -0.2514 -0.2263
10350TIP3    H152541   0.170   5.667   0.369  0.2158 -0.2721 -0.5632
10350TIP3    H252542   0.296   5.587   0.397  0.2640  0.0116  0.0364
10351TIP3   OH252543   3.913   0.039  11.000 -0.1300 -0.5446 -0.3993
10351TIP3    H152544   3.927  -0.056  10.994  1.0120 -0.2956 -3.1232
10351TIP3    H252545   3.978   0.077  10.940 -0.3405  2.0005  0.8627
10352TIP3   OH252546   4.434   3.230   0.822  0.1935  0.2102  0.3249
10352TIP3    H152547   4.520   3.272   0.821 -0.4211  1.6657  2.0995
10352TIP3    H252548   4.450   3.143   0.858  1.0552  0.0635 -0.3751
10353TIP3   OH252549   4.960   5.823   0.788 -0.0471  0.3334 -0.2956
10353TIP3    H152550   5.007   5.746   0.757  1.3061  1.0910 -0.2141
10353TIP3    H252551   4.932   5.800   0.877 -0.3464 -0.3389 -0.5572
10354TIP3   OH252552   2.484   3.253  15.174  0.1938 -0.6754  0.3081
10354TIP3    H152553   2.495   3.295  15.089  0.6753  0.7086  1.0191
10354TIP3    H252554   2.560   3.281  15.225 -0.6226 -0.5817  1.5421
10355TIP3   OH252555   6.779   2.625   3.687 -0.2352 -0.3456 -0.1712
10355TIP3    H152556   6.813   2.598   3.602  1.6568  2.5326 -0.4983
10355TIP3    H252557   6.695   2.666   3.668 -0.1653 -0.3724 -0.5358
10356TIP3   OH252558   4.277   4.589   0.823 -0.1274  0.0995  0.3665
10356TIP3    H152559   4.187   4.569   0.848  0.0123  0.1526  0.9280
10356TIP3    H252560   4.330   4.528   0.874  0.1485 -0.0415 -0.0845
10357TIP3   OH252561   3.479   1.541  11.544 -0.4996 -0.2954 -0.0723
10357TIP3    H152562   3.540   1.612  11.526  0.5148 -1.3102 -0.8091
10357TIP3    H252563   3.393   1.583  11.549  0.1423  1.0473  0.1252
10358TIP3   OH252564   4.055   6.438   5.271 -0.4232  0.0285 -0.3275
10358TIP3    H152565   3.995   6.429   5.345 -0.8786  0.5032 -0.6243
10358TIP3    H252566   4.017   6.508   5.218  0.0059 -0.1598 -0.9020
10359TIP3   OH252567   0.144   4.999   0.396 -0.1186 -0.6538  0.3509
10359TIP3    H152568   0.114   4.971   0.483 -0.3092 -1.8441 -0.0705
10359TIP3    H252569   0.103   4.936   0.336 -0.4420  0.4986 -0.6562
10360TIP3   OH252570   0.645   6.713   0.465  0.0139 -0.0112 -0.6114
10360TIP3    H152571   0.616   6.699   0.555  2.2971 -1.4459 -0.0106
10360TIP3    H252572   0.611   6.638   0.416  0.0866 -0.0513 -0.6005
10361TIP3   OH252573   2.695   2.955  12.087  0.1917 -0.5808 -0.4618
10361TIP3    H152574   2.633   2.988  12.153 -0.0531 -1.9367  0.0417
10361TIP3    H252575   2.642   2.943  12.008  0.5462  1.3162 -1.0236
10362TIP3   OH252576   5.527   3.341  14.223  0.2635 -0.0704  0.6771
10362TIP3    H152577   5.471   3.417  14.212 -0.1038 -0.2211  1.5047
10362TIP3    H252578   5.571   3.354  14.306 -0.0928 -0.9445  1.0192
10363TIP3   OH252579   5.522   3.983   1.944 -0.2302  0.1607  0.3270
10363TIP3    H152580   5.451   3.979   2.008 -1.0404 -0.4380 -0.5786
10363TIP3    H252581   5.568   4.065   1.964 -0.8245  0.2810  1.2813
10364TIP3   OH252582   0.589   6.230  16.163 -0.6061 -0.1327  0.1760
10364TIP3    H152583   0.651   6.266  16.226  0.0843 -1.4733  0.3183
10364TIP3    H252584   0.503   6.261  16.192 -0.1171  0.8210  0.6417
10365TIP3   OH252585   2.474   0.201  16.285 -0.4563  0.1105  0.3683
10365TIP3    H152586   2.445   0.237  16.200 -2.8254 -0.9449  0.6566
10365TIP3    H252587   2.502   0.112  16.265 -0.8131 -0.0659  0.6424
10366TIP3   OH252588   2.403   0.431  12.427  0.0246  0.3503 -0.1558
10366TIP3    H152589   2.438   0.456  12.513  0.0285  0.0762 -0.0755
10366TIP3    H252590   2.464   0.470  12.364  0.8310 -0.6411 -0.0099
10367TIP3   OH252591   2.722   2.011   1.999 -0.0033  0.0158 -0.3544
10367TIP3    H152592   2.759   2.065   2.069 -0.4733 -0.3319  0.1628
10367TIP3    H252593   2.799   1.981   1.949  0.2484  1.5823 -0.9816
10368TIP3   OH252594   2.865   3.608  14.735  0.5028 -0.8626  0.2014
10368TIP3    H152595   2.821   3.614  14.820  0.5292  0.2383  0.1514
10368TIP3    H252596   2.916   3.689  14.729  0.3144 -0.8139 -0.9626
10369TIP3   OH252597   1.521   4.176   5.522 -0.4386 -0.3082  0.6168
10369TIP3    H152598   1.447   4.133   5.564 -0.3755 -0.5712  0.4640
10369TIP3    H252599   1.560   4.108   5.466 -0.1531 -0.1404  0.6084
10370TIP3   OH252600   3.754   3.334   1.722 -0.0101  0.6740 -0.3645
10370TIP3    H152601   3.840   3.295   1.702  0.7290  1.1717  1.6596
10370TIP3    H252602   3.773   3.426   1.738 -1.2101  1.1458 -1.5226
10371TIP3   OH252603   3.632   3.679   4.498  0.2343 -0.9250  0.1565
10371TIP3    H152604   3.573   3.697   4.571  0.2587 -0.9836  0.1898
10371TIP3    H252605   3.613   3.588   4.474 -0.3673 -0.6531 -0.4418
10372TIP3   OH252606   3.927   3.472   5.257 -0.3801  0.2397 -0.7137
10372TIP3    H152607   4.005   3.473   5.312  0.4218  1.4148 -1.8421
10372TIP3    H252608   3.895   3.381   5.262  1.5981 -0.5068 -1.0176
10373TIP3   OH252609   2.191   6.414  13.357  0.7647  0.0966 -0.2249
10373TIP3    H152610   2.213   6.435  13.267  0.5849  1.3652  0.0128
10373TIP3    H252611   2.172   6.499  13.398  0.4580 -0.4931  0.8970
10374TIP3   OH252612   0.692   5.308   2.747 -0.2011  0.1771  0.1115
10374TIP3    H152613   0.736   5.225   2.767 -0.8084  0.3548  2.5000
10374TIP3    H252614   0.650   5.333   2.829 -4.4226  0.2513 -1.8191
10375TIP3   OH252615   1.666   4.400  13.643 -0.3590 -0.2422 -0.2717
10375TIP3    H152616   1.751   4.419  13.682 -0.5156 -1.5055  0.7602
10375TIP3    H252617   1.608   4.383  13.718 -2.6231  4.4015 -0.6285
10376TIP3   OH252618   6.612   5.405  13.619 -0.3753 -0.2180  0.2387
10376TIP3    H152619   6.578   5.482  13.574 -0.3528 -0.9961 -1.1615
10376TIP3    H252620   6.705   5.424  13.632 -0.5784  0.4118  0.8564
10377TIP3   OH252621   1.741   3.951   3.356 -0.4891  0.6703  0.1298
10377TIP3    H152622   1.721   4.011   3.427 -0.5107  1.5610 -0.6163
10377TIP3    H252623   1.830   3.973   3.329 -0.3984  0.1915  0.0197
10378TIP3   OH252624   4.706   2.381  14.020  0.1947  0.9335 -0.6215
10378TIP3    H152625   4.637   2.315  14.021 -1.0320  2.1651 -1.0317
10378TIP3    H252626   4.752   2.368  13.937 -0.6611  1.1999 -1.1440
10379TIP3   OH252627   1.623   0.973  11.959  0.2208 -0.3299 -0.4973
10379TIP3    H152628   1.716   0.977  11.980  0.2770 -1.5907 -0.4387
10379TIP3    H252629   1.620   0.942  11.868 -0.1349  0.3094 -0.7121
10380TIP3   OH252630   1.673   0.361   4.287 -0.1747 -0.3375  0.7358
10380TIP3    H152631   1.578   0.348   4.289 -0.1634 -0.4123  1.6677
10380TIP3    H252632   1.689   0.415   4.210 -0.8900 -0.9065  0.1696
10381TIP3   OH252633   6.408   2.930   1.097 -0.4962 -0.1546 -0.1231
10381TIP3    H152634   6.388   2.917   1.004 -1.0217 -0.4975  0.0301
10381TIP3    H252635   6.471   3.001   1.099  2.6771 -2.7045 -1.0503
10382TIP3   OH252636   5.820   5.168   1.562  0.3524  0.0981  0.5060
10382TIP3    H152637   5.902   5.202   1.528 -1.1351  2.5481 -0.9903
10382TIP3    H252638   5.763   5.162   1.485 -1.3265 -0.0459  1.6926
10383TIP3   OH252639   1.517   1.725  15.057  0.1554 -0.4324 -0.1266
10383TIP3    H152640   1.431   1.764  15.040  0.7281  0.2799 -1.5532
10383TIP3    H252641   1.541   1.754  15.145 -0.6463  0.1409 -0.0923
10384TIP3   OH252642   6.708   1.339   5.701  0.3503 -0.0272 -0.2508
10384TIP3    H152643   6.687   1.430   5.719 -1.0201 -0.6622  1.6892
10384TIP3    H252644   6.656   1.318   5.623  0.0129  0.6030 -0.2014
10385TIP3   OH252645   5.338   2.452  12.433  0.2157  0.3646  0.1856
10385TIP3    H152646   5.256   2.412  12.462  0.6550 -0.7767 -0.0927
10385TIP3    H252647   5.323   2.546  12.442 -1.3194  0.2039 -0.3697
10386TIP3   OH252648   2.899   0.388   2.829  0.4056 -0.4344  0.1124
10386TIP3    H152649   2.949   0.454   2.782  0.6386 -2.8399 -3.4269
10386TIP3    H252650   2.959   0.313   2.837 -0.7059 -1.2492  1.4509
10387TIP3   OH252651   2.378   6.731   5.702  0.0481  0.2284 -0.4425
10387TIP3    H152652   2.457   6.690   5.738  0.6044  0.2992 -1.5468
10387TIP3    H252653   2.316   6.658   5.694  0.8186 -0.3344 -1.7965
10388TIP3   OH252654   4.383   0.003   0.669 -0.5131 -0.3229 -0.0913
10388TIP3    H152655   4.436  -0.015   0.748  0.0737 -0.8633 -0.5870
10388TIP3    H252656   4.385   0.098   0.660  2.4532 -0.3750 -1.4167
10389TIP3   OH252657   4.651   0.017   5.285 -0.2958  0.1728  0.7129
10389TIP3    H152658   4.605  -0.060   5.250  1.2758 -0.6477  0.3122
10389TIP3    H252659   4.719   0.035   5.219 -0.5455  1.8233  0.8834
10390TIP3   OH252660   2.328   6.815  12.799  0.3184 -0.0111 -0.2983
10390TIP3    H152661   2.244   6.782  12.829  0.5906 -0.1453  0.3375
10390TIP3    H252662   2.387   6.802  12.873  0.8708  0.1935 -0.6903
10391TIP3   OH252663   0.336   4.344  13.168 -0.2794  0.4791  0.1648
10391TIP3    H152664   0.421   4.385  13.183 -1.1201  2.1350  0.7048
10391TIP3    H252665   0.303   4.324  13.256 -1.1592  1.4269  0.0656
10392TIP3   OH252666   5.408   5.036  13.732  0.1594 -0.3682  0.2051
10392TIP3    H152667   5.397   5.070  13.643 -1.1307 -1.9071 -0.2607
10392TIP3    H252668   5.443   4.948  13.720  0.7713 -0.2869  1.2746
10393TIP3   OH252669   0.769   4.159  12.185 -0.3673  0.3788  0.3334
10393TIP3    H152670   0.738   4.245  12.157  0.3327  0.1989 -1.0708
10393TIP3    H252671   0.863   4.169  12.194 -0.3885 -0.0144  1.0478
10394TIP3   OH252672   3.096   5.737   2.133  0.1970 -0.0036  0.3166
10394TIP3    H152673   3.062   5.648   2.128 -2.7739  0.7138  3.4987
10394TIP3    H252674   3.174   5.731   2.187  1.0524 -0.7968 -0.9492
10395TIP3   OH252675   0.763   5.681  12.691 -0.2691 -0.0796  0.5902
10395TIP3    H152676   0.753   5.623  12.616  0.0113  1.9744 -1.1586
10395TIP3    H252677   0.676   5.685  12.730 -1.1374  0.8512 -1.2921
10396TIP3   OH252678   0.507   3.199  12.992 -0.3781 -0.2933 -0.3613
10396TIP3    H152679   0.591   3.234  12.961 -0.9784 -0.6691 -2.6288
10396TIP3    H252680   0.532   3.126  13.048  0.8195  0.2547 -0.1358
10397TIP3   OH252681   6.045   2.122  11.062 -0.3139 -0.1048  0.0612
10397TIP3    H152682   6.069   2.199  11.114  0.7845 -0.2294 -0.2226
10397TIP3    H252683   6.082   2.139  10.976 -0.9287 -0.5133 -0.2883
10398TIP3   OH252684   6.537   1.260   1.360  0.6494 -0.0876  0.7982
10398TIP3    H152685   6.564   1.346   1.392 -1.4371  0.9564 -0.0654
10398TIP3    H252686   6.467   1.233   1.419 -1.0863  0.4367 -0.9322
10399TIP3   OH252687   2.031   1.807  13.905  0.1084 -0.4837 -0.0934
10399TIP3    H152688   1.944   1.832  13.872  0.6889  1.8732 -0.0250
10399TIP3    H252689   2.088   1.812  13.828  0.5142 -0.0777  0.2261
10400TIP3   OH252690   6.661   2.936  14.298 -0.3361  0.0500 -0.0011
10400TIP3    H152691   6.591   2.912  14.237  0.7783  0.2008 -1.4029
10400TIP3    H252692   6.739   2.945  14.243  0.4135  1.7087  1.2225
10401TIP3   OH252693   2.650   0.692  13.792 -1.2331 -0.5298  0.9123
10401TIP3    H152694   2.716   0.710  13.859  0.3683 -1.6720 -0.3166
10401TIP3    H252695   2.660   0.764  13.729  0.0871 -1.6196 -0.1726
10402TIP3   OH252696   4.963   5.741  13.302 -0.1935 -0.5510 -0.8748
10402TIP3    H152697   5.056   5.721  13.307 -0.2109 -0.7268 -1.2399
10402TIP3    H252698   4.943   5.782  13.386  0.5831  1.1174 -1.4668
10403TIP3   OH252699   1.778   4.733   5.719  0.1869 -0.5503  0.3531
10403TIP3    H152700   1.767   4.656   5.774 -1.9610  0.1425  0.9772
10403TIP3    H252701   1.793   4.698   5.631  1.1953 -1.6525  0.9447
10404TIP3   OH252702   5.902   1.337  13.112 -0.4146 -0.6562 -0.1615
10404TIP3    H152703   5.874   1.416  13.066  1.7574 -0.1843 -0.7472
10404TIP3    H252704   5.964   1.295  13.052 -2.4084 -3.5160 -0.4240
10405TIP3   OH252705   1.390   0.375  10.958 -0.0264 -0.4785 -0.1285
10405TIP3    H152706   1.338   0.447  10.923  1.0646 -0.2354 -1.3356
10405TIP3    H252707   1.326   0.314  10.994 -1.0283  0.6163  0.0164
10406TIP3   OH252708   2.578   0.352   0.122 -0.0128 -0.0635 -0.2376
10406TIP3    H152709   2.502   0.311   0.079 -0.2027  0.9520 -0.8955
10406TIP3    H252710   2.654   0.316   0.075 -0.0965 -0.7788  0.1610
10407TIP3   OH252711   3.964   2.011   3.251  0.1325  0.5423  0.3270
10407TIP3    H152712   3.898   1.949   3.283  3.0435 -2.7727  0.4480
10407TIP3    H252713   3.942   2.024   3.158 -1.7937  1.1941  0.8276
10408TIP3   OH252714   4.125   2.161   4.384 -0.1859 -0.4902  0.2832
10408TIP3    H152715   4.209   2.136   4.346 -0.2064  2.0967 -1.7710
10408TIP3    H252716   4.133   2.140   4.477  1.5255 -3.1191 -0.3551
10409TIP3   OH252717   4.321   2.405  14.233  0.3162  0.7657  0.6507
10409TIP3    H152718   4.354   2.484  14.190 -0.0253 -0.0931 -1.3186
10409TIP3    H252719   4.291   2.350  14.161 -1.2608 -0.3618  2.0942
10410TIP3   OH252720   5.044   5.756  11.928 -0.0270  0.2126 -0.4371
10410TIP3    H152721   5.004   5.841  11.951  2.4367  1.9546 -2.1000
10410TIP3    H252722   4.991   5.723  11.856 -3.0315 -1.4456  2.2948
10411TIP3   OH252723   0.978   6.763  12.757  0.3901 -0.2584  0.0991
10411TIP3    H152724   0.912   6.776  12.689  3.3278  1.6648 -2.6514
10411TIP3    H252725   0.972   6.841  12.813  0.4092 -0.0349 -0.2109
10412TIP3   OH252726   4.043   1.444  11.455  0.0807 -0.2601 -0.0803
10412TIP3    H152727   4.014   1.366  11.503  0.2357  0.1006  0.6153
10412TIP3    H252728   4.010   1.517  11.507 -0.0134  0.1413 -0.6959
10413TIP3   OH252729   1.550   5.766  14.956  0.2647  0.1265 -0.3406
10413TIP3    H152730   1.555   5.709  14.880  0.9723  0.9126 -0.8965
10413TIP3    H252731   1.534   5.707  15.030  2.0754 -0.9214 -0.7393
10414TIP3   OH252732   2.439   6.300  14.249  0.1095  0.5981  0.2328
10414TIP3    H152733   2.517   6.258  14.211 -0.2784 -0.1046  0.1844
10414TIP3    H252734   2.403   6.352  14.177  0.0187  0.1824 -0.0267
10415TIP3   OH252735   4.123   5.380  13.605 -0.4675 -0.2180  0.4130
10415TIP3    H152736   4.161   5.462  13.576  1.9518 -1.9011 -1.6498
10415TIP3    H252737   4.094   5.338  13.524  0.7423 -2.4492  1.0483
10416TIP3   OH252738   1.384   6.245  14.994 -0.6200  0.1395  0.6149
10416TIP3    H152739   1.420   6.309  14.933  1.1674  0.0630  1.5144
10416TIP3    H252740   1.460   6.194  15.023 -1.6350 -0.7923  1.7820
10417TIP3   OH252741   3.286   4.028  16.022  0.1664  0.1493  0.2047
10417TIP3    H152742   3.353   4.092  16.048 -0.2950  0.1270  1.5450
10417TIP3    H252743   3.309   3.949  16.070 -0.7197  0.0934  0.5475
10418TIP3   OH252744   2.256   1.757   1.442  0.3982  0.4660 -0.5881
10418TIP3    H152745   2.189   1.763   1.511  1.9679  2.0324  0.8929
10418TIP3    H252746   2.270   1.663   1.431 -0.3162  0.1614  0.8322
10419TIP3   OH252747   4.106   2.998   0.219 -0.3031 -0.4653 -0.6564
10419TIP3    H152748   4.032   2.999   0.158  0.0820  0.2137 -1.1275
10419TIP3    H252749   4.119   2.906   0.240 -0.3936 -0.7170 -1.6702
10420TIP3   OH252750   4.464   5.955   4.710 -0.4202  0.2092 -0.3313
10420TIP3    H152751   4.400   6.026   4.701 -1.3856 -0.7849 -1.6377
10420TIP3    H252752   4.415   5.875   4.691  0.9526 -0.6955 -0.2505
10421TIP3   OH252753   3.688   3.326  12.881 -0.3446  0.1484 -0.4562
10421TIP3    H152754   3.626   3.273  12.931 -0.1318 -1.3259 -1.6581
10421TIP3    H252755   3.718   3.393  12.942 -0.5233 -1.2143  1.2097
10422TIP3   OH252756   2.793   3.141  12.428  0.4031  0.3009  0.2641
10422TIP3    H152757   2.824   3.134  12.338 -0.3637 -0.0235  0.0143
10422TIP3    H252758   2.839   3.072  12.476  1.1918  0.8022  0.2366
10423TIP3   OH252759   5.400   6.360   3.684  0.2316 -0.0467  0.2729
10423TIP3    H152760   5.319   6.374   3.636 -0.7320  3.5946  2.5434
10423TIP3    H252761   5.382   6.285   3.740 -1.3382  0.3005  0.2834
10424TIP3   OH252762   1.084   0.764   6.121  0.3715  0.0883 -0.2332
10424TIP3    H152763   1.011   0.774   6.059 -0.2765 -0.4553  0.4194
10424TIP3    H252764   1.046   0.788   6.205  1.2676  0.8943 -0.0482
10425TIP3   OH252765   1.848   1.759   1.314  0.2643 -0.6851 -0.5588
10425TIP3    H152766   1.858   1.716   1.229  1.1711  1.7974 -1.8136
10425TIP3    H252767   1.801   1.840   1.295  0.3461 -0.1463  1.3392
10426TIP3   OH252768   2.656   3.417   1.520 -0.1769 -0.3410  0.4656
10426TIP3    H152769   2.646   3.324   1.536  0.6807 -0.4128  0.6254
10426TIP3    H252770   2.749   3.435   1.536 -0.2778  0.4898  0.1999
10427TIP3   OH252771   1.678   2.013  11.475  0.2170 -0.1631 -0.7356
10427TIP3    H152772   1.683   2.109  11.473 -0.8822 -0.0980 -0.5619
10427TIP3    H252773   1.770   1.985  11.474  0.5568  0.8940 -0.4313
10428TIP3   OH252774   0.015   0.546  11.671 -0.6249 -1.0891 -0.1310
10428TIP3    H152775   0.012   0.562  11.577 -2.1055  0.2163  0.0980
10428TIP3    H252776   0.108   0.531  11.690  0.0590  0.9891 -1.4550
10429TIP3   OH252777   4.604   2.846   0.902 -0.1018 -0.0621 -0.6826
10429TIP3    H152778   4.699   2.860   0.892  0.1156 -1.3666 -0.6822
10429TIP3    H252779   4.590   2.757   0.868 -1.0184 -0.6091  1.0496
10430TIP3   OH252780   3.547   6.533   5.019  0.0048  0.2673 -0.4650
10430TIP3    H152781   3.626   6.572   5.058 -0.3453  0.6730 -0.1510
10430TIP3    H252782   3.572   6.512   4.929  0.0610  1.6969 -0.8095
10431TIP3   OH252783   4.554   2.149   0.982 -0.1426  0.1867 -0.1506
10431TIP3    H152784   4.487   2.217   0.974 -1.0649 -0.7982 -1.1205
10431TIP3    H252785   4.634   2.196   1.004 -0.9694  1.4776  0.1766
10432TIP3   OH252786   3.966   5.505  11.707  0.4348 -0.0811 -0.0706
10432TIP3    H152787   3.892   5.466  11.660 -1.2003 -0.4245  2.5669
10432TIP3    H252788   3.953   5.599  11.699  0.0396 -0.1389 -0.1232
10433TIP3   OH252789   1.697   6.413   3.523 -0.0618  0.0535  0.1318
10433TIP3    H152790   1.776   6.439   3.570 -0.7425  2.6803 -0.0257
10433TIP3    H252791   1.640   6.378   3.591  0.9549 -1.2911  0.3400
10434TIP3   OH252792   0.824   2.203  11.494  0.3964 -0.9279  0.0502
10434TIP3    H152793   0.894   2.176  11.554 -0.6142  0.0342  1.7292
10434TIP3    H252794   0.746   2.208  11.549 -0.2007  1.8741 -0.8959
10435TIP3   OH252795   4.248   0.822  13.679  0.2031 -0.3664 -0.2587
10435TIP3    H152796   4.188   0.747  13.677 -0.7278  0.3647 -0.4110
10435TIP3    H252797   4.218   0.879  13.608  0.8872  0.1640 -0.1375
10436TIP3   OH252798   4.082   3.840   5.364 -0.3514  0.3733  0.3490
10436TIP3    H152799   4.001   3.820   5.317 -0.7917  0.3633  1.0926
10436TIP3    H252800   4.105   3.929   5.335 -0.2318  0.1041 -0.4015
10437TIP3   OH252801   5.322   2.237  17.010  0.2017 -0.1964  0.1822
10437TIP3    H152802   5.370   2.166  16.966  3.1650  1.8052 -0.0897
10437TIP3    H252803   5.247   2.194  17.050  1.1967 -3.2675 -0.9729
10438TIP3   OH252804   6.168   4.991  11.693 -0.1255  0.3725 -0.2790
10438TIP3    H152805   6.137   5.081  11.684  0.5666  0.5649 -0.8643
10438TIP3    H252806   6.154   4.968  11.785 -0.3101  1.0740 -0.1336
10439TIP3   OH252807   4.112   5.970  16.783  0.3417 -0.2492  0.3786
10439TIP3    H152808   4.169   6.044  16.805  0.2806 -0.1142  0.0825
10439TIP3    H252809   4.069   5.948  16.866 -0.7681  1.0242  0.1750
10440TIP3   OH252810   3.582   6.154   2.151 -0.2177  0.1102 -0.6022
10440TIP3    H152811   3.662   6.128   2.196 -0.7635 -2.5739 -0.9719
10440TIP3    H252812   3.603   6.236   2.107  1.5839  0.6611  1.1623
10441TIP3   OH252813   5.735   0.504  11.618 -0.1185  0.2734 -0.1308
10441TIP3    H152814   5.641   0.502  11.634 -0.3167  2.3854 -0.6634
10441TIP3    H252815   5.754   0.596  11.600  1.7388 -0.3688 -1.8798
10442TIP3   OH252816   2.400   1.824   6.238  0.1372  0.5514  0.1000
10442TIP3    H152817   2.340   1.754   6.213  1.1154 -1.4293  2.8662
10442TIP3    H252818   2.372   1.851   6.326  1.7131  1.3882  0.3967
10443TIP3   OH252819   1.074   6.393   5.894  0.6436  0.3307  0.6432
10443TIP3    H152820   1.132   6.435   5.831 -0.2908  0.7112  0.0179
10443TIP3    H252821   1.114   6.412   5.979  1.2992  0.7893  0.2445
10444TIP3   OH252822   4.181   0.001  12.726 -0.0763 -0.2375 -0.5070
10444TIP3    H152823   4.113   0.049  12.681  3.2116  2.4481 -3.1161
10444TIP3    H252824   4.219   0.063  12.788  0.6065 -1.3428  0.2378
10445TIP3   OH252825   4.877   3.833  11.351 -0.3063  0.4677 -0.2570
10445TIP3    H152826   4.948   3.809  11.411  0.3148 -0.7133 -1.4098
10445TIP3    H252827   4.800   3.840  11.407  0.3161 -0.2565  0.7348
10446TIP3   OH252828   5.456   6.112  15.622  0.1854 -0.4465 -0.2013
10446TIP3    H152829   5.396   6.163  15.569 -0.4052 -0.4103  0.4830
10446TIP3    H252830   5.469   6.031  15.573  1.5101  0.5054 -1.5361
10447TIP3   OH252831   4.733   3.193  16.084  0.4502  0.4283 -0.1581
10447TIP3    H152832   4.654   3.141  16.071 -0.1435  1.2751 -0.0367
10447TIP3    H252833   4.701   3.277  16.118  1.4828  0.3890  0.9979
10448TIP3   OH252834   2.068   3.910  17.031 -0.5511  0.3197  0.0905
10448TIP3    H152835   2.023   3.929  16.948 -0.5248 -1.7813 -0.4728
10448TIP3    H252836   2.004   3.934  17.098 -2.5062 -2.2224 -0.6897
10449TIP3   OH252837   2.212   1.728  16.092 -0.1988  0.3175  0.8392
10449TIP3    H152838   2.224   1.636  16.069 -0.4981  0.5100 -0.1126
10449TIP3    H252839   2.297   1.755  16.127 -0.3714 -0.5524  1.9895
10450TIP3   OH252840   6.737   5.752   2.131  0.2096 -0.1343  1.1015
10450TIP3    H152841   6.679   5.676   2.125 -0.4387  0.3452  1.1726
10450TIP3    H252842   6.679   5.825   2.152  0.5290  0.7729 -0.9747
10451TIP3   OH252843   1.867   5.473  13.169  0.0577  0.4004 -0.0542
10451TIP3    H152844   1.852   5.450  13.261  1.0391  2.8952  0.8263
10451TIP3    H252845   1.962   5.473  13.160 -0.0399 -0.2771 -1.2346
10452TIP3   OH252846   4.948   2.853  11.649 -0.3210 -0.2932  0.3070
10452TIP3    H152847   4.952   2.765  11.610 -0.5689 -0.0922 -0.1840
10452TIP3    H252848   4.916   2.838  11.738  1.3081 -0.8719  0.8273
10453TIP3   OH252849   3.955   2.288  10.540 -0.2470 -0.0104  0.2366
10453TIP3    H152850   3.983   2.222  10.603 -2.1180 -3.2605 -2.0720
10453TIP3    H252851   3.864   2.267  10.520 -0.5880  2.5601 -1.5365
10454TIP3   OH252852   6.069   5.218  12.799 -0.6206 -0.4790  0.3789
10454TIP3    H152853   6.002   5.257  12.742 -0.4641  1.1033  1.2153
10454TIP3    H252854   6.047   5.125  12.801 -2.5639 -0.0824  0.2990
10455TIP3   OH252855   2.603   1.614  12.508 -0.1060 -0.2939 -0.8164
10455TIP3    H152856   2.617   1.529  12.467 -0.1924  0.3051 -2.1521
10455TIP3    H252857   2.688   1.637  12.545  0.1842 -0.5246 -1.3224
10456TIP3   OH252858   0.318   0.968  14.857  0.5420  0.1453 -0.8260
10456TIP3    H152859   0.336   1.010  14.941 -0.9629  1.3044 -1.0345
10456TIP3    H252860   0.365   0.885  14.861  1.5311  0.7345  0.6440
10457TIP3   OH252861   4.435   1.073  15.154 -0.6470 -0.0478  0.1842
10457TIP3    H152862   4.421   0.995  15.101 -0.7450 -0.4443  0.7855
10457TIP3    H252863   4.527   1.095  15.142 -0.4202 -0.7271  0.6450
10458TIP3   OH252864   0.449   3.412  11.475  0.4946  0.2440 -0.1774
10458TIP3    H152865   0.525   3.374  11.519 -0.4186 -0.8950  0.4787
10458TIP3    H252866   0.388   3.432  11.546 -0.7110 -0.9391 -0.8243
10459TIP3   OH252867   4.265   5.194   0.708  0.0073 -0.1553  0.2851
10459TIP3    H152868   4.197   5.152   0.760  0.1498 -1.3014 -0.4044
10459TIP3    H252869   4.334   5.217   0.771  0.0602 -1.2635  0.6537
10460TIP3   OH252870   2.967   4.560   6.540  0.0895 -0.3002  0.2637
10460TIP3    H152871   2.928   4.586   6.623 -1.1680 -1.1576 -0.0403
10460TIP3    H252872   2.893   4.549   6.481  0.5883 -3.4223  0.0574
10461TIP3   OH252873   0.448   3.556   0.922  0.2957  0.7054 -0.0127
10461TIP3    H152874   0.353   3.557   0.927  0.2124 -0.4472 -0.8751
10461TIP3    H252875   0.475   3.644   0.949 -0.9048  0.5311  1.9252
10462TIP3   OH252876   4.388   1.110  13.672 -0.1618  0.4347 -0.6325
10462TIP3    H152877   4.408   1.028  13.717 -1.4745  0.5950  0.2846
10462TIP3    H252878   4.441   1.176  13.717  0.2014  0.2447 -0.7777
10463TIP3   OH252879   3.051   0.786   4.580 -0.2920  0.2230  0.1105
10463TIP3    H152880   3.096   0.777   4.496 -1.6465 -0.6211 -0.5546
10463TIP3    H252881   3.117   0.825   4.638  0.8727  0.2277 -1.1559
10464TIP3   OH252882   1.646   5.609  13.057  0.4545 -0.4099 -0.1719
10464TIP3    H152883   1.724   5.567  13.093  1.5394 -0.2941 -2.1906
10464TIP3    H252884   1.676   5.693  13.024 -1.1441  0.8655  1.4453
10465TIP3   OH252885   1.252   5.049  15.469 -0.2990 -0.3653  0.1033
10465TIP3    H152886   1.313   5.000  15.414  0.9612 -1.2266  2.1572
10465TIP3    H252887   1.192   4.982  15.503  0.4718 -0.2729  1.7040
10466TIP3   OH252888   4.771   4.856   0.679 -0.3796  0.7622  0.1333
10466TIP3    H152889   4.810   4.943   0.680  1.1616  0.0943  0.5428
10466TIP3    H252890   4.694   4.865   0.622  0.2078  2.1835 -0.4844
10467TIP3   OH252891   3.898   0.369   0.594  0.5433 -0.2164 -0.7705
10467TIP3    H152892   3.971   0.426   0.620 -0.8659  0.1536  3.0619
10467TIP3    H252893   3.938   0.283   0.583  1.5462 -0.2642  2.3615
10468TIP3   OH252894   1.804   2.326  12.127  0.0726  0.3057  0.5987
10468TIP3    H152895   1.733   2.303  12.187  1.0236 -2.7015  0.7673
10468TIP3    H252896   1.778   2.288  12.043  1.1462 -0.2666  0.5016
10469TIP3   OH252897   3.186   3.252   2.445  0.6794  0.0774  0.3697
10469TIP3    H152898   3.230   3.177   2.404 -0.7680 -0.1855 -0.7606
10469TIP3    H252899   3.144   3.215   2.523  0.5636 -0.1366  0.2055
10470TIP3   OH252900   0.459   2.754   4.429  0.3104  0.0226 -0.2382
10470TIP3    H152901   0.530   2.798   4.383 -1.2761 -0.2413 -3.1767
10470TIP3    H252902   0.463   2.663   4.399  1.4973 -1.2168  3.1876
10471TIP3   OH252903   2.747   1.651  16.635  0.3390 -0.4651 -0.5868
10471TIP3    H152904   2.709   1.626  16.550 -0.6356  0.4995 -0.4563
10471TIP3    H252905   2.810   1.581  16.654 -1.8628 -2.5749 -0.4772
10472TIP3   OH252906   2.222   6.119   3.625 -0.0093  0.0186 -0.2363
10472TIP3    H152907   2.287   6.062   3.584 -0.1821  0.2550 -0.8378
10472TIP3    H252908   2.149   6.120   3.564 -0.5640 -0.2050  0.4193
10473TIP3   OH252909   5.019   4.766   0.750  0.2895 -0.1446  0.2853
10473TIP3    H152910   5.085   4.835   0.747  1.2219 -1.0289 -0.1675
10473TIP3    H252911   4.940   4.807   0.715  1.1439  0.3844 -1.1127
10474TIP3   OH252912   0.365   1.084   6.390 -0.0845  0.3006 -0.5329
10474TIP3    H152913   0.451   1.124   6.375 -0.4949  1.2391 -0.4408
10474TIP3    H252914   0.341   1.113   6.478 -0.4569 -0.0299 -0.5271
10475TIP3   OH252915   3.825   6.839  14.093 -0.7631  0.0927 -0.4818
10475TIP3    H152916   3.732   6.845  14.072 -0.7813 -1.5329 -1.0347
10475TIP3    H252917   3.864   6.791  14.020  0.6210  1.1875 -0.5053
10476TIP3   OH252918   5.745   3.659   5.075 -0.1370  0.1358 -0.0326
10476TIP3    H152919   5.725   3.614   5.156  0.1774  2.7695  1.6392
10476TIP3    H252920   5.665   3.708   5.055  0.5845  1.3942  0.0665
10477TIP3   OH252921   0.282   0.074  16.333  0.6136 -0.5357  0.0840
10477TIP3    H152922   0.367   0.083  16.290  1.0058 -0.3976  0.8731
10477TIP3    H252923   0.258   0.164  16.356  0.5731 -0.6399  0.4561
10478TIP3   OH252924   3.951   1.450  12.400 -0.2496  0.5812  0.0585
10478TIP3    H152925   3.870   1.434  12.350 -0.9402  1.1603  0.9540
10478TIP3    H252926   3.922   1.452  12.491  0.5872  1.9158  0.3204
10479TIP3   OH252927   6.832   1.876  12.028  0.7126 -0.3222  0.7465
10479TIP3    H152928   6.769   1.842  11.964  2.4693 -0.8452 -0.8002
10479TIP3    H252929   6.801   1.964  12.049 -0.5062 -0.5584 -0.0086
10480TIP3   OH252930   5.008   1.974   3.872  0.3880 -0.3964 -0.8271
10480TIP3    H152931   5.037   2.065   3.879 -0.7629 -0.1289  0.9668
10480TIP3    H252932   5.081   1.923   3.907  0.8878 -0.1404 -1.4868
10481TIP3   OH252933   3.556   6.107  13.137 -0.7531 -0.1971  0.8018
10481TIP3    H152934   3.472   6.107  13.092 -1.2187 -0.3214  1.6624
10481TIP3    H252935   3.601   6.028  13.104 -1.6278 -1.0197  1.5344
10482TIP3   OH252936   1.353   5.393   4.940  0.1691 -0.6087  0.0371
10482TIP3    H152937   1.409   5.360   4.870 -0.7599 -0.1269 -0.9709
10482TIP3    H252938   1.276   5.337   4.937 -0.2715 -0.0148  0.0547
10483TIP3   OH252939   4.608   3.812  13.495 -0.1136 -0.3162 -0.2712
10483TIP3    H152940   4.597   3.824  13.589  0.4389  0.1458 -0.2629
10483TIP3    H252941   4.579   3.894  13.456 -3.4269 -1.5533 -0.7750
10484TIP3   OH252942   5.188   2.651   5.461  0.2079 -0.3881 -0.4432
10484TIP3    H152943   5.124   2.643   5.390 -0.7280 -0.6189  0.4058
10484TIP3    H252944   5.266   2.687   5.419 -0.4911 -0.0502 -1.4896
10485TIP3   OH252945   5.791   1.015   3.533  0.0730  0.4712  0.2257
10485TIP3    H152946   5.705   1.033   3.496 -0.4141  0.1951  1.1966
10485TIP3    H252947   5.852   1.061   3.475 -0.7881  1.3171 -0.0327
10486TIP3   OH252948   5.475   1.618  13.870  0.2802  0.5490 -0.6801
10486TIP3    H152949   5.475   1.530  13.908  1.4126  0.6806 -0.3379
10486TIP3    H252950   5.507   1.606  13.781 -1.9889  0.2973 -1.5437
10487TIP3   OH252951   0.014   3.028   3.842 -0.1202  0.0380 -0.7327
10487TIP3    H152952  -0.018   3.095   3.903 -1.6787 -1.0825 -0.2420
10487TIP3    H252953  -0.061   2.970   3.829  1.1321 -1.5303 -1.2711
10488TIP3   OH252954   0.946   5.104  14.231  0.0628  0.0912  0.0350
10488TIP3    H152955   0.918   5.161  14.159  0.8788 -1.1834 -1.3470
10488TIP3    H252956   0.869   5.052  14.252 -0.9362  2.0970  1.8331
10489TIP3   OH252957   2.718   0.309   5.010  0.1118  0.1580  0.4880
10489TIP3    H152958   2.630   0.290   5.043 -0.2875  0.9364 -0.0965
10489TIP3    H252959   2.711   0.292   4.916  0.8506 -0.6711  0.5665
10490TIP3   OH252960   4.236   1.664  14.907  0.1364 -0.8988 -0.6804
10490TIP3    H152961   4.239   1.756  14.882  0.4639 -0.6816  0.1338
10490TIP3    H252962   4.143   1.645  14.919  0.1724 -0.1151  1.1186
10491TIP3   OH252963   5.393   1.508  11.870 -0.6072  0.4425  0.0393
10491TIP3    H152964   5.401   1.476  11.960 -0.4304  1.2805  0.3219
10491TIP3    H252965   5.438   1.592  11.870  1.9681 -0.8257 -1.5379
10492TIP3   OH252966   4.164   5.286   0.201 -0.8263 -0.2311 -0.1557
10492TIP3    H152967   4.069   5.284   0.187 -1.2813 -1.2025  2.5635
10492TIP3    H252968   4.175   5.273   0.295  2.0990 -2.9148 -0.7136
10493TIP3   OH252969   6.371   5.531   2.878 -0.1781  0.2149 -0.2626
10493TIP3    H152970   6.351   5.623   2.860  1.1023  0.4501 -0.5915
10493TIP3    H252971   6.376   5.526   2.974  0.4805  0.6747 -0.2596
10494TIP3   OH252972   6.279   5.284  14.743 -0.0142  0.8532  0.6140
10494TIP3    H152973   6.185   5.269  14.755  0.0487 -0.4932 -0.3231
10494TIP3    H252974   6.317   5.263  14.828 -0.5230  0.9508  0.8696
10495TIP3   OH252975   0.957   6.044  15.873  0.3981 -0.0168  0.0627
10495TIP3    H152976   1.046   6.066  15.902 -0.1316  1.8932  0.3743
10495TIP3    H252977   0.958   5.949  15.861  2.2686 -0.1180  0.7710
10496TIP3   OH252978   3.222   0.673  15.254 -0.4896 -0.0573 -0.2049
10496TIP3    H152979   3.267   0.661  15.338  1.2788 -1.1340 -1.2295
10496TIP3    H252980   3.220   0.768  15.242  1.1501  0.0464  0.1132
10497TIP3   OH252981   0.846   1.912  15.857  0.5416  0.2918 -0.0202
10497TIP3    H152982   0.800   1.944  15.780  1.0251  0.1007 -0.3940
10497TIP3    H252983   0.880   1.826  15.831  0.3579  0.0415  0.5429
10498TIP3   OH252984   1.263   1.111  13.410 -0.4455 -0.1293  0.1274
10498TIP3    H152985   1.170   1.114  13.434 -0.8147 -1.8506 -0.8843
10498TIP3    H252986   1.266   1.144  13.320  0.4997  3.3563  1.2703
10499TIP3   OH252987   1.809   6.304  15.544  0.3229 -0.5849 -0.6145
10499TIP3    H152988   1.831   6.362  15.471  1.4101 -0.4701 -0.2024
10499TIP3    H252989   1.887   6.303  15.599 -0.5461 -0.5250  0.6538
10500TIP3   OH252990   2.364   2.295   5.562 -0.2577  0.4935 -0.5591
10500TIP3    H152991   2.394   2.268   5.475  0.0696 -0.1176 -0.2564
10500TIP3    H252992   2.440   2.339   5.601 -0.1504  0.0590 -0.2756
10501TIP3   OH252993   0.601   3.120  16.768  0.2555 -0.1570 -0.3132
10501TIP3    H152994   0.658   3.066  16.821  0.8453  0.5455 -0.2110
10501TIP3    H252995   0.573   3.063  16.696  0.5723 -0.6947 -0.0155
10502TIP3   OH252996   2.039   6.223   2.907  0.0681 -0.2004  0.1679
10502TIP3    H152997   2.091   6.143   2.921 -1.6069 -1.0921  1.7014
10502TIP3    H252998   2.094   6.293   2.941  0.3865 -1.1083  1.6389
10503TIP3   OH252999   0.823   0.888   4.134  0.3682 -0.2501  0.3970
10503TIP3    H153000   0.813   0.836   4.214 -2.7063 -0.0634  0.2583
10503TIP3    H253001   0.829   0.978   4.165 -3.5220  0.1350  0.5508
10504TIP3   OH253002   3.744   1.473   5.641  0.1667 -0.1874  0.2364
10504TIP3    H153003   3.651   1.482   5.621  0.2799  0.3002 -0.0745
10504TIP3    H253004   3.749   1.392   5.692 -0.2106 -1.1922 -1.2512
10505TIP3   OH253005   0.919   4.909  12.611  0.0113 -0.1344 -0.0364
10505TIP3    H153006   0.929   5.004  12.610 -0.1016 -0.0999  1.0896
10505TIP3    H253007   0.896   4.886  12.520 -0.1218  0.9214 -0.2794
10506TIP3   OH253008   5.621   5.886   4.284  0.1449  1.0174  0.2527
10506TIP3    H153009   5.662   5.889   4.370  0.8701 -1.5290  0.0772
10506TIP3    H253010   5.665   5.955   4.234  0.8799  1.4236  1.4318
10507TIP3   OH253011   3.193   3.533   1.568 -0.4770  0.0727 -0.4409
10507TIP3    H153012   3.147   3.616   1.569 -2.2704 -0.8254 -1.8689
10507TIP3    H253013   3.153   3.482   1.639  0.6944  0.4298  0.5079
10508TIP3   OH253014   2.945   3.346  17.003 -0.0388  0.0101 -0.5298
10508TIP3    H153015   2.909   3.286  17.068 -2.9953  0.8034 -1.2706
10508TIP3    H253016   2.986   3.416  17.055  0.0998 -0.7409  0.3968
10509TIP3   OH253017   4.722   4.067  14.998 -0.1035  0.3733  0.1050
10509TIP3    H153018   4.732   3.991  15.056  0.8064  1.0019  0.8114
10509TIP3    H253019   4.725   4.030  14.910  0.5735 -0.3954  0.4302
10510TIP3   OH253020   0.773   6.200   1.829 -0.1365  0.4473 -0.3558
10510TIP3    H153021   0.709   6.151   1.778  0.4154 -1.0227  0.3280
10510TIP3    H253022   0.841   6.225   1.766 -1.1348  1.6383 -0.9937
10511TIP3   OH253023   5.524   1.016  12.383  0.2067  0.6361  0.3504
10511TIP3    H153024   5.436   0.988  12.409  0.4314 -0.6103 -0.1584
10511TIP3    H253025   5.513   1.052  12.294  0.5236 -1.5697 -0.6373
10512TIP3   OH253026   1.910   0.800   5.085 -0.0601  0.1504  0.3708
10512TIP3    H153027   1.853   0.860   5.134  1.1074  1.4631  0.1636
10512TIP3    H253028   1.993   0.801   5.133  0.8212  0.7856 -1.1208
10513TIP3   OH253029   0.863   5.344  11.205  0.0356  0.5111 -0.1473
10513TIP3    H153030   0.792   5.402  11.180  0.9931  1.0909 -1.6634
10513TIP3    H253031   0.823   5.257  11.209 -1.1263  1.0827  0.8408
10514TIP3   OH253032   0.929   4.916   5.986  0.3573  0.3660  0.6946
10514TIP3    H153033   0.837   4.908   5.961  0.4407 -0.5826  0.6595
10514TIP3    H253034   0.961   4.991   5.935  0.2504 -0.8525 -1.2869
10515TIP3   OH253035   0.115   2.684   3.233  0.0892  0.1695 -0.7984
10515TIP3    H153036   0.051   2.624   3.196 -0.0900 -0.2685  0.2113
10515TIP3    H253037   0.199   2.639   3.221 -0.2685 -1.7431  2.5640
10516TIP3   OH253038   1.187   5.016   5.736  0.5238  0.3088  0.0726
10516TIP3    H153039   1.098   5.024   5.770 -0.5510 -1.1347 -2.1116
10516TIP3    H253040   1.187   5.069   5.656  1.9488  1.0020  0.4820
10517TIP3   OH253041   3.574   0.823  14.609 -0.1937  0.3731  0.1682
10517TIP3    H153042   3.666   0.850  14.605  0.0780 -0.5244  0.3151
10517TIP3    H253043   3.572   0.735  14.571 -0.7279 -0.2816  1.6550
10518TIP3   OH253044   3.211   3.720   1.051 -0.6461  0.8126  0.1585
10518TIP3    H153045   3.238   3.786   0.987  0.8277 -0.0697 -0.1703
10518TIP3    H253046   3.285   3.711   1.110 -1.7339  1.1370  1.6418
10519TIP3   OH253047   3.368   1.324  11.425  0.6736 -0.4790 -0.3141
10519TIP3    H153048   3.396   1.246  11.472  0.3341 -0.4836 -0.1150
10519TIP3    H253049   3.370   1.393  11.492 -3.8965 -1.2448  0.9500
10520TIP3   OH253050   4.477   3.823  12.032 -0.3484  0.1511  0.4901
10520TIP3    H153051   4.540   3.775  12.086 -0.6536 -1.7347 -0.7369
10520TIP3    H253052   4.409   3.759  12.013 -0.7214  1.0349 -1.3284
10521TIP3   OH253053   5.984   1.122  12.059 -0.0120 -0.6250  0.3307
10521TIP3    H153054   6.070   1.093  12.030  0.2412  0.7888 -0.4367
10521TIP3    H253055   5.982   1.215  12.038 -2.4522 -1.0019 -1.4821
10522TIP3   OH253056   5.233   2.952   4.472  0.3083 -0.2416 -0.6694
10522TIP3    H153057   5.231   2.908   4.387 -0.0958  1.5052 -1.6103
10522TIP3    H253058   5.225   3.045   4.451  1.1727  0.3157  1.2298
10523TIP3   OH253059   4.607   0.858  16.173  0.0181 -0.2119  0.3505
10523TIP3    H153060   4.549   0.828  16.103  1.2422 -0.3487 -0.6266
10523TIP3    H253061   4.694   0.828  16.148  0.4335 -0.6099  2.1463
10524TIP3   OH253062   2.672   1.097   3.635  0.5447 -0.3500 -0.1924
10524TIP3    H153063   2.645   1.033   3.701  0.7419 -0.4770 -0.2328
10524TIP3    H253064   2.654   1.182   3.675 -1.4744 -0.4141 -0.8725
10525TIP3   OH253065   5.462   0.595  12.384 -0.2888  0.4127  0.1506
10525TIP3    H153066   5.547   0.552  12.377  0.0579  1.2470 -0.8869
10525TIP3    H253067   5.458   0.655  12.310 -1.6003  0.7195  0.4332
10526TIP3   OH253068   5.417   4.032   5.589 -0.2213  0.2266  0.0691
10526TIP3    H153069   5.386   3.978   5.515  0.8512 -2.2491  1.3001
10526TIP3    H253070   5.348   4.097   5.601 -0.6800  0.3793 -2.7460
10527TIP3   OH253071   1.967   6.382   4.556  0.3560 -0.1884 -0.0502
10527TIP3    H153072   2.040   6.430   4.596 -1.2710  1.6988  0.7917
10527TIP3    H253073   1.958   6.303   4.610 -0.4589  1.3122  2.1507
10528TIP3   OH253074   5.407   2.020  14.112  0.1478 -0.3507  0.3288
10528TIP3    H153075   5.312   2.032  14.111  0.1375 -0.3391  1.0430
10528TIP3    H253076   5.442   2.105  14.084 -0.0570 -0.5137 -0.4448
10529TIP3   OH253077   2.031   5.938   0.893 -0.3394 -0.0508  0.1195
10529TIP3    H153078   2.035   5.932   0.798 -0.1951  1.2311  0.0307
10529TIP3    H253079   2.053   6.029   0.913 -0.9073 -0.1563  1.3514
10530TIP3   OH253080   1.305   6.050   0.973 -0.1430 -0.0048 -0.3415
10530TIP3    H153081   1.310   6.120   0.907 -1.0368 -0.2766 -0.7123
10530TIP3    H253082   1.393   6.013   0.975 -0.0374  0.1608 -1.2353
10531TIP3   OH253083   4.652   6.451  12.364  0.2875 -0.0691  0.2360
10531TIP3    H153084   4.594   6.378  12.387  2.0290 -1.7647 -0.5133
10531TIP3    H253085   4.712   6.458  12.438  0.5632  0.1508 -0.0071
10532TIP3   OH253086   1.355   0.242  13.273  0.1028 -0.2898  0.5023
10532TIP3    H153087   1.304   0.178  13.224  0.0296 -1.1021  1.5993
10532TIP3    H253088   1.372   0.200  13.357  1.9116  0.2620  0.4634
10533TIP3   OH253089   2.048   2.328   3.906 -0.3021 -0.3225 -0.1834
10533TIP3    H153090   2.065   2.259   3.970  0.2443 -0.2706 -0.2651
10533TIP3    H253091   1.971   2.374   3.939  0.1476 -0.1100  0.5955
10534TIP3   OH253092   6.754   5.356  11.309  0.2590  0.2083  0.2727
10534TIP3    H153093   6.756   5.450  11.291 -0.8610  0.6291  2.0291
10534TIP3    H253094   6.833   5.340  11.361  0.1391  0.3020  0.4846
10535TIP3   OH253095   6.249   0.356   3.399 -1.2471  1.1960  0.6546
10535TIP3    H153096   6.153   0.359   3.396 -1.3397 -0.1719 -2.7221
10535TIP3    H253097   6.269   0.265   3.423 -0.9207  0.7542 -1.1505
10536TIP3   OH253098   2.065   3.294  10.688 -0.0201  0.5769 -0.0403
10536TIP3    H153099   2.050   3.388  10.700 -0.8055  0.2781  1.7317
10536TIP3    H253100   1.985   3.253  10.722 -0.7394 -0.7017 -3.0007
10537TIP3   OH253101   0.963   6.069   0.462 -0.1244  0.1710  0.4593
10537TIP3    H153102   0.938   6.152   0.421 -0.5718  0.3109  0.9869
10537TIP3    H253103   0.900   6.005   0.428  0.9363 -0.2059 -0.8352
10538TIP3   OH253104   6.323   3.032   3.581 -0.0084 -0.1374  0.1626
10538TIP3    H153105   6.258   2.970   3.546 -1.4740  0.3815  1.8134
10538TIP3    H253106   6.379   3.053   3.506 -0.4952 -2.1578 -0.8368
10539TIP3   OH253107   1.243   6.126   4.717 -0.3650 -0.3650 -0.1011
10539TIP3    H153108   1.296   6.075   4.655  0.0166  1.6677 -1.5267
10539TIP3    H253109   1.296   6.128   4.796 -0.0861 -1.5858 -0.2217
10540TIP3   OH253110   2.314   1.095  12.520 -0.0883 -0.4781 -0.2025
10540TIP3    H153111   2.322   1.004  12.490 -0.3746 -0.5835  0.0469
10540TIP3    H253112   2.317   1.090  12.615  0.3396 -0.1818 -0.1936
10541TIP3   OH253113   0.121   5.026  17.079 -0.0957  0.1063 -0.4501
10541TIP3    H153114   0.075   5.098  17.037  0.6621  0.3525 -0.8870
10541TIP3    H253115   0.158   5.064  17.158 -1.1232 -0.2404  0.2142
10542TIP3   OH253116   5.439   5.139  10.723 -0.4804  0.1454  0.5935
10542TIP3    H153117   5.363   5.197  10.720  0.5856  1.5498 -0.8611
10542TIP3    H253118   5.459   5.121  10.631  1.9338  1.1863  0.8663
10543TIP3   OH253119   3.236   6.622   0.556  0.2149 -0.3667 -0.1235
10543TIP3    H153120   3.276   6.607   0.470  1.1487 -1.1967  0.4342
10543TIP3    H253121   3.308   6.655   0.610  0.3995 -2.5950  1.1119
10544TIP3   OH253122   0.993   4.757  13.858  0.5650  0.3728  0.6566
10544TIP3    H153123   1.013   4.850  13.860 -0.1747  0.5733 -0.4337
10544TIP3    H253124   0.913   4.749  13.911  1.6393  0.0529  2.3064
10545TIP3   OH253125   1.731   6.627  14.926 -0.0118  0.3968  0.5641
10545TIP3    H153126   1.661   6.689  14.904  0.5011  0.4847 -0.9556
10545TIP3    H253127   1.741   6.635  15.021 -0.8671  1.6622  0.5746
10546TIP3   OH253128   3.540   5.403  14.776  0.0716  0.1032  0.0926
10546TIP3    H153129   3.604   5.475  14.781  0.8726 -0.5962  0.1722
10546TIP3    H253130   3.503   5.398  14.864 -1.9521  2.1183 -0.5428
10547TIP3   OH253131   1.179   6.521   5.146 -0.2268  0.6019  0.0079
10547TIP3    H153132   1.201   6.613   5.137 -0.9571  0.7185 -0.6989
10547TIP3    H253133   1.131   6.515   5.228  1.0268  0.5991  0.7749
10548TIP3   OH253134   3.904   0.066   1.839 -0.1131 -0.4936 -0.0217
10548TIP3    H153135   3.879   0.146   1.795 -2.3126 -0.5237  1.0482
10548TIP3    H253136   3.954   0.095   1.915 -0.1905 -0.1814 -0.0896
10549TIP3   OH253137   0.742   2.098   0.950 -0.6026  0.5519  0.0023
10549TIP3    H153138   0.799   2.025   0.974  0.1297  0.2768 -2.2589
10549TIP3    H253139   0.662   2.084   0.999 -0.0663 -1.1594  0.4488
10550TIP3   OH253140   4.937   0.675   1.588 -0.4163  0.3522 -0.4457
10550TIP3    H153141   4.968   0.704   1.674 -0.9420  0.9532 -0.4516
10550TIP3    H253142   4.842   0.670   1.598 -0.8827  3.7193 -1.9090
10551TIP3   OH253143   6.200   4.381   2.040 -0.3183  0.6220 -0.1238
10551TIP3    H153144   6.158   4.321   1.979 -2.5545  0.8308  1.1234
10551TIP3    H253145   6.186   4.468   2.002  0.5379  0.5892 -0.5527
10552TIP3   OH253146   5.332   6.199   2.236 -0.2768  0.3421  0.3534
10552TIP3    H153147   5.398   6.230   2.173 -0.7155  2.3564  0.8197
10552TIP3    H253148   5.366   6.227   2.321 -0.7536 -0.4138  0.7938
10553TIP3   OH253149   2.765   4.808  12.373  0.8870 -0.0370  0.6137
10553TIP3    H153150   2.812   4.888  12.395  1.1647 -0.3118  1.0228
10553TIP3    H253151   2.690   4.807  12.432  0.9655 -0.1552  0.7113
10554TIP3   OH253152   5.818   3.671  16.859  0.4083 -0.3174  0.1030
10554TIP3    H153153   5.725   3.684  16.877  0.0948 -0.6237 -1.1666
10554TIP3    H253154   5.841   3.744  16.801  1.1944  0.2548  1.0929
10555TIP3   OH253155   6.836   6.840  16.531  0.4299  0.2663  0.1416
10555TIP3    H153156   6.792   6.924  16.522  2.2043  1.2300 -0.0252
10555TIP3    H253157   6.809   6.789  16.455  0.2904  1.1482 -0.3997
10556TIP3   OH253158   1.866   6.596   2.619 -0.0127 -0.1751 -0.0960
10556TIP3    H153159   1.847   6.539   2.693 -3.0430 -1.8137 -1.9851
10556TIP3    H253160   1.797   6.662   2.621 -0.9959 -1.0593 -2.1682
10557TIP3   OH253161   3.693   2.612   1.691  0.1417  0.1095  0.3001
10557TIP3    H153162   3.637   2.681   1.727 -1.4661 -0.3978 -1.0714
10557TIP3    H253163   3.698   2.547   1.761 -0.1710  0.6222  0.8049
10558TIP3   OH253164   6.653   1.862  15.546  0.3251 -0.5264 -0.1401
10558TIP3    H153165   6.620   1.945  15.512 -2.4307 -1.0619  0.9153
10558TIP3    H253166   6.682   1.882  15.635 -0.1857 -0.6274  0.0554
10559TIP3   OH253167   3.977   4.655   1.666 -0.2995 -0.5647 -0.6286
10559TIP3    H153168   3.999   4.735   1.617 -0.4188  1.1897  1.9855
10559TIP3    H253169   3.881   4.655   1.670 -0.2826  0.5724  1.3628
10560TIP3   OH253170   0.364   4.020  11.734 -0.3947 -0.2288 -0.2573
10560TIP3    H153171   0.334   4.109  11.748  0.5554  0.0571  0.0514
10560TIP3    H253172   0.381   3.986  11.821  0.7573 -0.1592 -0.4425
10561TIP3   OH253173   0.613   6.717  11.598 -0.3174 -0.3556  0.1298
10561TIP3    H153174   0.597   6.635  11.551 -2.3529 -0.7339  1.3966
10561TIP3    H253175   0.664   6.770  11.536  0.0894 -2.1212 -1.1372
10562TIP3   OH253176   1.870   4.646  16.390  0.1361  0.3301 -0.1712
10562TIP3    H153177   1.919   4.610  16.464  0.5353 -0.9127 -1.0258
10562TIP3    H253178   1.778   4.628  16.412  0.3340 -1.6586 -0.7561
10563TIP3   OH253179   5.281   6.532  13.481  0.0792  0.3033  0.1329
10563TIP3    H153180   5.287   6.438  13.469  0.5677  0.5644 -2.0990
10563TIP3    H253181   5.369   6.565  13.460  0.1596  1.2141  1.7121
10564TIP3   OH253182   6.546   3.609   1.209  0.1235 -0.4210 -0.4619
10564TIP3    H153183   6.605   3.680   1.187  1.7550 -1.7716 -0.6395
10564TIP3    H253184   6.474   3.616   1.147 -0.0316  1.3698 -0.1148
10565TIP3   OH253185   2.448   0.724   4.155 -0.2293  0.5950  0.2058
10565TIP3    H153186   2.476   0.633   4.166  1.2667  1.1257  1.2001
10565TIP3    H253187   2.376   0.734   4.217 -3.0531 -0.8641 -2.5625
10566TIP3   OH253188   1.799   1.535   6.003 -0.0064 -0.0400 -0.0153
10566TIP3    H153189   1.879   1.483   6.013 -1.0351 -1.2760  2.5514
10566TIP3    H253190   1.735   1.474   5.968 -0.6503  0.0408  0.9782
10567TIP3   OH253191   1.369   2.023   1.572  0.3445  0.0233  0.1620
10567TIP3    H153192   1.383   1.942   1.523  0.3381  0.8552 -1.2363
10567TIP3    H253193   1.368   1.994   1.664 -0.1024 -1.6138 -0.3160
10568TIP3   OH253194   1.317   6.258   3.967 -0.3213 -0.0775 -0.1187
10568TIP3    H153195   1.354   6.346   3.953  0.1680 -0.3497 -0.5559
10568TIP3    H253196   1.224   6.268   3.945 -0.7590  0.8388  1.8785
10569TIP3   OH253197   5.802   0.286  12.220 -0.4168 -0.1405 -0.0872
10569TIP3    H153198   5.773   0.355  12.280 -1.9222 -0.5268 -0.3197
10569TIP3    H253199   5.846   0.222  12.276  0.5629  0.7692  0.1977
10570TIP3   OH253200   5.651   2.915   5.151 -0.3808  0.5405 -0.3967
10570TIP3    H153201   5.702   2.849   5.103 -0.3531  1.6110 -1.8868
10570TIP3    H253202   5.611   2.865   5.223  0.1948 -0.9625 -1.0633
10571TIP3   OH253203   6.618   5.048   3.596  0.5397 -0.0784 -0.0895
10571TIP3    H153204   6.556   4.986   3.635  1.0536  0.2303  1.2915
10571TIP3    H253205   6.575   5.133   3.602  0.6988 -0.0025  0.0061
10572TIP3   OH253206   6.305   1.138  17.018 -0.3398 -0.6357  0.2041
10572TIP3    H153207   6.332   1.191  17.093 -0.6142 -0.7397  0.3784
10572TIP3    H253208   6.377   1.148  16.955 -1.1440  1.3001 -0.4749
10573TIP3   OH253209   1.923   0.890  16.306  0.2752 -0.4674 -0.5719
10573TIP3    H153210   1.939   0.941  16.226  0.0534  0.2560 -0.1643
10573TIP3    H253211   1.906   0.956  16.373  0.3635 -1.0755  0.0539
10574TIP3   OH253212   4.074   1.425  11.938  0.0286 -0.5943 -0.3874
10574TIP3    H153213   4.019   1.406  11.862  0.4447 -0.5674 -0.7018
10574TIP3    H253214   4.021   1.484  11.992 -0.2311 -0.5290 -0.7098
10575TIP3   OH253215   5.277   2.964  12.848  0.4065 -0.6047 -0.0898
10575TIP3    H153216   5.246   2.952  12.758 -2.0923 -1.1506  0.7720
10575TIP3    H253217   5.260   2.880  12.891 -1.2218  0.5430  1.6332
10576TIP3   OH253218   0.665   2.012   2.644  0.4759  0.0332 -0.0818
10576TIP3    H153219   0.570   2.009   2.629  0.6658 -3.1163 -1.4060
10576TIP3    H253220   0.675   1.985   2.736  0.1044 -0.8444 -0.2841
10577TIP3   OH253221   1.933   1.779  14.400 -0.1405 -0.7741 -0.1857
10577TIP3    H153222   1.948   1.756  14.308 -0.0088  0.2846 -0.4390
10577TIP3    H253223   1.929   1.875  14.401  0.1912 -0.7550  0.9649
10578TIP3   OH253224   3.188   3.022   0.840  0.1622  0.5434  0.2508
10578TIP3    H153225   3.152   2.945   0.795  1.7318 -0.8971  1.3333
10578TIP3    H253226   3.279   3.026   0.812 -0.3370  3.2277 -1.2709
10579TIP3   OH253227   6.131   3.288  11.627  0.2427 -0.2742  0.1039
10579TIP3    H153228   6.121   3.351  11.698 -0.1401 -1.1897  0.8822
10579TIP3    H253229   6.176   3.337  11.558  1.8881  0.2421  1.4785
10580TIP3   OH253230   3.897   6.773   6.561 -0.2968 -0.2150 -0.4170
10580TIP3    H153231   3.874   6.696   6.509  3.2766 -0.3408 -2.1638
10580TIP3    H253232   3.907   6.843   6.496  0.1091  0.7515  0.6638
10581TIP3   OH253233   3.487   4.057  11.105  0.2982 -0.0477 -0.2774
10581TIP3    H153234   3.568   4.008  11.091  0.3820 -0.3632  1.1896
10581TIP3    H253235   3.454   4.074  11.016  1.4335 -0.7976 -0.8682
10582TIP3   OH253236   2.593   4.610   2.121  0.4693  0.9386 -0.1485
10582TIP3    H153237   2.573   4.583   2.032  1.3294 -0.9151  0.1881
10582TIP3    H253238   2.685   4.635   2.119  0.1347  2.2942 -0.0585
10583TIP3   OH253239   5.293   4.954  13.181  0.1642  0.1239  0.1308
10583TIP3    H153240   5.242   4.991  13.253 -0.4503 -1.5187  0.5723
10583TIP3    H253241   5.287   5.019  13.111 -1.5435  0.5026  0.5975
10584TIP3   OH253242   6.075   3.643   3.172  0.5966 -0.2151  0.1498
10584TIP3    H153243   6.085   3.656   3.267  2.0245 -1.0815  0.1423
10584TIP3    H253244   6.037   3.725   3.141  0.5212  0.2518  1.4165
10585TIP3   OH253245   5.542   0.032  16.232 -0.5414  0.2424  0.4469
10585TIP3    H153246   5.557   0.125  16.250  0.6882  0.6013 -2.0815
10585TIP3    H253247   5.578  -0.013  16.308 -0.7789  1.7887  1.5281
10586TIP3   OH253248   6.603   2.443   6.352  0.0447 -0.1415 -0.1479
10586TIP3    H153249   6.638   2.518   6.399 -1.5411  1.1896 -1.0067
10586TIP3    H253250   6.667   2.427   6.282 -0.0996  1.0435 -0.5594
10587TIP3   OH253251   4.135   0.146  16.971 -0.4713 -0.2261  0.5113
10587TIP3    H153252   4.224   0.117  16.991  0.6550  2.8435  0.5038
10587TIP3    H253253   4.100   0.078  16.914  2.6444 -0.5519 -1.2457
10588TIP3   OH253254   2.143   6.566   0.106 -0.2095 -0.7899 -0.1698
10588TIP3    H153255   2.187   6.625   0.167 -0.6550 -0.3755 -0.2364
10588TIP3    H253256   2.166   6.599   0.019 -0.9424 -0.3274 -0.2047
10589TIP3   OH253257   3.732   5.320  13.442 -0.0608 -0.2305 -0.2535
10589TIP3    H153258   3.690   5.235  13.450 -0.1142 -0.1151  0.7250
10589TIP3    H253259   3.783   5.313  13.361  0.6285 -1.4822  0.2673
10590TIP3   OH253260   3.996   6.231  14.499  0.8386  0.0083  0.5713
10590TIP3    H153261   4.087   6.217  14.471  0.7263  1.5626 -0.7974
10590TIP3    H253262   3.997   6.318  14.539  0.1542 -0.4345  1.5693
10591TIP3   OH253263   5.838   5.415  16.180 -0.2760  0.4222  0.3224
10591TIP3    H153264   5.907   5.397  16.243  0.8152  3.2988  0.0799
10591TIP3    H253265   5.883   5.434  16.099 -1.6023 -1.6442 -1.0032
10592TIP3   OH253266   4.012   6.518   0.043 -0.1161 -0.4725 -0.2471
10592TIP3    H153267   3.993   6.425   0.058 -0.1005 -0.5854 -0.9139
10592TIP3    H253268   3.984   6.535  -0.047 -1.5357  0.5583  0.3523
10593TIP3   OH253269   0.812   6.635  16.921 -0.4557 -0.1683 -0.2138
10593TIP3    H153270   0.734   6.641  16.977 -0.5274  0.1577 -0.3433
10593TIP3    H253271   0.869   6.705  16.952  0.7651 -1.7985  1.3438
10594TIP3   OH253272   4.467   0.638   4.809  0.0862 -0.7901  0.1298
10594TIP3    H153273   4.487   0.606   4.720  1.4338  0.5421 -0.0781
10594TIP3    H253274   4.497   0.567   4.866  2.5259 -0.2533 -0.3541
10595TIP3   OH253275   0.632   6.552  12.722 -0.1821  0.3694  0.1249
10595TIP3    H153276   0.667   6.631  12.681  0.0276 -0.0953 -0.6125
10595TIP3    H253277   0.654   6.481  12.661  3.0973 -0.9248  2.4910
10596TIP3   OH253278   2.600   6.697   3.195  0.1372  0.2246 -0.1670
10596TIP3    H153279   2.598   6.758   3.269 -0.3282  0.6290 -0.5016
10596TIP3    H253280   2.521   6.719   3.145  0.7845  0.3822 -1.1258
10597TIP3   OH253281   4.329   3.964  15.871 -0.2435  0.0247 -0.0421
10597TIP3    H153282   4.360   4.002  15.953  1.3941 -0.3999 -0.4210
10597TIP3    H253283   4.350   4.030  15.805  1.5631 -0.9900 -0.5447
10598TIP3   OH253284   0.262   6.629   4.804  0.2419 -0.0841  0.0378
10598TIP3    H153285   0.191   6.690   4.784  0.8103  0.4891 -0.2804
10598TIP3    H253286   0.292   6.655   4.891 -0.1917 -0.5809  0.3403
10599TIP3   OH253287   1.271   5.322  15.418 -0.1216  0.4355  0.0001
10599TIP3    H153288   1.229   5.237  15.408 -1.6874  1.4582 -4.2207
10599TIP3    H253289   1.362   5.307  15.393 -0.0483 -0.2445  0.6645
10600TIP3   OH253290   1.616   5.317   1.073 -0.2475  0.4766  0.0487
10600TIP3    H153291   1.590   5.329   1.164  0.1280  1.7447  0.0008
10600TIP3    H253292   1.541   5.348   1.022  0.0523  1.0072 -0.0756
10601TIP3   OH253293   2.592   5.437   5.787 -0.0289 -0.3316 -0.6175
10601TIP3    H153294   2.614   5.530   5.786  0.3519 -0.4138 -0.3220
10601TIP3    H253295   2.497   5.434   5.781  0.0046  0.0554 -1.4209
10602TIP3   OH253296   6.116   0.395   2.222 -0.2581  0.4938 -0.6452
10602TIP3    H153297   6.136   0.337   2.149 -3.1435 -1.2710 -0.1948
10602TIP3    H253298   6.197   0.398   2.273  0.3374 -2.3403 -1.2562
10603TIP3   OH253299   6.001   5.524   1.417 -0.3387 -0.6032  0.0367
10603TIP3    H153300   6.034   5.580   1.347 -1.3893  0.2021  0.1528
10603TIP3    H253301   5.916   5.493   1.384 -0.7306 -0.4099  0.8272
10604TIP3   OH253302   3.946   1.215  12.925 -0.1755  0.2318  0.6264
10604TIP3    H153303   3.877   1.199  12.860 -0.2343 -2.0769  1.1624
10604TIP3    H253304   3.899   1.229  13.007 -0.0440  0.0890  0.7264
10605TIP3   OH253305   1.978   0.739  13.093  0.0781  0.1228 -0.2291
10605TIP3    H153306   2.049   0.689  13.052  0.2101 -1.5710  1.9012
10605TIP3    H253307   1.928   0.774  13.019  2.3605  0.3179 -1.8010
10606TIP3   OH253308   4.403   4.654   1.952  0.0740  0.1468 -0.4457
10606TIP3    H153309   4.399   4.659   1.857  0.2541  1.4573 -0.3955
10606TIP3    H253310   4.315   4.627   1.978  0.0291 -0.2329 -0.9760
10607TIP3   OH253311   1.909   5.232  11.500  0.0182  0.0477  0.5295
10607TIP3    H153312   1.866   5.200  11.580 -1.7067 -1.0024 -0.7336
10607TIP3    H253313   1.846   5.294  11.463  1.0177  0.8979  0.2236
10608TIP3   OH253314   5.159   6.439  15.034  0.3924  0.4911 -0.1963
10608TIP3    H153315   5.175   6.516  15.089  1.6843 -0.2874  0.5517
10608TIP3    H253316   5.150   6.474  14.945  2.6929  1.3788 -0.1375
10609TIP3   OH253317   3.641   5.187   4.865  0.2647 -0.3968 -0.3144
10609TIP3    H153318   3.596   5.239   4.798  0.0253  1.5099  1.2153
10609TIP3    H253319   3.641   5.243   4.942  1.7416 -1.9609  0.9056
10610TIP3   OH253320   0.276   2.182   3.556 -0.0102  0.8355  0.1404
10610TIP3    H153321   0.368   2.207   3.548  0.1050  0.1303 -1.0922
10610TIP3    H253322   0.240   2.195   3.468 -1.5526  2.7502  0.9821
10611TIP3   OH253323   3.707   6.605  13.778 -0.0487 -0.4938 -0.1111
10611TIP3    H153324   3.691   6.512  13.767 -0.6714 -0.8699  3.0185
10611TIP3    H253325   3.622   6.641  13.803  0.7707  0.3161  1.6924
10612TIP3   OH253326   2.870   1.727   0.881  0.4977 -0.2659 -0.6596
10612TIP3    H153327   2.840   1.806   0.834  0.5341 -0.2330 -0.6279
10612TIP3    H253328   2.938   1.759   0.940 -1.1976  0.1161  1.2107
10613TIP3   OH253329   5.430   4.730   0.861  0.0312 -0.2490  0.4007
10613TIP3    H153330   5.506   4.672   0.872 -0.7655 -1.4448 -0.1208
10613TIP3    H253331   5.380   4.720   0.942  0.6069  0.8372  0.9050
10614TIP3   OH253332   0.062   3.024   5.218 -0.0790  0.1350  0.9592
10614TIP3    H153333   0.091   2.969   5.145  0.6156  1.6991 -0.0011
10614TIP3    H253334  -0.020   3.063   5.187  0.0495  0.5506  1.1434
10615TIP3   OH253335   3.065   5.754  10.989 -0.0634 -0.1605 -0.0529
10615TIP3    H153336   3.101   5.728  10.903 -1.2213 -1.8401 -0.0814
10615TIP3    H253337   2.972   5.733  10.983 -0.7014  2.2252  0.7204
10616TIP3   OH253338   2.173   6.453  15.610 -0.2148  0.1230 -0.6619
10616TIP3    H153339   2.177   6.377  15.552  1.5080  0.2302 -0.7253
10616TIP3    H253340   2.080   6.463  15.630 -0.5368 -1.6096 -1.1626
10617TIP3   OH253341   1.242   5.851   3.331 -0.0870  0.3557  0.1507
10617TIP3    H153342   1.331   5.816   3.337 -0.5298 -0.5778  3.6913
10617TIP3    H253343   1.186   5.773   3.340 -1.2765  1.0640 -0.8217
10618TIP3   OH253344   5.669   6.665   1.114  0.2461 -0.1122  0.1748
10618TIP3    H153345   5.753   6.709   1.126  1.2158 -1.3000 -1.7567
10618TIP3    H253346   5.692   6.573   1.102 -1.4539 -0.6498  0.7685
10619TIP3   OH253347   5.517   0.762  13.565 -0.1327  0.0242 -0.2929
10619TIP3    H153348   5.593   0.758  13.507  0.2388  1.6189  0.0177
10619TIP3    H253349   5.447   0.716  13.517  0.4772  0.3030 -1.4909
10620TIP3   OH253350   4.954   3.810  14.130 -0.0615 -0.0823  0.1266
10620TIP3    H153351   4.972   3.816  14.223  3.1905 -0.6262 -0.3530
10620TIP3    H253352   4.977   3.896  14.095 -2.9567  0.7364 -0.0670
10621TIP3   OH253353   6.379   6.281   2.392  0.7077  0.1423 -0.5961
10621TIP3    H153354   6.308   6.218   2.405  1.2486 -0.2593  0.4941
10621TIP3    H253355   6.432   6.273   2.471  2.3195 -0.0204 -1.6667
10622TIP3   OH253356   5.675   2.434   4.675 -0.3748 -0.1441  0.0255
10622TIP3    H153357   5.621   2.357   4.690 -0.2616 -0.0843  0.8167
10622TIP3    H253358   5.716   2.451   4.760 -1.5723  1.6953  0.2868
10623TIP3   OH253359   3.322   0.625   6.533  0.5131 -0.0576  0.0333
10623TIP3    H153360   3.394   0.577   6.574  0.0391 -1.1823 -0.4044
10623TIP3    H253361   3.327   0.713   6.571  0.5789 -0.8179  1.9194
10624TIP3   OH253362   0.999   3.842   4.349  0.2563  0.1690 -0.6286
10624TIP3    H153363   0.987   3.776   4.417  2.8593 -1.6178 -1.7344
10624TIP3    H253364   1.023   3.792   4.271  2.1650  2.4047 -1.5885
10625TIP3   OH253365   1.578   5.208   5.551  0.2160  0.1591  0.1686
10625TIP3    H153366   1.640   5.183   5.482 -0.4385 -1.0875  0.0062
10625TIP3    H253367   1.607   5.295   5.578 -0.4914  1.4644 -2.8205
10626TIP3   OH253368   4.034   1.703  15.116  0.1142 -0.3922 -0.0015
10626TIP3    H153369   4.038   1.628  15.176 -1.5659 -1.1209 -0.7577
10626TIP3    H253370   3.940   1.721  15.106  0.4411  0.9311 -0.9329
10627TIP3   OH253371   2.616   5.598   3.802 -0.0270 -0.9893  0.2684
10627TIP3    H153372   2.672   5.542   3.748  2.2308 -0.0508  1.4593
10627TIP3    H253373   2.614   5.556   3.888  2.3356  0.9354  1.4097
10628TIP3   OH253374   5.585   5.480  13.035 -0.4385  0.1329  0.1380
10628TIP3    H153375   5.570   5.574  13.046  2.8876  1.0222 -1.4159
10628TIP3    H253376   5.584   5.467  12.940  0.1601 -1.1571  0.2824
10629TIP3   OH253377   5.453   1.712  16.650 -0.1535 -0.1363 -0.4502
10629TIP3    H153378   5.547   1.726  16.649  0.2088 -2.1581  0.4826
10629TIP3    H253379   5.417   1.785  16.599  1.9467  0.2612 -1.4572
10630TIP3   OH253380   0.093   1.167  14.069 -0.1968  0.1779  0.4576
10630TIP3    H153381   0.162   1.197  14.010 -0.5388 -0.4564 -0.2817
10630TIP3    H253382   0.012   1.185  14.022 -0.5221  0.3946  1.0811
10631TIP3   OH253383   4.781   5.197   2.422 -0.8365  0.0741  0.0769
10631TIP3    H153384   4.775   5.260   2.350  1.3035 -1.1114 -1.2366
10631TIP3    H253385   4.830   5.244   2.490 -1.1832  0.5498  0.0059
10632TIP3   OH253386   1.224   3.918   4.500  0.2163 -0.4370 -0.1957
10632TIP3    H153387   1.222   3.849   4.566 -2.8830 -1.0066 -0.7367
10632TIP3    H253388   1.156   3.893   4.437 -0.6206  2.7726 -0.7449
10633TIP3   OH253389   6.125   6.429   1.906 -0.2025  0.1729  0.0898
10633TIP3    H153390   6.213   6.416   1.941 -0.2125 -1.8707 -0.5129
10633TIP3    H253391   6.139   6.439   1.811 -0.6502 -0.7008 -0.0725
10634TIP3   OH253392   2.532   1.759  14.834 -0.0756  0.2640  0.7150
10634TIP3    H153393   2.623   1.777  14.856 -0.5202  2.4240  1.0013
10634TIP3    H253394   2.482   1.815  14.893 -1.6114 -1.0343  0.7068
10635TIP3   OH253395   1.668   2.575   0.908  0.0709  0.0792 -0.2448
10635TIP3    H153396   1.674   2.553   1.001  2.7357 -2.5212 -0.8728
10635TIP3    H253397   1.721   2.654   0.898  1.1653 -0.5801  0.2317
10636TIP3   OH253398   2.857   1.520   4.571 -0.0658  0.4838  0.3983
10636TIP3    H153399   2.847   1.440   4.622 -0.6736  0.3454  0.0789
10636TIP3    H253400   2.944   1.552   4.592  0.4588 -0.6398 -0.0138
10637TIP3   OH253401   5.053   3.648   4.442 -0.4838  0.1377 -0.0743
10637TIP3    H153402   5.132   3.655   4.496 -0.9710  1.9867  0.4466
10637TIP3    H253403   4.984   3.689   4.495 -1.4448  0.0445 -1.2181
10638TIP3   OH253404   3.101   0.201   2.907 -0.3031 -0.5317  0.4990
10638TIP3    H153405   3.135   0.112   2.890  0.2491 -0.2482  0.0631
10638TIP3    H253406   3.157   0.258   2.853 -0.9530  0.0354  0.4173
10639TIP3   OH253407   4.382   0.983  15.402 -0.2507  0.1667  0.0154
10639TIP3    H153408   4.378   0.897  15.360 -1.2082  0.9410 -1.5635
10639TIP3    H253409   4.412   1.043  15.333  0.7025  1.0781  1.1650
10640TIP3   OH253410   0.064   3.109   1.532  0.2088 -0.5060  0.0815
10640TIP3    H153411   0.139   3.108   1.473  1.7801  0.1193  1.9780
10640TIP3    H253412   0.099   3.080   1.616 -1.6738 -0.1332  1.0492
10641TIP3   OH253413   1.530   0.914  16.503  0.0761 -0.3518  0.1572
10641TIP3    H153414   1.578   0.997  16.493  0.5666 -0.8214 -1.9634
10641TIP3    H253415   1.540   0.891  16.595  1.4945  1.0365  0.3907
10642TIP3   OH253416   5.193   6.509  14.572  0.3858 -0.2272  0.1059
10642TIP3    H153417   5.132   6.457  14.521  1.9839 -1.4563 -0.6197
10642TIP3    H253418   5.140   6.544  14.644 -1.7269  0.8552 -1.8521
10643TIP3   OH253419   6.782   5.896   1.609 -0.7413 -0.0747 -0.3596
10643TIP3    H153420   6.733   5.818   1.634 -0.9245 -0.3723 -1.5490
10643TIP3    H253421   6.801   5.941   1.691 -0.5501 -1.4168  0.3562
10644TIP3   OH253422   2.648   0.766   5.790 -0.0027 -0.4052  0.2227
10644TIP3    H153423   2.571   0.709   5.784  0.9458 -2.1813  2.8145
10644TIP3    H253424   2.655   0.786   5.884  2.2995  0.2381 -0.0353
10645TIP3   OH253425   4.475   3.473  15.516  0.1443 -0.4756 -0.4260
10645TIP3    H153426   4.464   3.379  15.533  0.0374 -0.5181 -0.7381
10645TIP3    H253427   4.437   3.515  15.594  2.1246 -0.7231  0.7501
10646TIP3   OH253428   2.623   6.572  12.510  0.1399  0.1851 -0.6019
10646TIP3    H153429   2.638   6.483  12.542 -2.9298  0.6433  2.8545
10646TIP3    H253430   2.683   6.626  12.562 -1.8380  0.4958  1.5710
10647TIP3   OH253431   3.553   5.351   3.593 -0.1692 -0.1963 -0.5972
10647TIP3    H153432   3.628   5.329   3.647 -0.7499 -0.3647  0.1622
10647TIP3    H253433   3.478   5.312   3.638 -0.4977 -1.8327 -2.4064
10648TIP3   OH253434   0.600   3.198  14.961  0.2650  0.1128  0.3720
10648TIP3    H153435   0.638   3.276  15.001  1.9730 -1.5398  2.1849
10648TIP3    H253436   0.673   3.136  14.954 -1.1947 -1.6415 -0.2162
10649TIP3   OH253437   0.699   4.207  15.585  0.0417 -0.0101  0.0157
10649TIP3    H153438   0.792   4.192  15.600  0.1814  0.5776 -0.2449
10649TIP3    H253439   0.682   4.167  15.500  0.3373  0.9461 -0.5146
10650TIP3   OH253440   3.952   6.017   6.118 -0.2798  0.6351 -0.2873
10650TIP3    H153441   3.874   5.991   6.166  0.0710  3.4546  2.1215
10650TIP3    H253442   3.920   6.082   6.055 -0.0896  0.5497 -0.4722
10651TIP3   OH253443   4.405   6.719  17.136 -0.2853 -0.2019 -0.7669
10651TIP3    H153444   4.497   6.697  17.120 -0.4058 -1.8378  0.4523
10651TIP3    H253445   4.362   6.706  17.051  0.4555 -0.3828 -1.1233
10652TIP3   OH253446   5.252   2.165  10.995 -0.1695 -0.1338 -0.2217
10652TIP3    H153447   5.291   2.081  10.971 -0.9867 -0.1244 -1.6950
10652TIP3    H253448   5.162   2.145  11.019  0.0283  0.1529  0.8035
10653TIP3   OH253449   6.458   0.768   2.166  0.2432 -0.0048 -0.6108
10653TIP3    H153450   6.378   0.780   2.115 -0.2942  0.1836  0.2536
10653TIP3    H253451   6.527   0.803   2.110 -0.4335  0.9356 -0.8845
10654TIP3   OH253452   4.294   0.045   4.534  0.2471  0.7906  0.0818
10654TIP3    H153453   4.389   0.030   4.540  0.4205  1.6905 -0.2835
10654TIP3    H253454   4.285   0.119   4.474 -0.5744  1.9477  1.5476
10655TIP3   OH253455   0.841   4.379   6.297  0.1343  0.2479  0.1008
10655TIP3    H153456   0.781   4.307   6.316  0.1175  0.0366 -0.7098
10655TIP3    H253457   0.890   4.391   6.379 -0.6464  0.0815  0.6038
10656TIP3   OH253458   6.757   6.165   2.663 -0.0813  0.3942  0.1658
10656TIP3    H153459   6.827   6.193   2.603  0.3583  2.2501  1.4462
10656TIP3    H253460   6.679   6.210   2.631  0.0073  0.8366  0.5573
10657TIP3   OH253461   5.422   6.536  11.808 -0.1352  0.1227  0.0510
10657TIP3    H153462   5.343   6.588  11.822  1.3938  2.9857 -1.2626
10657TIP3    H253463   5.392   6.459  11.759 -2.0541  1.3877 -0.8656
10658TIP3   OH253464   5.096   4.675   3.007 -0.3980  0.1659 -0.0368
10658TIP3    H153465   5.170   4.647   3.061  0.2635  2.7965  0.5390
10658TIP3    H253466   5.076   4.763   3.038 -4.7773 -0.9256  0.8798
10659TIP3   OH253467   3.041   4.307  14.419  0.1328  0.0579  0.2335
10659TIP3    H153468   3.003   4.354  14.493 -0.2862  0.5295 -0.2832
10659TIP3    H253469   3.005   4.349  14.341 -1.1582 -1.8119 -0.2604
10660TIP3   OH253470   4.509   5.737  14.180 -0.7134  0.1580 -0.2872
10660TIP3    H153471   4.550   5.722  14.265 -2.1618  0.3965  0.4748
10660TIP3    H253472   4.565   5.690  14.118  0.4334  0.0860  0.7680
10661TIP3   OH253473   5.248   3.613  16.987  0.3334  0.2137  0.5493
10661TIP3    H153474   5.253   3.692  17.041  2.4400 -0.4233  1.4106
10661TIP3    H253475   5.171   3.567  17.019 -0.5782  1.5922  0.4505
10662TIP3   OH253476   3.727   5.143   3.030 -0.4179  0.1127  0.4057
10662TIP3    H153477   3.642   5.129   2.990 -0.1663 -0.5796  0.0938
10662TIP3    H253478   3.713   5.213   3.094 -0.9937  0.6989 -0.3480
10663TIP3   OH253479   6.097   1.867   3.605 -0.0864  0.7579  0.2652
10663TIP3    H153480   6.002   1.882   3.601  0.0182  1.6694  0.9659
10663TIP3    H253481   6.108   1.779   3.569 -0.8407  1.8669 -3.0645
10664TIP3   OH253482   3.549   4.610  17.091  0.2336 -0.1997 -0.6240
10664TIP3    H153483   3.503   4.571  17.017 -0.5075  0.4478 -0.5225
10664TIP3    H253484   3.530   4.551  17.165  2.8396 -2.1197 -1.3531
10665TIP3   OH253485   0.774   4.252   1.780  0.5423  0.5785 -0.2555
10665TIP3    H153486   0.725   4.328   1.812  0.8867 -0.1723  2.2687
10665TIP3    H253487   0.836   4.233   1.850  2.8838  0.0644 -2.3436
10666TIP3   OH253488   1.685   4.220  16.326  0.6867  0.4278  0.4530
10666TIP3    H153489   1.677   4.303  16.278  0.2017 -0.7332 -1.5957
10666TIP3    H253490   1.602   4.213  16.374  0.6396  1.0328  0.4672
10667TIP3   OH253491   4.597   6.449   5.106  0.3062 -0.3043 -0.1608
10667TIP3    H153492   4.569   6.384   5.042 -0.9795  0.7704 -0.7480
10667TIP3    H253493   4.520   6.463   5.161  0.7957  0.1772  0.4157
10668TIP3   OH253494   2.420   0.842  15.134 -0.5757  0.1624  0.3561
10668TIP3    H153495   2.439   0.884  15.218 -0.3310  0.4694  0.1516
10668TIP3    H253496   2.391   0.754  15.157  0.5109 -0.1194  0.7135
10669TIP3   OH253497   0.142   1.661  11.946  0.0737  0.4734  0.0488
10669TIP3    H153498   0.111   1.742  11.986  1.0234  0.0517  1.7329
10669TIP3    H253499   0.065   1.604  11.944 -0.7312  1.5510 -1.6352
10670TIP3   OH253500   4.861   5.781   1.037  0.3460  0.3808 -0.4958
10670TIP3    H153501   4.881   5.689   1.053  3.3264  0.9032 -0.6219
10670TIP3    H253502   4.902   5.828   1.110 -2.5099  1.5919  0.4806
10671TIP3   OH253503   0.490   1.316   4.528  0.6288 -0.0826 -0.4952
10671TIP3    H153504   0.576   1.360   4.531  0.9095 -0.5496 -1.5967
10671TIP3    H253505   0.502   1.237   4.581  0.9562 -0.2829 -0.8680
10672TIP3   OH253506   0.374   6.062  14.690  0.4564  0.0122  0.2659
10672TIP3    H153507   0.434   6.034  14.760 -0.5886 -0.9173  0.8290
10672TIP3    H253508   0.350   5.981  14.645  1.1861  0.6102 -1.2711
10673TIP3   OH253509   5.766   2.506   2.216  0.3456 -0.5595  0.0527
10673TIP3    H153510   5.786   2.548   2.132  0.8233  1.1667  0.9957
10673TIP3    H253511   5.671   2.508   2.222  0.3402 -0.0391 -0.1354
10674TIP3   OH253512   2.248   4.497  12.266  0.2815  0.3675  0.1999
10674TIP3    H153513   2.330   4.461  12.231 -1.1168 -0.9632 -1.9857
10674TIP3    H253514   2.253   4.591  12.248  1.3859  0.3346  0.2578
10675TIP3   OH253515   4.093   3.043  13.523  0.2035 -0.7826  0.1245
10675TIP3    H153516   4.074   2.955  13.491  0.7971 -0.8888  0.0675
10675TIP3    H253517   4.159   3.077  13.463 -1.7064  0.5953 -1.3182
10676TIP3   OH253518   2.183   0.609   3.247 -0.7543  0.2328 -0.2220
10676TIP3    H153519   2.276   0.627   3.261 -0.8381  0.8433 -0.4291
10676TIP3    H253520   2.138   0.681   3.290 -1.2160 -1.0343  1.5455
10677TIP3   OH253521   0.843   6.840   3.210  0.8436  0.0039  0.2133
10677TIP3    H153522   0.842   6.933   3.230 -0.4942  0.0572 -0.0394
10677TIP3    H253523   0.926   6.827   3.163  0.7941  1.1604 -0.2269
10678TIP3   OH253524   6.159   3.605   2.824  0.3130  0.1144  0.3195
10678TIP3    H153525   6.226   3.569   2.766  1.0211  0.1492  1.0845
10678TIP3    H253526   6.113   3.529   2.858  1.5277 -0.1117  1.6015
10679TIP3   OH253527   1.070   6.633   1.355 -0.2334  0.0874 -0.2439
10679TIP3    H153528   0.987   6.589   1.338  0.0922 -0.0826 -1.4945
10679TIP3    H253529   1.050   6.726   1.344 -0.4665  0.1279  0.4394
10680TIP3   OH253530   4.349   1.142  15.766 -0.1381  0.0856 -0.2991
10680TIP3    H153531   4.334   1.180  15.680 -0.3348 -0.5879 -0.5622
10680TIP3    H253532   4.398   1.062  15.749 -0.0829  0.0030  0.2275
10681TIP3   OH253533   0.332   0.510  13.478  0.1774  0.2976  0.6023
10681TIP3    H153534   0.241   0.490  13.501 -0.0042  0.3646 -0.0171
10681TIP3    H253535   0.383   0.483  13.553 -0.3341  0.0068  0.8484
10682TIP3   OH253536   3.681   0.319   1.157 -0.3987  0.1913 -0.0201
10682TIP3    H153537   3.631   0.371   1.093 -1.9307 -1.8976 -0.6453
10682TIP3    H253538   3.772   0.331   1.132 -0.8881  0.3986 -1.8526
10683TIP3   OH253539   6.251   6.022  15.994 -0.5633  0.3763 -0.1229
10683TIP3    H153540   6.305   6.099  16.015  0.8830 -0.6475  0.0206
10683TIP3    H253541   6.298   5.978  15.924 -0.8579 -0.9289  0.4783
10684TIP3   OH253542   3.564   1.177   3.024 -0.2046  0.7250  0.0338
10684TIP3    H153543   3.641   1.168   2.968  1.6282  2.4239  2.0805
10684TIP3    H253544   3.592   1.236   3.094 -3.0099  0.4083  1.5808
10685TIP3   OH253545   6.434   1.162  12.952 -0.0032  0.6566  0.2038
10685TIP3    H153546   6.431   1.076  12.912 -0.9795  1.1933 -0.9380
10685TIP3    H253547   6.516   1.163  13.002 -0.3897 -1.2228  0.9727
10686TIP3   OH253548   6.470   1.893   4.749  0.6125  0.1198 -0.4751
10686TIP3    H153549   6.504   1.983   4.759  0.4034 -0.0023  2.2090
10686TIP3    H253550   6.549   1.840   4.737  0.7528  0.6191 -1.9081
10687TIP3   OH253551   3.441   5.190  12.070 -0.0131  0.0579 -0.7057
10687TIP3    H153552   3.523   5.200  12.118 -0.3174  1.7348 -0.4685
10687TIP3    H253553   3.383   5.145  12.131  0.5233 -0.5774 -0.6478
10688TIP3   OH253554   0.947   1.894  12.781 -0.2187  0.0888 -0.4305
10688TIP3    H153555   1.025   1.857  12.823 -0.9062 -1.2031 -0.2303
10688TIP3    H253556   0.925   1.971  12.833  0.0174 -0.4413  0.4794
10689TIP3   OH253557   4.963   2.399  13.012  0.0831  0.1762  0.2758
10689TIP3    H153558   4.913   2.431  13.086 -0.2781 -0.7483  0.4486
10689TIP3    H253559   5.053   2.426  13.031 -0.2541  1.3734  0.2264
10690TIP3   OH253560   1.407   4.615  11.495 -0.0491  0.3637 -0.0981
10690TIP3    H153561   1.390   4.698  11.539  0.4729 -0.8088  2.4481
10690TIP3    H253562   1.323   4.569  11.497  0.1161  0.0690  0.2390
10691TIP3   OH253563   1.676   6.696   2.880  0.3004  0.7627  0.1832
10691TIP3    H153564   1.706   6.605   2.879 -3.6250 -0.7642  0.8779
10691TIP3    H253565   1.694   6.725   2.970  0.0604  0.0571  0.4693
10692TIP3   OH253566   2.653   3.491   6.530 -0.3463  0.2126  0.4476
10692TIP3    H153567   2.568   3.484   6.486 -0.4369  3.6558 -0.2218
10692TIP3    H253568   2.692   3.405   6.519 -2.8096 -0.8304 -1.2409
10693TIP3   OH253569   6.007   0.205  13.193  0.0364 -0.0511 -0.0626
10693TIP3    H153570   6.094   0.233  13.166 -0.1840  0.1239 -0.6118
10693TIP3    H253571   6.022   0.153  13.272  0.5485  0.7661  0.3981
10694TIP3   OH253572   1.962   6.262   2.028  0.5639 -0.1081 -0.0191
10694TIP3    H153573   1.922   6.332   1.978 -0.0784 -1.1165 -0.9669
10694TIP3    H253574   1.993   6.200   1.962  1.5163 -0.5087  0.7767
10695TIP3   OH253575   3.051   1.170   3.713 -0.4832  0.0419 -0.0347
10695TIP3    H153576   3.104   1.228   3.767  0.6749 -0.3588 -0.7078
10695TIP3    H253577   3.003   1.115   3.775  0.8130 -0.4060  0.5939
10696TIP3   OH253578   3.730   4.358   1.695 -0.0756  0.3674 -0.3497
10696TIP3    H153579   3.713   4.280   1.643  0.7765  0.7961 -1.2966
10696TIP3    H253580   3.710   4.332   1.785 -1.0913 -0.5329 -0.8184
10697TIP3   OH253581   4.173   5.334   3.223  0.1528  0.4484  0.0215
10697TIP3    H153582   4.083   5.303   3.231  0.5819 -0.2117  4.0942
10697TIP3    H253583   4.224   5.257   3.200 -0.0263  0.3087  0.0954
10698TIP3   OH253584   0.659   1.988  13.839 -0.1253  0.0225  0.3002
10698TIP3    H153585   0.649   1.897  13.867 -0.2906 -0.1989 -0.4737
10698TIP3    H253586   0.602   1.997  13.763  1.5731  0.1635 -1.0074
10699TIP3   OH253587   4.959   4.419  16.183  0.1498 -0.0987 -0.3152
10699TIP3    H153588   4.969   4.476  16.260 -2.8550 -0.7174  0.6738
10699TIP3    H253589   5.046   4.382  16.168  1.0154  0.7071  2.2583
10700TIP3   OH253590   4.498   0.916  15.635  0.2413  0.1031 -0.5833
10700TIP3    H153591   4.580   0.962  15.616  0.7476  0.0654  1.3638
10700TIP3    H253592   4.447   0.924  15.554  1.6099  1.3015 -1.3689
10701TIP3   OH253593   4.285   1.792   5.416  0.8023 -0.1720 -0.1314
10701TIP3    H153594   4.197   1.830   5.406  0.6043 -0.5044  0.3317
10701TIP3    H253595   4.313   1.773   5.326  0.9041  1.0506 -0.3840
10702TIP3   OH253596   6.004   1.954   5.542 -0.1939  0.5962  0.0869
10702TIP3    H153597   6.023   1.938   5.450  0.0065  2.4095 -0.2206
10702TIP3    H253598   6.044   1.881   5.588 -2.9462 -2.0999 -1.4308
10703TIP3   OH253599   4.186   0.168  13.898  0.0077  0.8356  0.3493
10703TIP3    H153600   4.156   0.121  13.975  0.4219  0.5711  0.3535
10703TIP3    H253601   4.206   0.099  13.834 -1.2362  1.0742 -0.3450
10704TIP3   OH253602   2.061   4.366   1.066 -0.4096  0.2173 -0.1740
10704TIP3    H153603   2.016   4.450   1.053 -0.8126  0.1941  0.9894
10704TIP3    H253604   1.994   4.308   1.100  0.2679 -0.0982  0.6546
10705TIP3   OH253605   2.413   1.268  12.282  0.4903 -0.3155 -0.0100
10705TIP3    H153606   2.409   1.267  12.186  0.2338  2.0435 -0.0759
10705TIP3    H253607   2.325   1.241  12.309  0.5698 -1.0165 -0.4269
10706TIP3   OH253608   4.420   2.654  15.493 -0.0164  0.0487 -0.1098
10706TIP3    H153609   4.487   2.642  15.427  0.0451  0.2052 -0.0771
10706TIP3    H253610   4.362   2.579  15.483  1.0826 -0.9782  0.9741
10707TIP3   OH253611   6.191   3.183   4.818  0.3788 -0.4812  0.0532
10707TIP3    H153612   6.205   3.271   4.784  1.1339 -0.5071  0.2875
10707TIP3    H253613   6.210   3.189   4.912  2.6181 -1.3428 -0.2827
10708TIP3   OH253614   5.894   4.360  14.749  0.2369  0.0551  0.3117
10708TIP3    H153615   5.836   4.332  14.820  0.2931 -0.3369  0.2035
10708TIP3    H253616   5.916   4.450  14.771 -0.5001  0.2465  0.3001
10709TIP3   OH253617   2.839   6.403  15.473  0.7222  0.5338  0.3748
10709TIP3    H153618   2.771   6.392  15.538 -0.2644  1.9220 -0.3839
10709TIP3    H253619   2.812   6.478  15.421  2.4855  0.7038 -0.3866
10710TIP3   OH253620   6.229   1.148   2.885  0.0793 -0.3646  0.4475
10710TIP3    H153621   6.165   1.077   2.878 -0.0194 -0.3335  1.0111
10710TIP3    H253622   6.311   1.111   2.851 -0.6266  0.1369 -2.0075
10711TIP3   OH253623   5.639   4.577   1.019 -0.0239 -0.1524  0.4980
10711TIP3    H153624   5.605   4.493   1.049 -1.5850  0.3122  0.1221
10711TIP3    H253625   5.718   4.592   1.072 -1.2774 -0.5344  2.5793
10712TIP3   OH253626   5.704   3.213   0.535 -0.4596 -0.6098 -0.1034
10712TIP3    H153627   5.745   3.288   0.492 -0.2945 -0.6487 -0.0126
10712TIP3    H253628   5.620   3.248   0.567 -0.0972 -0.2853  0.5115
10713TIP3   OH253629   3.330   0.530  13.515 -0.1903  0.3241  0.5114
10713TIP3    H153630   3.346   0.455  13.572  0.0141  0.0256  0.0681
10713TIP3    H253631   3.270   0.497  13.448 -0.6747  0.7567  0.7282
10714TIP3   OH253632   0.860   6.427  14.827 -0.0809  0.8416  0.5048
10714TIP3    H153633   0.804   6.378  14.766  0.4512  1.3075 -0.3750
10714TIP3    H253634   0.852   6.518  14.800 -0.0431  1.0983  1.3135
10715TIP3   OH253635   2.659   1.746  15.866  0.3278  0.0908 -0.2326
10715TIP3    H153636   2.724   1.777  15.928 -0.3583 -0.6791  0.8967
10715TIP3    H253637   2.709   1.691  15.804  0.9064  0.3405  0.0052
10716TIP3   OH253638   3.887   2.094   5.823  0.2352  0.2366 -0.0416
10716TIP3    H153639   3.979   2.070   5.814  0.3939  0.9705 -0.4571
10716TIP3    H253640   3.851   2.084   5.735 -0.1273 -0.2152  0.1547
10717TIP3   OH253641   3.242   6.671  16.830 -0.0784  1.2258 -0.6628
10717TIP3    H153642   3.334   6.694  16.820  0.1960 -0.0122 -1.1521
10717TIP3    H253643   3.221   6.619  16.753 -0.3487 -1.0757  0.8737
10718TIP3   OH253644   2.047   5.261   5.294  0.2404  0.3798  0.0881
10718TIP3    H153645   1.953   5.254   5.312  0.8389 -2.3394  2.9821
10718TIP3    H253646   2.077   5.333   5.349  0.0511  0.5068  0.0263
10719TIP3   OH253647   5.517   5.682  14.274 -0.1729  0.1857 -0.2966
10719TIP3    H153648   5.583   5.668  14.342 -0.2589 -0.1031 -0.2681
10719TIP3    H253649   5.485   5.771  14.288 -0.1307  0.1569 -0.0104
10720TIP3   OH253650   6.160   4.281  14.659  0.2024 -0.0092 -0.2646
10720TIP3    H153651   6.141   4.217  14.590  1.0009 -0.7567  0.1871
10720TIP3    H253652   6.076   4.323  14.677  0.0885  0.6365 -2.1113
10721TIP3   OH253653   1.538   0.980  16.846  0.1006  0.2994  0.1214
10721TIP3    H153654   1.620   1.025  16.869 -1.1704  2.2768  1.0470
10721TIP3    H253655   1.470   1.035  16.885 -1.6186 -1.9473  0.4277
10722TIP3   OH253656   1.747   5.244  12.943 -0.1463 -0.1089 -0.3009
10722TIP3    H153657   1.749   5.247  13.039  1.0523 -0.4947 -0.2936
10722TIP3    H253658   1.657   5.220  12.921 -0.6156  0.6564  0.6978
10723TIP3   OH253659   0.696   0.764  17.134 -0.1357  0.0354 -0.3159
10723TIP3    H153660   0.619   0.794  17.181 -1.0553 -0.5306 -1.4300
10723TIP3    H253661   0.764   0.828  17.157 -0.7809  0.2836  1.0320
10724TIP3   OH253662   5.177   3.864  11.300  0.1275  0.0950  0.7368
10724TIP3    H153663   5.123   3.938  11.274 -0.7504 -0.5781  0.6247
10724TIP3    H253664   5.224   3.895  11.378  0.7957  1.2161 -0.0912
10725TIP3   OH253665   4.238   4.446   0.582  0.2410  0.5104 -0.1959
10725TIP3    H153666   4.164   4.398   0.621  0.5364 -0.0925 -0.3606
10725TIP3    H253667   4.252   4.520   0.641  0.9307 -0.5939  1.1068
10726TIP3   OH253668   1.319   3.374  11.487 -0.1353  0.0948 -0.0999
10726TIP3    H153669   1.237   3.370  11.536  0.4942  1.4892  1.1450
10726TIP3    H253670   1.302   3.326  11.406 -2.0744  0.1102  0.2738
10727TIP3   OH253671   2.120   2.760   5.501 -0.0450 -0.7855 -0.3193
10727TIP3    H153672   2.124   2.682   5.445 -2.2061  0.2385 -2.0437
10727TIP3    H253673   2.067   2.733   5.576 -2.4412 -0.5735 -1.8209
10728TIP3   OH253674   1.967   0.638   6.142  0.3807  0.2811 -0.0504
10728TIP3    H153675   1.882   0.680   6.154 -0.3019 -0.6040 -1.5254
10728TIP3    H253676   1.997   0.619   6.231  0.1128  2.6271  0.5851
10729TIP3   OH253677   6.667   5.547   0.739 -0.7957  0.1134 -0.6092
10729TIP3    H153678   6.646   5.591   0.657 -3.4741 -0.6554 -0.4651
10729TIP3    H253679   6.636   5.457   0.726  0.2818 -0.4733  0.6647
10730TIP3   OH253680   1.030   5.844  12.860 -0.3141 -0.1966  0.5792
10730TIP3    H153681   1.052   5.781  12.791 -0.2394  1.1066 -0.6099
10730TIP3    H253682   0.937   5.862  12.847 -0.5873 -0.7978  1.5590
10731TIP3   OH253683   5.391   5.058  14.497 -0.1347 -0.1219  0.3727
10731TIP3    H153684   5.475   5.030  14.535 -0.0416  0.3067  0.4813
10731TIP3    H253685   5.375   4.993  14.428  0.1997 -0.3116  0.4664
10732TIP3   OH253686   4.218   0.123   2.475  0.4360 -0.3180  0.0194
10732TIP3    H153687   4.265   0.069   2.540 -0.4674 -0.1798  0.8213
10732TIP3    H253688   4.260   0.102   2.392  0.2827 -2.0964  0.3425
10733TIP3   OH253689   3.921   3.892   5.834  0.0300 -0.8275  0.3789
10733TIP3    H153690   3.992   3.956   5.848  0.4961 -0.3662 -3.0373
10733TIP3    H253691   3.963   3.821   5.785 -1.2491 -2.0882  1.0539
10734TIP3   OH253692   4.325   5.241  11.381  0.1805 -0.2443  0.4101
10734TIP3    H153693   4.309   5.159  11.335 -0.6677 -0.4436  1.0281
10734TIP3    H253694   4.303   5.309  11.317  4.2855 -0.3429 -1.3620
10735TIP3   OH253695   4.637   5.841   6.466  0.6944 -0.3372  0.4287
10735TIP3    H153696   4.701   5.878   6.405  0.9338 -0.1934  0.7635
10735TIP3    H253697   4.668   5.868   6.553 -0.9127  1.4743  0.5143
10736TIP3   OH253698   5.746   3.590  14.047  0.0962  0.4150 -0.5154
10736TIP3    H153699   5.791   3.526  14.102  0.5409  1.3064  0.1793
10736TIP3    H253700   5.751   3.554  13.959  0.1265 -0.6189 -0.0976
10737TIP3   OH253701   5.199   3.938   3.913 -0.1017 -0.2485  0.1247
10737TIP3    H153702   5.155   4.006   3.964 -0.8604 -0.0578 -0.7578
10737TIP3    H253703   5.127   3.884   3.879  0.4277 -0.7466 -0.2069
10738TIP3   OH253704   3.548   1.396  13.911  0.0576  0.5934  0.7589
10738TIP3    H153705   3.476   1.413  13.851  0.9040  0.8595 -0.2091
10738TIP3    H253706   3.542   1.303  13.931  0.2879  0.3100 -0.4464
10739TIP3   OH253707   2.978   2.044   0.209  0.3834  0.0952  0.5231
10739TIP3    H153708   3.006   2.039   0.118 -1.3837  1.1296 -0.1111
10739TIP3    H253709   2.962   2.137   0.224 -3.1742 -0.4229  0.6325
10740TIP3   OH253710   0.043   1.594   2.617 -0.6619  0.4838 -0.4343
10740TIP3    H153711   0.089   1.578   2.700  0.2017  1.7754 -0.6260
10740TIP3    H253712  -0.024   1.527   2.613 -1.1337  0.7723  1.6233
10741TIP3   OH253713   6.021   3.445   2.420  0.3221 -0.0692  0.1734
10741TIP3    H153714   6.045   3.384   2.351  1.6805 -0.2199  0.7398
10741TIP3    H253715   6.087   3.515   2.414  0.2263  0.1085  1.0453
10742TIP3   OH253716   5.220   5.287   6.537 -0.4852  0.6850  0.3513
10742TIP3    H153717   5.314   5.275   6.549 -0.1434  0.6673 -1.9292
10742TIP3    H253718   5.211   5.377   6.505 -1.0917  0.3312 -0.5277
10743TIP3   OH253719   1.174   3.266  15.771  0.0140 -0.1973  0.1066
10743TIP3    H153720   1.163   3.308  15.686  0.2561 -1.3381 -0.5129
10743TIP3    H253721   1.250   3.310  15.810  1.8298 -1.6435 -1.5798
10744TIP3   OH253722   4.837   6.660   0.380  0.0946  0.4142  0.3765
10744TIP3    H153723   4.764   6.619   0.427  1.6546  0.7105  3.3170
10744TIP3    H253724   4.897   6.588   0.361 -1.0266  0.1012 -2.4159
10745TIP3   OH253725   0.544   0.734  14.856  0.1930  0.1402 -0.1650
10745TIP3    H153726   0.597   0.800  14.811  0.8582 -1.0840 -1.2479
10745TIP3    H253727   0.605   0.694  14.918 -0.6532  1.6452  1.7119
10746TIP3   OH253728   3.475   1.734   5.136 -0.0085 -0.6269  0.1476
10746TIP3    H153729   3.451   1.642   5.123  1.2375 -0.7740 -1.4998
10746TIP3    H253730   3.533   1.754   5.062 -1.4380  1.9127 -0.3974
10747TIP3   OH253731   2.153   4.159  10.830 -0.2084  0.0826  0.7211
10747TIP3    H153732   2.206   4.117  10.762  0.0199  0.7572  0.4732
10747TIP3    H253733   2.194   4.130  10.912  1.7637  2.0641  0.5265
10748TIP3   OH253734   2.629   1.771   0.434 -0.1803  0.3231  0.5834
10748TIP3    H153735   2.711   1.820   0.441  0.7517 -1.0106 -0.3661
10748TIP3    H253736   2.574   1.824   0.376  0.0617  1.1474  1.0878
10749TIP3   OH253737   1.552   4.562   6.069  0.0959  0.0319  0.5284
10749TIP3    H153738   1.549   4.634   6.006  0.5461  1.0387  1.6166
10749TIP3    H253739   1.636   4.573   6.113 -0.2219 -0.6410  1.3240
10750TIP3   OH253740   2.050   6.386  12.401 -0.6302  0.8329 -0.5159
10750TIP3    H153741   2.003   6.366  12.481  0.9590  1.5730  0.6533
10750TIP3    H253742   2.006   6.464  12.366 -0.4927  1.3199  0.3748
10751TIP3   OH253743   4.353   5.975   6.401 -0.2047 -0.9103  0.3180
10751TIP3    H153744   4.445   5.970   6.429 -0.2297  0.8878  0.8541
10751TIP3    H253745   4.307   5.915   6.460  0.3029 -0.0500  1.6309
10752TIP3   OH253746   0.443   3.247  14.705  0.3275 -0.0407 -0.5404
10752TIP3    H153747   0.516   3.289  14.660  0.6843  0.3106  0.3314
10752TIP3    H253748   0.482   3.214  14.787 -0.0951 -1.4782 -0.8988
10753TIP3   OH253749   4.769   0.423   2.538  0.4618 -0.0861 -0.1273
10753TIP3    H153750   4.796   0.340   2.499  0.1655 -0.7291  0.9951
10753TIP3    H253751   4.681   0.439   2.503 -0.7707 -1.8081  1.8765
10754TIP3   OH253752   3.513   2.323  11.386 -0.2546 -0.0431 -0.8310
10754TIP3    H153753   3.434   2.376  11.397 -0.4755 -0.6535  0.8961
10754TIP3    H253754   3.585   2.384  11.399 -0.4988 -0.0191  0.5423
10755TIP3   OH253755   6.558   5.693  14.453  0.1498 -0.3618 -0.1497
10755TIP3    H153756   6.599   5.746  14.386  3.8400 -1.0698  1.3358
10755TIP3    H253757   6.487   5.647  14.407  1.2173  0.6529 -3.0272
10756TIP3   OH253758   3.803   2.281   4.367  0.1796 -0.1337  0.0459
10756TIP3    H153759   3.866   2.260   4.436  0.3116  0.2522  0.0463
10756TIP3    H253760   3.786   2.374   4.378 -1.1624 -0.4266  0.6801
10757TIP3   OH253761   4.896   0.622  15.339  0.1379  0.2737  0.1250
10757TIP3    H153762   4.898   0.555  15.407 -3.9430  0.3799  0.6116
10757TIP3    H253763   4.936   0.699  15.380  3.2042 -1.1756  0.1772
10758TIP3   OH253764   5.756   6.050   4.113  0.1848 -0.4013 -0.2195
10758TIP3    H153765   5.770   6.143   4.100 -1.5313 -0.2857 -1.5308
10758TIP3    H253766   5.817   6.007   4.053 -0.4675 -0.0637 -1.1399
10759TIP3   OH253767   4.563   5.301  14.882  0.4333  0.1865  0.6060
10759TIP3    H153768   4.621   5.280  14.956  0.2361 -2.2051  0.1394
10759TIP3    H253769   4.477   5.269  14.909  0.2595 -0.2894 -0.4658
10760TIP3   OH253770   3.370   0.982   1.854 -0.2210  0.1410 -0.1231
10760TIP3    H153771   3.452   1.020   1.823  1.1507 -1.9249  0.7703
10760TIP3    H253772   3.341   0.926   1.782 -0.5647  0.4521 -0.2274
10761TIP3   OH253773   6.246   2.439  16.466  0.5467 -0.3102 -0.0789
10761TIP3    H153774   6.281   2.433  16.377  1.2014 -0.0935  0.1549
10761TIP3    H253775   6.175   2.503  16.460  1.4860  0.7518 -0.1884
10762TIP3   OH253776   2.680   2.058  13.772 -0.6481  0.3971  0.1735
10762TIP3    H153777   2.644   1.970  13.767  0.6063 -0.0862 -1.1218
10762TIP3    H253778   2.664   2.095  13.685  3.4183 -0.4929 -1.1545
10763TIP3   OH253779   5.259   2.309  15.971  0.2376 -0.2817 -0.3012
10763TIP3    H153780   5.316   2.271  15.904  1.0081 -0.5894  0.5048
10763TIP3    H253781   5.318   2.335  16.041 -0.5380  0.1777  0.2008
10764TIP3   OH253782   0.740   1.218  10.765 -0.0998  0.5880 -0.1329
10764TIP3    H153783   0.830   1.203  10.793  0.6889 -0.9927 -3.1142
10764TIP3    H253784   0.710   1.132  10.735 -1.6651  1.6075 -1.6561
10765TIP3   OH253785   4.068   0.823   5.215  0.4120  0.4607  0.1829
10765TIP3    H153786   4.049   0.905   5.260  1.4050 -0.0446  1.5787
10765TIP3    H253787   4.137   0.782   5.267 -0.5329 -1.5935 -0.0913
10766TIP3   OH253788   5.296   3.787   0.142  0.3989 -0.8119 -0.5083
10766TIP3    H153789   5.215   3.815   0.184 -0.6048 -2.0912 -1.4988
10766TIP3    H253790   5.315   3.857   0.079  0.9208  0.2257  0.7645
10767TIP3   OH253791   6.105   4.200   0.047  0.6355 -0.2407 -0.2212
10767TIP3    H153792   6.124   4.257  -0.028  0.1604  0.8137  0.4225
10767TIP3    H253793   6.010   4.188   0.044  0.6018 -0.1239  0.2401
10768TIP3   OH253794   1.455   6.240   6.576 -0.0367 -0.2303 -0.0335
10768TIP3    H153795   1.511   6.251   6.499  0.5549  0.2435  0.4552
10768TIP3    H253796   1.370   6.273   6.548 -0.4505 -2.1102 -1.1831
10769TIP3   OH253797   0.359   6.593  11.376  0.5575 -0.0050 -0.0637
10769TIP3    H153798   0.387   6.668  11.324 -1.8418 -0.6189 -2.4130
10769TIP3    H253799   0.441   6.553  11.405  1.9884  4.1653  2.5337
10770TIP3   OH253800   2.867   1.959   4.494 -0.1749  0.7267 -0.2165
10770TIP3    H153801   2.825   1.889   4.545  2.2359 -0.3887  0.3998
10770TIP3    H253802   2.802   1.983   4.428 -0.8800 -2.6856 -0.9647
10771TIP3   OH253803   1.588   3.525  11.916 -0.1849 -0.3938 -0.0669
10771TIP3    H153804   1.522   3.473  11.962  0.6768 -0.9015  0.6230
10771TIP3    H253805   1.546   3.609  11.901 -0.4901 -0.1968  1.7079
10772TIP3   OH253806   2.594   1.929   1.001 -0.0670  0.5169 -0.4787
10772TIP3    H153807   2.550   1.848   0.976 -0.7670  0.4229  0.9311
10772TIP3    H253808   2.640   1.957   0.922  0.2029 -1.2563 -0.9922
10773TIP3   OH253809   3.375   6.162   4.315 -0.3032  0.1447 -0.0271
10773TIP3    H153810   3.347   6.235   4.371 -0.2915 -0.1829  0.4116
10773TIP3    H253811   3.398   6.204   4.232  2.1804  1.0260  1.0011
10774TIP3   OH253812   2.449   1.777   1.918 -0.0395  0.3217 -0.2631
10774TIP3    H153813   2.409   1.780   2.005 -0.8236  1.6925 -0.6443
10774TIP3    H253814   2.385   1.818   1.861  1.8995  2.7033 -0.8877
10775TIP3   OH253815   1.991   1.216   4.014 -0.5484 -0.2383 -0.1970
10775TIP3    H153816   1.939   1.193   4.090  1.9726 -2.2716  1.0626
10775TIP3    H253817   1.968   1.151   3.948 -1.5079  0.5074 -0.6194
10776TIP3   OH253818   3.445   0.932  13.055 -0.4309 -0.0274 -0.0061
10776TIP3    H153819   3.403   0.856  13.095  1.6906  0.3550  3.2880
10776TIP3    H253820   3.534   0.904  13.036 -0.5929  0.6673 -2.0979
10777TIP3   OH253821   4.331   5.217  16.628 -0.6533  0.6139  0.2662
10777TIP3    H153822   4.393   5.261  16.570 -0.4211 -1.4571 -1.1552
10777TIP3    H253823   4.386   5.174  16.694 -0.7816  1.2170  0.7705
10778TIP3   OH253824   3.987   5.068   1.987 -0.0517  0.5242  0.0130
10778TIP3    H153825   3.948   5.035   2.068  2.0019  2.0350  1.7022
10778TIP3    H253826   4.059   5.008   1.969 -1.5415 -0.8611 -1.7920
10779TIP3   OH253827   2.946   5.409  16.324 -0.0959  0.0838 -0.5630
10779TIP3    H153828   2.852   5.398  16.314 -0.3055  0.4531  0.9189
10779TIP3    H253829   2.978   5.420  16.234 -1.6471  1.5166 -0.9889
10780TIP3   OH253830   2.659   6.317   6.593 -0.3347 -0.1677 -0.4314
10780TIP3    H153831   2.680   6.375   6.519 -0.3777 -0.8612 -1.0060
10780TIP3    H253832   2.613   6.244   6.553 -1.5864  0.0887  0.4800
10781TIP3   OH253833   4.110   2.294  15.780  0.0667  0.2125 -0.2954
10781TIP3    H153834   4.037   2.278  15.839 -0.0286  0.2780 -0.3959
10781TIP3    H253835   4.131   2.387  15.792 -0.0510  0.2622 -0.4763
10782TIP3   OH253836   0.221   0.531  12.278 -0.0758 -0.1916 -0.0214
10782TIP3    H153837   0.175   0.532  12.362  1.6168  1.0874  0.9615
10782TIP3    H253838   0.291   0.468  12.290  0.2964  0.1454 -0.4025
10783TIP3   OH253839   3.255   6.102  12.435  0.5997 -0.2862  0.2464
10783TIP3    H153840   3.259   6.173  12.371  1.8059  0.0531  0.6678
10783TIP3    H253841   3.222   6.027  12.385 -1.3456  0.7051 -0.0407
10784TIP3   OH253842   6.129   0.079  11.197 -0.3321  0.2686  0.0338
10784TIP3    H153843   6.043   0.111  11.172  0.0228  0.6515 -0.7441
10784TIP3    H253844   6.115   0.032  11.279 -1.2140  0.6321  0.0979
10785TIP3   OH253845   0.145   6.059  12.520  0.0950 -0.2161 -1.1275
10785TIP3    H153846   0.161   6.143  12.476 -0.9007  0.5429 -0.0679
10785TIP3    H253847   0.052   6.044  12.509 -0.1189 -0.1478  0.4662
10786TIP3   OH253848   0.990   4.375   5.700 -0.0668 -0.4275 -0.5435
10786TIP3    H153849   0.903   4.373   5.741 -0.0821 -1.0545 -0.5917
10786TIP3    H253850   1.043   4.426   5.760 -0.5178  0.1427 -0.6161
10787TIP3   OH253851   5.405   4.581   4.302 -0.0993  0.4652  0.2104
10787TIP3    H153852   5.427   4.585   4.395  0.7162 -3.2204  0.3199
10787TIP3    H253853   5.451   4.504   4.269 -2.2807  0.2152 -2.7196
10788TIP3   OH253854   3.922   5.189  14.646  0.5201 -0.0573 -0.0419
10788TIP3    H153855   3.915   5.144  14.562 -0.5236 -1.0238  0.5356
10788TIP3    H253856   3.845   5.245  14.651  0.5111 -0.0945  0.3119
10789TIP3   OH253857   6.010   4.295   0.583  0.1133  0.0311  0.5903
10789TIP3    H153858   6.003   4.200   0.591  0.0909  0.0355  0.6203
10789TIP3    H253859   6.049   4.308   0.497  0.0191 -0.0019  0.5417
10790TIP3   OH253860   2.345   2.633  16.861 -0.7810  0.1367 -0.3358
10790TIP3    H153861   2.409   2.696  16.829 -0.1946  0.0403  0.6037
10790TIP3    H253862   2.285   2.685  16.915 -0.1292 -0.1237  0.6775
10791TIP3   OH253863   2.861   3.233   4.650 -0.3371  0.1422  0.1589
10791TIP3    H153864   2.893   3.313   4.609 -2.8173  1.0899 -0.1084
10791TIP3    H253865   2.835   3.177   4.577  0.5879 -0.5866  0.3675
10792TIP3   OH253866   3.087   4.908   4.486  0.6293  0.4307  0.0136
10792TIP3    H153867   3.084   4.939   4.395  0.8378  1.3894  0.3199
10792TIP3    H253868   3.152   4.838   4.484  0.7631  0.5564 -0.5504
10793TIP3   OH253869   1.492   0.408  12.830  0.1426 -0.6680 -0.3294
10793TIP3    H153870   1.448   0.493  12.830 -0.7479 -1.1129  1.0401
10793TIP3    H253871   1.543   0.408  12.748  0.7822  1.4876  0.0030
10794TIP3   OH253872   1.733   2.159   2.713 -0.1474 -0.1055  0.0799
10794TIP3    H153873   1.730   2.254   2.698  1.2343  0.1538  1.2290
10794TIP3    H253874   1.694   2.148   2.800  1.0837 -0.4078  0.6018
10795TIP3   OH253875   3.753   2.543   4.429  0.7478  0.5228  0.2524
10795TIP3    H153876   3.821   2.608   4.411 -1.4580  2.6253 -1.1699
10795TIP3    H253877   3.679   2.595   4.463 -1.4584 -1.0052 -1.8601
10796TIP3   OH253878   2.024   1.730   0.846 -0.3184  0.0891 -0.0165
10796TIP3    H153879   2.077   1.762   0.773 -2.2074  2.4721 -0.4487
10796TIP3    H253880   2.074   1.655   0.880  2.1651  0.8148 -1.7593
10797TIP3   OH253881   3.019   5.452   0.004  0.1064 -0.8803  0.0334
10797TIP3    H153882   2.981   5.537  -0.021  2.4625  0.8406  1.8334
10797TIP3    H253883   3.041   5.410  -0.080  0.0886  0.8944 -0.9119
10798TIP3   OH253884   1.040   4.190  14.705  0.1259  0.1581 -0.3410
10798TIP3    H153885   1.061   4.259  14.642  0.6269  0.9074  0.6151
10798TIP3    H253886   0.949   4.205  14.728 -0.0441 -0.0858 -0.8315
10799TIP3   OH253887   6.000   3.555  11.092 -0.3518  0.4336 -0.1452
10799TIP3    H153888   5.945   3.572  11.016 -0.4224  1.5167  0.1419
10799TIP3    H253889   6.090   3.559  11.058 -0.2808  2.8915  0.1483
10800TIP3   OH253890   2.618   6.752  11.547  0.1455 -0.2646  0.3175
10800TIP3    H153891   2.708   6.775  11.571  0.2148 -0.1595 -0.0471
10800TIP3    H253892   2.597   6.809  11.474  0.4532 -1.6313 -0.8762
10801TIP3   OH253893   4.661   5.801   4.423  0.4612 -0.2043 -0.1843
10801TIP3    H153894   4.642   5.709   4.444 -0.0990  0.0053  0.2608
10801TIP3    H253895   4.577   5.845   4.432  0.4974  0.1581 -1.5068
10802TIP3   OH253896   0.718   1.453   4.573 -0.1867 -0.0078  0.0063
10802TIP3    H153897   0.805   1.439   4.609 -0.5409 -1.4579  0.3458
10802TIP3    H253898   0.733   1.469   4.480  0.3112 -2.7481 -0.4469
10803TIP3   OH253899   3.566   1.752   1.341  0.1676  0.2639 -0.4888
10803TIP3    H153900   3.654   1.715   1.344  0.0284 -0.0639 -0.3869
10803TIP3    H253901   3.523   1.718   1.420  0.4587  1.7109  0.3086
10804TIP3   OH253902   2.267   4.554   2.948  0.3040  0.5143 -0.0995
10804TIP3    H153903   2.206   4.521   3.015 -1.2512  2.5826 -0.4023
10804TIP3    H253904   2.353   4.521   2.977 -0.3708  0.8491  2.6235
10805TIP3   OH253905   0.573   1.608   1.211 -0.2313 -0.4107 -0.0299
10805TIP3    H153906   0.629   1.542   1.171  2.4933  1.0924  1.0890
10805TIP3    H253907   0.586   1.686   1.158 -0.9507  0.1051  0.5302
10806TIP3   OH253908   3.516   5.336  14.117 -0.0130 -0.0278 -0.2692
10806TIP3    H153909   3.466   5.343  14.198 -1.0390  0.4966 -0.9246
10806TIP3    H253910   3.568   5.417  14.114 -0.9214  0.5549 -0.7315
10807TIP3   OH253911   1.476   1.086  11.232 -0.2724  0.2404 -0.3233
10807TIP3    H153912   1.540   1.156  11.250 -0.1434 -0.1655  0.8841
10807TIP3    H253913   1.510   1.042  11.154  0.8672  0.1105  0.2236
10808TIP3   OH253914   1.543   6.009  13.606  0.3493 -0.1099  0.1488
10808TIP3    H153915   1.553   6.104  13.604  0.9215 -0.1674  0.0834
10808TIP3    H253916   1.449   5.995  13.596  0.0515  0.4947  1.7268
10809TIP3   OH253917   2.492   0.562  14.904 -0.1279 -0.1698 -0.4448
10809TIP3    H153918   2.403   0.555  14.939  0.7069  1.6568  2.3157
10809TIP3    H253919   2.507   0.656  14.895  1.8324 -0.4121 -0.0033
10810TIP3   OH253920   3.865   0.818   3.816 -0.2431  0.0340 -0.4403
10810TIP3    H153921   3.936   0.879   3.835  1.1966 -1.4588 -0.8125
10810TIP3    H253922   3.801   0.833   3.885  2.2830 -1.3695  2.4412
10811TIP3   OH253923   5.354   6.456  13.993  0.2882 -0.1730  0.2170
10811TIP3    H153924   5.350   6.551  13.979  1.9500  0.1021  1.2764
10811TIP3    H253925   5.323   6.444  14.082 -0.9827 -0.7826 -0.2864
10812TIP3   OH253926   5.967   6.221  14.348  0.4071  0.4495 -0.0818
10812TIP3    H153927   5.990   6.302  14.392 -0.6640  0.4699  0.4714
10812TIP3    H253928   6.019   6.154  14.392 -0.2487  0.5461  0.8586
10813TIP3   OH253929   5.612   3.429   2.007 -0.3196 -0.6284  0.3642
10813TIP3    H153930   5.592   3.521   2.021  1.0495 -0.4209  1.1434
10813TIP3    H253931   5.692   3.413   2.058  0.6038 -1.7369 -1.3154
10814TIP3   OH253932   6.064   0.922  16.170  0.3583 -0.6771  0.0495
10814TIP3    H153933   6.037   0.878  16.089  0.1016 -0.6922  0.1449
10814TIP3    H253934   6.154   0.950  16.152 -0.1275  0.4788 -0.7292
10815TIP3   OH253935   5.786   6.600  15.901 -0.3105  0.0922 -0.0645
10815TIP3    H153936   5.746   6.597  15.988 -2.5484 -4.3865 -0.9630
10815TIP3    H253937   5.846   6.525  15.900 -1.6388 -1.0616 -2.8371
10816TIP3   OH253938   1.364   6.159  11.906  0.5937 -0.0197  0.1502
10816TIP3    H153939   1.273   6.162  11.934 -0.1764 -1.6630 -1.8811
10816TIP3    H253940   1.414   6.150  11.987 -1.0288  0.6974  1.2913
10817TIP3   OH253941   1.380   2.282  12.854 -0.1792  0.0666  0.1101
10817TIP3    H153942   1.361   2.374  12.869 -2.2083 -0.4131  0.7757
10817TIP3    H253943   1.397   2.246  12.941  1.4779 -0.0578 -0.2220
10818TIP3   OH253944   2.772   4.923   1.043 -0.3550 -0.2052 -0.2134
10818TIP3    H153945   2.766   5.000   0.987 -0.2055 -0.1619 -0.1706
10818TIP3    H253946   2.709   4.861   1.006  0.2112 -0.4259 -0.8173
10819TIP3   OH253947   3.764   1.147   3.833 -0.2881 -0.5709 -0.0272
10819TIP3    H153948   3.721   1.232   3.820  0.3412 -0.3962 -1.0534
10819TIP3    H253949   3.726   1.114   3.914  0.1407  1.1202  0.9253
10820TIP3   OH253950   4.451   0.697  13.832  0.6989  0.5091 -0.4308
10820TIP3    H153951   4.373   0.722  13.783  0.1638  0.1648  0.2348
10820TIP3    H253952   4.494   0.781  13.852  1.0116  0.6461 -1.6014
10821TIP3   OH253953   6.378   0.596   3.878 -0.4194 -0.1126 -0.0432
10821TIP3    H153954   6.293   0.638   3.872 -0.4598  0.1766  2.0498
10821TIP3    H253955   6.375   0.526   3.812 -1.6318  0.9096 -1.1310
10822TIP3   OH253956   2.777   1.389  10.729 -0.0186 -0.8116  0.2273
10822TIP3    H153957   2.783   1.294  10.727 -2.1816 -0.9902  0.6694
10822TIP3    H253958   2.806   1.414  10.817 -0.8489 -1.1972  0.6166
10823TIP3   OH253959   4.987   4.091  14.093 -0.1310  0.0477  0.2962
10823TIP3    H153960   4.942   4.171  14.120  0.5791  0.7624 -0.5763
10823TIP3    H253961   5.059   4.083  14.155  0.3886  0.6553 -0.2091
10824TIP3   OH253962   1.232   3.997   2.733  0.0276 -0.3216  0.4534
10824TIP3    H153963   1.244   4.076   2.682  0.2635 -0.4905  0.2455
10824TIP3    H253964   1.139   3.996   2.756 -0.2936 -0.7456 -0.8056
10825TIP3   OH253965   3.647   4.089   3.406  0.0428 -0.4077  0.1782
10825TIP3    H153966   3.669   4.182   3.410  1.1532 -0.6686  0.3314
10825TIP3    H253967   3.588   4.082   3.330 -0.7681  0.5456  0.6846
10826TIP3   OH253968   4.602   5.918  13.884  0.0488 -0.5182  0.2831
10826TIP3    H153969   4.605   5.865  13.963  0.1184  2.0376  2.1250
10826TIP3    H253970   4.554   5.865  13.821  2.5321 -3.9064  0.9553
10827TIP3   OH253971   1.104   1.422  14.430 -0.7899 -0.0453 -0.3486
10827TIP3    H153972   1.086   1.438  14.338 -0.0835  2.8074 -0.0754
10827TIP3    H253973   1.043   1.479  14.477  0.7185  0.6561  0.8398
10828TIP3   OH253974   5.214   5.290   2.403  0.2097 -0.5300 -0.0769
10828TIP3    H153975   5.157   5.315   2.476  0.8658 -0.6260  0.4780
10828TIP3    H253976   5.283   5.356   2.401 -0.1432 -0.1719 -1.0165
10829TIP3   OH253977   0.360   6.773  14.677  0.7052  0.0311 -0.1109
10829TIP3    H153978   0.280   6.821  14.657 -0.5476 -0.8921  2.2618
10829TIP3    H253979   0.424   6.840  14.702  0.2053  0.6932 -0.5913
10830TIP3   OH253980   3.860   5.009  12.618 -0.2432 -0.4200  0.8584
10830TIP3    H153981   3.816   4.965  12.691  1.5922 -1.4365  1.4307
10830TIP3    H253982   3.953   4.992  12.633  0.2307 -0.1201 -1.3853
10831TIP3   OH253983   1.250   5.597   5.837  0.0538  0.2470  0.3566
10831TIP3    H153984   1.247   5.516   5.786 -1.0558  0.5660 -0.1302
10831TIP3    H253985   1.342   5.624   5.835  0.3200 -0.6598 -0.0152
10832TIP3   OH253986   3.856   2.771   2.979  0.5256 -0.2363  0.3124
10832TIP3    H153987   3.860   2.692   2.925 -0.4574  0.3072 -0.5720
10832TIP3    H253988   3.816   2.837   2.923 -0.5104  0.3450  1.6905
10833TIP3   OH253989   3.505   2.443  16.765 -0.1743  0.0219  0.0527
10833TIP3    H153990   3.448   2.512  16.800 -2.8034 -0.9698 -1.9328
10833TIP3    H253991   3.490   2.369  16.823  0.4365  0.2546  0.5163
10834TIP3   OH253992   5.767   4.600   5.452  0.2519  0.0343  0.0450
10834TIP3    H153993   5.854   4.640   5.445  1.1426 -1.4773  1.8501
10834TIP3    H253994   5.742   4.582   5.361  1.3923  1.2980 -0.5675
10835TIP3   OH253995   6.244   1.442  16.323 -0.4466 -0.8210 -0.0856
10835TIP3    H153996   6.186   1.431  16.398  0.2967 -0.6853  0.5104
10835TIP3    H253997   6.287   1.526  16.336  0.8232 -1.4746  0.1353
10836TIP3   OH253998   1.546   5.326  11.873 -0.5736  0.6044 -0.4976
10836TIP3    H153999   1.573   5.394  11.935  0.1828 -0.1694  0.0485
10836TIP3    H254000   1.504   5.259  11.928 -0.6133  0.2751 -0.9268
10837TIP3   OH254001   1.160   4.806   3.277 -0.0950  0.0419 -0.4185
10837TIP3    H154002   1.193   4.718   3.257  0.7735 -0.1008  1.4762
10837TIP3    H254003   1.230   4.848   3.326 -1.1876  1.1591  0.2617
10838TIP3   OH254004   0.480   0.777   4.607  0.3865  1.1899 -0.0316
10838TIP3    H154005   0.387   0.796   4.597  0.3710  1.8450  1.2353
10838TIP3    H254006   0.484   0.684   4.628  0.1856  0.6679 -2.0527
10839TIP3   OH254007   2.351   0.919  13.069 -0.0636  0.1948  0.6313
10839TIP3    H154008   2.414   0.972  13.118  0.5803 -0.6861  0.7774
10839TIP3    H254009   2.267   0.937  13.112  0.1079  1.1982  0.5866
10840TIP3   OH254010   3.114   5.137  11.803  0.4209  0.2078 -0.0130
10840TIP3    H154011   3.150   5.215  11.847 -1.9460  0.6690  1.2897
10840TIP3    H254012   3.142   5.146  11.712  2.4375  1.1466  0.6307
10841TIP3   OH254013   5.476   3.621  13.984 -0.5749 -0.3542  0.5039
10841TIP3    H154014   5.555   3.627  14.036 -0.5556 -0.4402  0.4864
10841TIP3    H254015   5.424   3.552  14.027 -0.3023 -0.8397  0.0773
10842TIP3   OH254016   5.454   1.186   1.612  0.1808 -0.1149 -0.3065
10842TIP3    H154017   5.469   1.263   1.556  1.8442 -0.1063  0.1014
10842TIP3    H254018   5.401   1.127   1.559  1.5880 -0.0435 -1.8692
10843TIP3   OH254019   1.413   3.864   4.021 -0.0893 -0.8435  1.1565
10843TIP3    H154020   1.395   3.943   4.072  1.4967  1.2400 -1.2382
10843TIP3    H254021   1.329   3.841   3.981 -0.1224  1.1784 -0.0553
10844TIP3   OH254022   1.439   1.047  10.408 -0.4161  0.5018 -0.2393
10844TIP3    H154023   1.354   1.029  10.449 -0.1794  0.2941  0.1662
10844TIP3    H254024   1.442   1.143  10.401 -0.0461  0.6243  1.1711
10845TIP3   OH254025   3.017   6.627  15.534  0.0160  0.4054 -0.2601
10845TIP3    H154026   3.065   6.627  15.617 -2.7033  1.8835  1.4806
10845TIP3    H254027   3.046   6.547  15.490  1.2691 -0.7065  2.3312
10846TIP3   OH254028   2.015   1.704  11.270  0.4254  0.4632 -0.2471
10846TIP3    H154029   2.073   1.656  11.211 -0.4663 -0.1457 -0.6419
10846TIP3    H254030   2.067   1.717  11.349  0.9253 -0.5268 -0.4018
10847TIP3   OH254031   4.439   5.028  14.719 -0.2739 -0.4214  0.2389
10847TIP3    H154032   4.499   4.988  14.656  1.9082  1.3573  1.0292
10847TIP3    H254033   4.480   5.011  14.804 -0.6395  1.1766  0.7692
10848TIP3   OH254034   1.226   0.757   0.782  0.8083  0.1584 -0.3944
10848TIP3    H154035   1.277   0.708   0.846 -0.2533  0.5638  0.8022
10848TIP3    H254036   1.266   0.843   0.779 -0.4508  0.8677  1.4390
10849TIP3   OH254037   0.230   5.007  16.212  0.2795  0.2296  0.0883
10849TIP3    H154038   0.150   4.955  16.207 -0.7635  1.6995  0.8275
10849TIP3    H254039   0.270   4.999  16.126 -1.2570  0.3662 -0.6657
10850TIP3   OH254040   0.818   5.204   2.493  0.2153  0.1536  0.1498
10850TIP3    H154041   0.785   5.190   2.581 -1.1390  0.4750 -0.2804
10850TIP3    H254042   0.895   5.260   2.505  0.3614 -0.2409  1.1538
10851TIP3   OH254043   5.540   0.178   1.965  0.0865  0.7875 -0.0427
10851TIP3    H154044   5.449   0.203   1.980 -0.7601 -0.1465 -2.8579
10851TIP3    H254045   5.576   0.250   1.913  0.2683  0.2358 -0.7114
10852TIP3   OH254046   4.877   1.137   1.720 -0.3455  0.3742 -0.0575
10852TIP3    H154047   4.865   1.071   1.652 -0.1525  0.2539  0.0242
10852TIP3    H254048   4.930   1.205   1.678 -0.1969  0.2836 -0.0172
10853TIP3   OH254049   2.431   5.795  14.237 -0.0462  0.2941  0.2465
10853TIP3    H154050   2.375   5.744  14.295  0.8948 -0.0369  0.8798
10853TIP3    H254051   2.389   5.882  14.234 -0.1039  0.3237  1.4441
10854TIP3   OH254052   1.665   3.295  13.839  0.3099  0.7429  0.2232
10854TIP3    H154053   1.752   3.319  13.871 -0.2330  1.2025  1.4433
10854TIP3    H254054   1.619   3.263  13.917  0.4152 -2.7217 -0.9759
10855TIP3   OH254055   3.404   5.674  11.193  0.7500 -0.0736 -0.1620
10855TIP3    H154056   3.371   5.639  11.110  1.1681 -1.1043  0.0801
10855TIP3    H254057   3.494   5.640  11.199  0.6077 -0.3075  0.8657
10856TIP3   OH254058   4.358   2.792   5.025  0.0656 -0.3460 -0.2351
10856TIP3    H154059   4.437   2.749   5.058 -0.0259  0.2868  0.8652
10856TIP3    H254060   4.289   2.762   5.084 -0.1455  0.6453  0.0409
10857TIP3   OH254061   3.727   0.337  13.327  0.4677  0.2843  0.1663
10857TIP3    H154062   3.788   0.410  13.318  1.1782 -0.1316  1.3175
10857TIP3    H254063   3.746   0.302  13.414 -0.5154 -0.6801  0.0042
10858TIP3   OH254064   1.678   5.322   5.038  0.0490 -0.0897 -0.0662
10858TIP3    H154065   1.636   5.245   4.999 -0.7315  0.8475 -1.1350
10858TIP3    H254066   1.771   5.311   5.018 -0.0882 -0.6400 -0.4234
10859TIP3   OH254067   1.994   0.099  14.194 -0.1357 -0.7188 -0.1808
10859TIP3    H154068   1.932   0.103  14.266 -0.6682 -2.6225 -0.4784
10859TIP3    H254069   1.997   0.189  14.160  0.9557  0.5051  2.8171
10860TIP3   OH254070   6.305   5.596   4.753  0.8123  0.2725 -0.3546
10860TIP3    H154071   6.236   5.599   4.687  1.3241  0.1640 -0.9070
10860TIP3    H254072   6.348   5.681   4.746  2.2540 -0.5189 -1.7012
10861TIP3   OH254073   0.694   5.665  11.367 -0.0164  0.0313 -0.5381
10861TIP3    H154074   0.716   5.644  11.276 -0.1991 -1.1260 -0.3286
10861TIP3    H254075   0.634   5.740  11.360  0.6541  0.5148 -1.3138
10862TIP3   OH254076   4.002   1.392  14.922  0.1190 -0.1685  0.6985
10862TIP3    H154077   3.986   1.314  14.869  2.9268 -0.1435 -0.3481
10862TIP3    H254078   4.006   1.463  14.857  1.4236  0.2025  1.1562
10863TIP3   OH254079   0.718   0.823   4.889 -0.1992  0.0207 -0.5821
10863TIP3    H154080   0.636   0.774   4.892 -0.5022  0.5443  0.1108
10863TIP3    H254081   0.693   0.912   4.913  0.8493 -0.2168  1.7162
10864TIP3   OH254082   0.288   3.849  15.050 -0.4518 -0.2953 -0.2650
10864TIP3    H154083   0.277   3.754  15.044  0.6027 -0.3731 -1.2988
10864TIP3    H254084   0.383   3.863  15.043 -0.6943  0.9149 -1.7067
10865TIP3   OH254085   4.440   5.200   0.247  0.4475  0.0211 -0.1504
10865TIP3    H154086   4.466   5.217   0.338  1.1305  0.9606 -0.4979
10865TIP3    H254087   4.368   5.260   0.231  1.5522  1.2250 -0.7770
10866TIP3   OH254088   3.042   5.461   2.143  0.1098  0.2077 -0.0292
10866TIP3    H154089   2.988   5.407   2.086  0.6010  0.2265 -0.5280
10866TIP3    H254090   2.983   5.489   2.213 -0.3517 -0.3036 -0.2059
10867TIP3   OH254091   5.953   2.217  13.140  0.2458  0.0786  0.3231
10867TIP3    H154092   6.016   2.162  13.186  0.5556  0.6832  0.6337
10867TIP3    H254093   5.930   2.168  13.062  1.7410  0.2199 -0.2291
10868TIP3   OH254094   1.448   6.307  12.919  0.4440 -0.4055  0.1000
10868TIP3    H154095   1.439   6.216  12.892 -5.2002  0.0251 -0.6624
10868TIP3    H254096   1.430   6.358  12.840  1.7490  1.3716  0.8819
10869TIP3   OH254097   6.552   1.852  13.930  0.1293 -0.4545 -0.8857
10869TIP3    H154098   6.632   1.811  13.964  1.0027  2.1371  0.4090
10869TIP3    H254099   6.560   1.845  13.835  2.3074  0.4004 -0.8203
10870TIP3   OH254100   4.943   1.423  14.900 -0.0209  0.4165  0.6052
10870TIP3    H154101   4.943   1.516  14.878  0.8212  0.1723 -0.5367
10870TIP3    H254102   4.995   1.418  14.980 -0.8700  1.0196  1.2163
10871TIP3   OH254103   1.611   2.492  15.440  0.9146  0.5417 -0.5454
10871TIP3    H154104   1.604   2.398  15.452  0.0072  0.6275 -0.3817
10871TIP3    H254105   1.677   2.520  15.504 -0.1963  0.2828  0.7527
10872TIP3   OH254106   0.553   0.353   0.722 -0.1668  0.9049  0.1785
10872TIP3    H154107   0.483   0.332   0.660  0.9136 -2.2433 -0.1590
10872TIP3    H254108   0.529   0.307   0.802  0.8376  0.9094  0.4976
10873TIP3   OH254109   6.253   4.625   6.433 -0.5821  0.1980  0.1740
10873TIP3    H154110   6.186   4.659   6.493 -1.4010  0.4648 -0.8464
10873TIP3    H254111   6.202   4.592   6.358  0.3452 -1.0646  0.0718
10874TIP3   OH254112   3.160   3.977   6.611  0.1560  0.1825 -0.5304
10874TIP3    H154113   3.131   4.011   6.526 -2.3359 -0.2936  0.0484
10874TIP3    H254114   3.220   3.906   6.590  0.8137  1.0874 -1.8423
10875TIP3   OH254115   3.275   5.061   2.090  0.1786  0.2270  0.4127
10875TIP3    H154116   3.349   5.119   2.069 -0.7079  0.5531 -2.1721
10875TIP3    H254117   3.202   5.096   2.038 -0.9195 -2.0351  0.3196
10876TIP3   OH254118   6.121   4.908   0.751  0.8517  0.4483  0.0489
10876TIP3    H154119   6.066   4.948   0.684  0.2479  0.7483  0.7127
10876TIP3    H254120   6.094   4.950   0.833  0.4730 -1.0218  0.7171
10877TIP3   OH254121   1.029   0.059   2.104  0.2398 -0.5145 -0.3700
10877TIP3    H154122   0.952   0.045   2.049  1.1092 -1.4759 -1.3858
10877TIP3    H254123   1.032   0.153   2.118 -0.6336 -0.3785 -1.0180
10878TIP3   OH254124   3.003   4.873   6.672  0.7872 -0.1794  0.0708
10878TIP3    H154125   3.003   4.877   6.576  0.6213 -1.6806 -0.0124
10878TIP3    H254126   2.931   4.814   6.694  0.0351  1.1047  1.1975
10879TIP3   OH254127   4.434   6.272   6.123  0.0759  0.3285 -0.5623
10879TIP3    H154128   4.440   6.357   6.167 -0.3214 -0.4341  1.0513
10879TIP3    H254129   4.427   6.209   6.194  1.0730 -1.1413 -1.7068
10880TIP3   OH254130   0.854   1.389   0.041 -0.0542 -0.1517  0.6131
10880TIP3    H154131   0.947   1.374   0.057 -0.1487 -0.2326  1.1146
10880TIP3    H254132   0.824   1.312  -0.006  0.3727  0.3768 -0.5589
10881TIP3   OH254133   0.374   0.472  11.388  0.1319 -0.1714  0.2386
10881TIP3    H154134   0.317   0.546  11.366 -0.2261 -0.4240  0.3105
10881TIP3    H254135   0.314   0.399  11.403  0.5522 -0.9506 -1.5778
10882TIP3   OH254136   6.363   1.601  10.676  0.2624 -0.1272  0.1588
10882TIP3    H154137   6.379   1.622  10.584  1.6644 -0.0613  0.4009
10882TIP3    H254138   6.292   1.537  10.674  0.4500 -0.3196 -0.9830
10883TIP3   OH254139   2.675   2.428   2.572  0.1397 -0.3527 -0.1690
10883TIP3    H154140   2.638   2.484   2.639 -0.6428  0.4972 -1.2718
10883TIP3    H254141   2.664   2.339   2.606  1.3463  0.1138  1.5696
10884TIP3   OH254142   5.933   6.669  12.249  0.1342  0.3590 -0.7665
10884TIP3    H154143   5.861   6.732  12.235 -0.0258  0.1578 -0.8551
10884TIP3    H254144   5.889   6.588  12.275  0.4394  0.9617  1.9635
10885TIP3   OH254145   1.941   1.134  15.054  0.4770  0.1121  0.7467
10885TIP3    H154146   1.869   1.143  14.992  0.8406 -0.0722  0.2939
10885TIP3    H254147   1.940   1.215  15.104  0.2458  0.3037  0.4346
10886TIP3   OH254148   0.153   4.421   3.537  0.2095 -0.2460 -0.6827
10886TIP3    H154149   0.088   4.477   3.494  0.2152 -1.3905 -2.2627
10886TIP3    H254150   0.186   4.474   3.610 -0.8641  1.2149 -1.2141
10887TIP3   OH254151   2.505   2.280  13.225  0.2552 -0.2803 -0.1354
10887TIP3    H154152   2.491   2.241  13.139  2.0223 -1.7738  0.1762
10887TIP3    H254153   2.583   2.335  13.214  0.0381  0.1311  0.3279
10888TIP3   OH254154   3.482   3.196   0.202  0.0125 -0.0525  0.1245
10888TIP3    H154155   3.527   3.228   0.123 -1.1663  2.0839  0.2422
10888TIP3    H254156   3.389   3.209   0.183 -0.4504 -1.7768  0.9841
10889TIP3   OH254157   6.076   5.803  12.128  0.2829 -0.0789 -0.3314
10889TIP3    H154158   5.998   5.858  12.123  1.2082  1.4997  1.4559
10889TIP3    H254159   6.146   5.862  12.155  1.5144 -1.9491  0.8458
10890TIP3   OH254160   5.073   1.531   2.972  0.2654  0.0282  0.2209
10890TIP3    H154161   5.083   1.495   3.059  0.6288 -0.8509 -0.1755
10890TIP3    H254162   5.151   1.502   2.924  1.0548  2.0895  0.1251
10891TIP3   OH254163   5.128   5.797   3.265  0.1603 -0.0331  0.4675
10891TIP3    H154164   5.165   5.720   3.222  1.6324  0.5030  0.7062
10891TIP3    H254165   5.124   5.773   3.358 -0.9105 -0.3886  0.3393
10892TIP3   OH254166   0.193   2.608  15.398  0.3155  0.3443  0.7921
10892TIP3    H154167   0.247   2.540  15.356 -0.9268  0.0862 -0.4599
10892TIP3    H254168   0.180   2.673  15.329 -0.6844  0.5606  1.1778
10893TIP3   OH254169   2.753   3.257   5.219  0.8045  0.5122 -0.7317
10893TIP3    H154170   2.741   3.169   5.256  0.5715  0.2642 -1.3798
10893TIP3    H254171   2.835   3.252   5.171 -0.0266  0.1473 -2.1611
10894TIP3   OH254172   5.667   2.944  16.784 -0.4366 -0.5610  0.1030
10894TIP3    H154173   5.609   2.947  16.860  0.3224  0.6980  0.6558
10894TIP3    H254174   5.711   3.028  16.784  0.3062 -0.9252 -1.1776
10895TIP3   OH254175   6.489   1.339  14.687 -0.1482  0.2078 -0.1037
10895TIP3    H154176   6.457   1.425  14.714 -1.5385 -0.2383 -0.2632
10895TIP3    H254177   6.568   1.358  14.636 -0.5585  1.4090 -0.3333
10896TIP3   OH254178   5.747   3.532   0.366 -0.2750 -0.2813 -1.0838
10896TIP3    H154179   5.803   3.455   0.355 -0.2976 -0.4242 -0.2062
10896TIP3    H254180   5.773   3.570   0.450 -1.6296 -0.4780 -0.5492
10897TIP3   OH254181   0.487   5.678   2.938  0.3427 -0.1748  0.3882
10897TIP3    H154182   0.496   5.773   2.929 -0.5162 -0.0117  1.0718
10897TIP3    H254183   0.558   5.653   2.997 -0.3159  0.2774  1.4037
10898TIP3   OH254184   5.406   0.392   0.294 -0.3679 -0.1750 -0.0984
10898TIP3    H154185   5.449   0.379   0.209  1.6407 -0.7560  0.9614
10898TIP3    H254186   5.325   0.341   0.287 -0.8821  0.7988 -2.0839
10899TIP3   OH254187   6.767   2.151  13.165 -0.0613  0.4765 -0.0169
10899TIP3    H154188   6.747   2.123  13.076  0.2097 -3.0204  0.8693
10899TIP3    H254189   6.695   2.209  13.189 -2.4575 -1.7988 -1.1549
10900TIP3   OH254190   6.210   2.974  13.383  0.0271  0.0339  0.6601
10900TIP3    H154191   6.304   2.966  13.398  0.1714 -1.4569 -0.7513
10900TIP3    H254192   6.197   3.066  13.360  1.4675 -0.1086 -0.9673
10901TIP3   OH254193   5.413   0.657   5.278  0.1868  1.1893  0.3621
10901TIP3    H154194   5.435   0.568   5.306  0.3785  1.7003  1.8984
10901TIP3    H254195   5.494   0.706   5.289 -0.0239  1.6505 -0.1136
10902TIP3   OH254196   6.055   1.512  11.627  0.1355  0.4943  0.0301
10902TIP3    H154197   5.967   1.516  11.590 -0.0589 -0.0008  0.4395
10902TIP3    H254198   6.110   1.481  11.555 -0.0787  0.4845 -0.1300
10903TIP3   OH254199   3.305   0.794   3.335  0.3640 -0.1029  0.2360
10903TIP3    H154200   3.255   0.847   3.397 -1.8510 -1.9657  0.1675
10903TIP3    H254201   3.393   0.832   3.338 -0.3906  1.7580  2.2510
10904TIP3   OH254202   3.601   6.564   1.699 -0.5945  0.2945  0.1479
10904TIP3    H154203   3.530   6.507   1.729 -2.6884  1.4208 -2.2097
10904TIP3    H254204   3.557   6.628   1.643  2.2694  1.3640 -1.0599
10905TIP3   OH254205   3.415   5.549  11.818  0.1736  0.5872  0.2453
10905TIP3    H154206   3.478   5.545  11.890 -1.0376  1.3383  1.3825
10905TIP3    H254207   3.354   5.618  11.843 -3.0154 -2.1732  0.7927
10906TIP3   OH254208   5.266   1.234   2.119  0.4907  0.1133 -0.4464
10906TIP3    H154209   5.194   1.202   2.064  0.8285  0.5009 -1.1253
10906TIP3    H254210   5.341   1.239   2.060  1.1400 -0.4693  0.2994
10907TIP3   OH254211   6.000   0.104   3.832 -0.2566  0.5750 -0.2568
10907TIP3    H154212   6.041   0.114   3.917 -0.4229 -1.5861  0.1226
10907TIP3    H254213   5.911   0.074   3.851 -0.8390  1.6217 -1.1684
10908TIP3   OH254214   2.992   5.286  15.474 -0.8454 -0.1533  0.4326
10908TIP3    H154215   2.981   5.286  15.570 -2.6988  0.4225  0.2544
10908TIP3    H254216   3.001   5.378  15.451 -1.8537 -0.1628 -0.0640
10909TIP3   OH254217   1.051   4.782  14.345 -0.5068  0.1506 -0.0079
10909TIP3    H154218   0.958   4.779  14.365 -0.8460  0.6922 -1.3670
10909TIP3    H254219   1.064   4.867  14.303  0.1767 -0.7181 -1.6577
10910TIP3   OH254220   5.934   4.336  16.694  0.1017  0.0582 -0.7981
10910TIP3    H154221   5.865   4.307  16.754  0.7509  0.0048 -0.0726
10910TIP3    H254222   5.934   4.431  16.701 -0.5409  0.1315 -1.5353
10911TIP3   OH254223   1.544   4.994  13.344 -0.1394 -0.5206 -0.2737
10911TIP3    H154224   1.497   4.950  13.273 -0.7722  0.2997 -0.3751
10911TIP3    H254225   1.612   5.045  13.301 -0.4926 -0.0613 -0.2967
10912TIP3   OH254226   2.590   2.853  15.814  0.0629 -0.1467  0.3677
10912TIP3    H154227   2.561   2.943  15.830  0.0769  0.0179 -0.5201
10912TIP3    H254228   2.510   2.807  15.787 -0.6168 -1.1475  3.5599
10913TIP3   OH254229   3.557   6.176  11.269 -0.0870 -0.0603 -0.0167
10913TIP3    H154230   3.525   6.262  11.241 -2.7499  0.2062  3.1914
10913TIP3    H254231   3.494   6.114  11.232 -0.7978 -0.1514  1.3024
10914TIP3   OH254232   5.756   0.090   3.561 -0.5931 -0.2677 -0.2303
10914TIP3    H154233   5.751   0.098   3.657 -0.5236  1.0679 -0.3221
10914TIP3    H254234   5.846   0.115   3.540 -0.5620 -0.7122 -0.6407
10915TIP3   OH254235   1.332   1.066   1.233  0.4692  0.1092  0.1260
10915TIP3    H154236   1.243   1.034   1.213  0.9233 -0.7828 -0.5496
10915TIP3    H254237   1.332   1.157   1.204 -0.6148  0.5133  1.3231
10916TIP3   OH254238   6.132   4.454  15.635 -0.0704 -0.2166  0.1802
10916TIP3    H154239   6.144   4.479  15.727  3.1193  0.6917 -0.3539
10916TIP3    H254240   6.109   4.536  15.591  3.5964  0.6189 -0.5080
10917TIP3   OH254241   6.787   2.011   6.625  0.3599  0.0097  0.8733
10917TIP3    H154242   6.718   2.074   6.604  0.5861  0.3205  1.0577
10917TIP3    H254243   6.843   2.010   6.547  1.5606  1.6416  1.6634
10918TIP3   OH254244   4.786   2.884   2.628 -0.2426  0.0654 -0.5258
10918TIP3    H154245   4.761   2.958   2.574  0.2071 -0.7147 -1.8425
10918TIP3    H254246   4.756   2.807   2.580 -0.9607 -0.6216  0.9561
10919TIP3   OH254247   5.052   5.828  15.205 -0.7098  0.6203  0.0118
10919TIP3    H154248   4.993   5.824  15.280 -1.3647  2.4746 -0.3536
10919TIP3    H254249   4.994   5.828  15.129 -0.1747  1.1464 -0.4031
10920TIP3   OH254250   4.888   6.459  11.062  0.0355 -0.0476 -0.5453
10920TIP3    H154251   4.973   6.419  11.044  0.0918 -0.4096  0.4591
10920TIP3    H254252   4.868   6.434  11.152 -2.1512 -1.8156 -1.4338
10921TIP3   OH254253   3.608   4.611   5.898  0.1349  0.0843 -0.5168
10921TIP3    H154254   3.538   4.676   5.895  1.5653  1.8761  1.5807
10921TIP3    H254255   3.632   4.597   5.806 -1.9470  0.4765 -1.1849
10922TIP3   OH254256   2.669   5.859   0.586 -0.6589 -0.6945  0.2330
10922TIP3    H154257   2.619   5.779   0.604 -0.0177 -1.0529  0.4716
10922TIP3    H254258   2.611   5.930   0.613 -1.1238 -1.0955  0.3006
10923TIP3   OH254259   0.321   1.521  15.317  0.1603 -0.3271  0.0703
10923TIP3    H154260   0.239   1.544  15.361  0.6820 -2.2029  2.1501
10923TIP3    H254261   0.384   1.585  15.348  0.2964 -1.0633  1.3753
10924TIP3   OH254262   4.779   1.952   1.470 -0.0484 -0.2800 -0.2369
10924TIP3    H154263   4.758   2.016   1.401  0.8771  1.1832  0.7611
10924TIP3    H254264   4.874   1.942   1.463 -0.1404 -1.2616 -0.1177
10925TIP3   OH254265   1.331   5.494   2.273  0.2255 -0.0641  0.6281
10925TIP3    H154266   1.326   5.588   2.291 -1.0675 -0.4801  2.8277
10925TIP3    H254267   1.272   5.481   2.199 -2.3260  0.4705  2.4300
10926TIP3   OH254268   1.619   3.434   4.117 -0.0504 -0.4388 -0.4153
10926TIP3    H154269   1.618   3.529   4.107 -1.4603 -0.4579 -0.6806
10926TIP3    H254270   1.709   3.413   4.140 -0.4825  1.4393  4.0633
10927TIP3   OH254271   4.701   0.514  16.067 -0.4348  0.6490 -0.1714
10927TIP3    H154272   4.729   0.563  15.990  0.1187  1.3274  0.4390
10927TIP3    H254273   4.605   0.519  16.065 -0.4074  2.5718  0.3281
10928TIP3   OH254274   5.597   1.877  14.244 -0.2041 -0.0728 -0.3633
10928TIP3    H154275   5.533   1.936  14.203 -1.2223 -1.0742 -0.2661
10928TIP3    H254276   5.548   1.832  14.313  0.1471 -2.0312 -1.3158
10929TIP3   OH254277   3.577   1.094  11.128 -0.5411 -0.5107 -0.3769
10929TIP3    H154278   3.534   1.125  11.048 -1.7804  1.4112  0.9604
10929TIP3    H254279   3.507   1.092  11.193  0.5040 -1.7549  0.7611
10930TIP3   OH254280   6.768   2.758   1.047  0.5477 -0.5442  0.2053
10930TIP3    H154281   6.705   2.728   0.982  0.3766 -0.5824  0.3890
10930TIP3    H254282   6.744   2.712   1.128 -1.7649  2.4374  1.4088
10931TIP3   OH254283   3.409   6.332   0.725 -0.6138  0.3741  0.4837
10931TIP3    H154284   3.371   6.342   0.812 -0.9565 -0.5364  0.4522
10931TIP3    H254285   3.343   6.369   0.666 -2.1393 -2.3440  0.3151
10932TIP3   OH254286   4.525   1.592  12.547  0.0850  0.3359  0.0237
10932TIP3    H154287   4.588   1.546  12.602  1.3883 -1.1343 -2.5276
10932TIP3    H254288   4.463   1.524  12.519 -1.2457  1.2885  0.5652
10933TIP3   OH254289   5.986   4.390  14.044 -0.0815 -0.0120 -0.5397
10933TIP3    H154290   5.911   4.380  13.986  0.1723  0.6257 -0.9849
10933TIP3    H254291   6.037   4.461  14.006  0.0510  0.4822  0.5171
10934TIP3   OH254292   1.015   1.158   0.923 -0.1304  0.1092 -0.0200
10934TIP3    H154293   1.034   1.241   0.966 -1.3699  0.3826  0.0174
10934TIP3    H254294   0.952   1.180   0.854 -0.4927 -0.7982  0.0079
10935TIP3   OH254295   0.139   0.425  13.939  0.1563  0.1478 -0.3945
10935TIP3    H154296   0.068   0.460  13.885  0.5484  0.4421 -0.7234
10935TIP3    H254297   0.097   0.359  13.994 -0.1447 -0.6193 -1.5113
10936TIP3   OH254298   3.628   2.789   3.487 -0.1888 -0.2817  1.0383
10936TIP3    H154299   3.680   2.762   3.564  1.5644 -1.1291 -0.3543
10936TIP3    H254300   3.656   2.729   3.418 -0.4963  1.4842 -0.7005
10937TIP3   OH254301   2.123   4.621  12.469 -0.6197 -0.1621  0.1736
10937TIP3    H154302   2.185   4.693  12.479 -0.5847  0.0400 -1.2968
10937TIP3    H254303   2.165   4.562  12.405 -1.6088 -0.3837 -0.2917
10938TIP3   OH254304   2.889   0.108   0.998 -0.4971 -0.5308 -0.3417
10938TIP3    H154305   2.875   0.013   0.996  0.8048 -0.7447 -0.0915
10938TIP3    H254306   2.882   0.131   1.090 -0.6580 -0.4018 -0.3855
10939TIP3   OH254307   0.158   0.209   3.929 -0.2204 -0.7084 -0.2961
10939TIP3    H154308   0.193   0.297   3.940  0.3527 -1.0675  0.8361
10939TIP3    H254309   0.067   0.216   3.958 -0.7241 -0.1002 -1.9094
10940TIP3   OH254310   0.768   2.049  12.136  0.5121  0.1945  0.2709
10940TIP3    H154311   0.778   1.955  12.124  2.8674  0.4173 -0.0191
10940TIP3    H254312   0.677   2.061  12.163 -0.8663 -1.7911 -2.9834
10941TIP3   OH254313   0.436   4.158   1.294 -0.7042 -0.1471  0.1567
10941TIP3    H154314   0.416   4.239   1.340  2.2222  1.4178 -1.0838
10941TIP3    H254315   0.459   4.096   1.364 -1.3373  0.5806  1.0250
10942TIP3   OH254316   2.762   2.355  13.085  0.1519  0.4791 -0.0313
10942TIP3    H154317   2.827   2.365  13.015  0.6546 -1.2674  0.1324
10942TIP3    H254318   2.799   2.287  13.142 -2.5344 -1.8576 -0.8342
10943TIP3   OH254319   6.798   1.922   1.479 -0.2075 -0.3350  0.0054
10943TIP3    H154320   6.824   1.847   1.533  0.4281  0.1035  0.3272
10943TIP3    H254321   6.879   1.971   1.466 -0.2284 -0.7500 -1.8699
10944TIP3   OH254322   1.119   1.895  16.561 -0.1909 -0.4311 -0.0143
10944TIP3    H154323   1.042   1.932  16.519 -0.7265 -0.3786  0.9736
10944TIP3    H254324   1.145   1.961  16.625  1.8001  0.3901 -1.5510
10945TIP3   OH254325   4.644   5.420   1.558 -0.1508  0.2672  0.7409
10945TIP3    H154326   4.635   5.341   1.505  2.3900  0.5185 -0.2065
10945TIP3    H254327   4.716   5.468   1.517 -1.6414  3.1261  1.2660
10946TIP3   OH254328   1.933   6.748  11.886 -0.1707  0.1675  0.5580
10946TIP3    H154329   1.953   6.717  11.974 -1.9455  0.4937  1.1259
10946TIP3    H254330   1.842   6.780  11.892 -0.4692 -0.1641 -1.4736
10947TIP3   OH254331   2.835   4.308   4.395 -0.0735 -0.2546 -0.8328
10947TIP3    H154332   2.822   4.393   4.353 -0.2841 -1.0109 -2.3747
10947TIP3    H254333   2.907   4.268   4.346 -1.2595 -1.7463 -1.4474
10948TIP3   OH254334   4.571   4.472  17.092  0.0470  0.7507 -0.6111
10948TIP3    H154335   4.575   4.398  17.153  1.9902  1.8980  0.7870
10948TIP3    H254336   4.479   4.500  17.094 -0.2161 -0.0960  0.7606
10949TIP3   OH254337   1.782   0.322  16.721  0.5035 -0.5206 -0.1374
10949TIP3    H154338   1.800   0.336  16.628  2.9720 -2.2055 -0.0121
10949TIP3    H254339   1.697   0.278  16.723  0.0830  0.1842 -1.5210
10950TIP3   OH254340   6.114   2.792  14.129 -0.2226  0.2179  0.5010
10950TIP3    H154341   6.106   2.777  14.035 -0.4634 -0.7750  0.6739
10950TIP3    H254342   6.204   2.824  14.140 -0.1044  0.0816 -0.0268
10951TIP3   OH254343   3.607   3.534  12.706 -0.5537  0.0994  0.0213
10951TIP3    H154344   3.650   3.614  12.738 -0.7105 -0.4076  1.5596
10951TIP3    H254345   3.660   3.463  12.741  0.0505 -0.5282 -1.9903
10952TIP3   OH254346   3.252   3.494  12.463  0.3274 -0.0854  0.6633
10952TIP3    H154347   3.213   3.500  12.375  0.9222  1.1005  0.4662
10952TIP3    H254348   3.235   3.579  12.503  3.2318  0.7655  0.3294
10953TIP3   OH254349   4.398   4.854   5.452  0.0588  0.2128  0.1015
10953TIP3    H154350   4.414   4.895   5.367  1.0947 -1.0235 -0.3256
10953TIP3    H254351   4.474   4.798   5.467 -0.2925  0.1025  1.6684
10954TIP3   OH254352   1.716   0.979   5.348 -0.4831  0.4051  0.2211
10954TIP3    H154353   1.784   1.046   5.336  0.7907 -0.6892  1.0316
10954TIP3    H254354   1.714   0.964   5.442 -0.6871 -0.7424  0.0484
10955TIP3   OH254355   5.979   4.672   3.088  0.1335 -0.3621 -0.5628
10955TIP3    H154356   6.029   4.688   3.168 -1.4336 -2.0083  0.8542
10955TIP3    H254357   6.028   4.717   3.019  1.8764  0.6110  1.2044
10956TIP3   OH254358   6.633   3.226  14.650 -0.0836  0.0697 -0.0824
10956TIP3    H154359   6.724   3.250  14.635  0.3511  0.2934  2.4967
10956TIP3    H254360   6.585   3.307  14.633  0.3644  0.3639  0.0342
10957TIP3   OH254361   1.634   4.631  10.527 -0.3708 -0.6648  0.0660
10957TIP3    H154362   1.669   4.565  10.467  1.2864 -0.3554  0.6306
10957TIP3    H254363   1.701   4.638  10.595 -0.5742  1.5016  0.0905
10958TIP3   OH254364   5.629   3.773   0.801  0.6680 -0.7932  0.0082
10958TIP3    H154365   5.587   3.831   0.864  0.8607 -1.3484  0.6627
10958TIP3    H254366   5.556   3.728   0.757  0.3166  2.1846 -2.8121
10959TIP3   OH254367   3.831   3.592  13.778  0.3163  0.3930  0.2406
10959TIP3    H154368   3.919   3.570  13.749  0.0965  0.0166 -0.1422
10959TIP3    H254369   3.773   3.537  13.725 -0.1020 -0.1334  1.2267
10960TIP3   OH254370   5.042   0.512  16.242  0.5772 -0.1769  0.1211
10960TIP3    H154371   5.046   0.551  16.154 -0.3997  1.0445  0.6001
10960TIP3    H254372   5.060   0.585  16.301 -0.9708 -0.4977  1.0287
10961TIP3   OH254373   2.384   0.631   5.787  0.4182  0.2630  0.2405
10961TIP3    H154374   2.376   0.537   5.772  3.2845  0.1186 -1.1633
10961TIP3    H254375   2.317   0.670   5.731 -2.0204 -0.9048  2.1908
10962TIP3   OH254376   1.856   4.112   3.830  0.6016  0.4019  0.5404
10962TIP3    H154377   1.781   4.149   3.876  1.7145  1.2536  1.7552
10962TIP3    H254378   1.873   4.029   3.875  1.4830  1.0740  1.4722
10963TIP3   OH254379   3.992   0.352   3.281  0.1602 -0.7599 -0.3985
10963TIP3    H154380   3.948   0.281   3.234 -1.4831 -0.6363  0.8580
10963TIP3    H254381   3.956   0.432   3.243  0.8641 -0.6093 -0.7644
10964TIP3   OH254382   2.191   3.236   4.394  0.4031  0.7389  1.0262
10964TIP3    H154383   2.276   3.196   4.407  0.1542  0.1861  0.9625
10964TIP3    H254384   2.196   3.276   4.307  0.3081 -0.0359  0.6583
10965TIP3   OH254385   1.150   0.841  16.372  0.0384  0.0248 -0.4566
10965TIP3    H154386   1.137   0.794  16.454 -0.9339 -0.2795 -0.7722
10965TIP3    H254387   1.159   0.933  16.398 -0.5567 -0.0319 -0.0273
10966TIP3   OH254388   3.891   4.040  15.276  0.8345 -0.2653 -0.1805
10966TIP3    H154389   3.889   3.965  15.217  0.7253  1.6354 -2.7569
10966TIP3    H254390   3.978   4.078  15.263  0.2653  1.0596 -0.3518
10967TIP3   OH254391   3.836   3.388   3.238  0.2213  0.2119 -0.4281
10967TIP3    H154392   3.931   3.393   3.254  0.1211 -0.4287  0.4337
10967TIP3    H254393   3.797   3.412   3.322 -0.4092  1.3747 -1.0259
10968TIP3   OH254394   4.989   5.519  16.850 -0.8065 -0.5259  0.5298
10968TIP3    H154395   4.931   5.581  16.806 -0.3299 -0.0777  0.5136
10968TIP3    H254396   4.963   5.523  16.942 -0.4917  0.0356  0.6012
10969TIP3   OH254397   4.616   4.926  13.556 -1.1166  0.4350 -0.2600
10969TIP3    H154398   4.601   4.832  13.549 -0.7767  0.3387  0.2061
10969TIP3    H254399   4.624   4.941  13.650  0.1551  0.7065 -0.3889
10970TIP3   OH254400   5.314   3.924   2.521 -0.6260 -0.9659 -0.4875
10970TIP3    H154401   5.232   3.879   2.503 -1.0805 -0.2001 -0.4024
10970TIP3    H254402   5.348   3.882   2.600 -1.4968 -0.5768  0.1127
10971TIP3   OH254403   6.068   5.850  11.538  0.0921  0.2178 -0.1490
10971TIP3    H154404   6.154   5.854  11.580  1.0524  1.2500 -2.1216
10971TIP3    H254405   6.058   5.935  11.495 -0.5578 -0.9892 -2.5186
10972TIP3   OH254406   1.373   0.193  12.299  0.5397  0.1984  0.6237
10972TIP3    H154407   1.341   0.276  12.264 -0.4134 -0.1805  0.5865
10972TIP3    H254408   1.343   0.127  12.237  1.1595 -0.2023  0.7361
10973TIP3   OH254409   0.006   3.538   2.558  0.4547  0.4496 -0.1185
10973TIP3    H154410   0.042   3.619   2.522  0.2534 -0.7720 -3.5184
10973TIP3    H254411   0.073   3.472   2.538 -0.5043 -0.6448  0.1858
10974TIP3   OH254412   5.964   5.941   2.983 -0.0988  0.0661 -0.7243
10974TIP3    H154413   5.913   5.998   2.925  1.3969  1.5775 -0.6271
10974TIP3    H254414   6.003   6.001   3.047  0.9499 -1.1721 -0.1709
10975TIP3   OH254415   5.260   4.511  16.093  0.0204  0.3639 -0.6715
10975TIP3    H154416   5.305   4.581  16.045  0.1532  2.2328  1.9839
10975TIP3    H254417   5.278   4.529  16.185 -2.8653 -1.1171  0.3057
10976TIP3   OH254418   2.995   2.509  14.506 -0.0897 -0.3763  0.2636
10976TIP3    H154419   3.018   2.601  14.495  2.8631 -1.1769 -1.1130
10976TIP3    H254420   2.930   2.493  14.437 -0.4706  0.6135  0.3724
10977TIP3   OH254421   1.631   1.769   4.532  0.1075 -0.2203  0.4817
10977TIP3    H154422   1.604   1.849   4.488 -2.4870 -0.5024  1.3597
10977TIP3    H254423   1.727   1.771   4.530  0.1195  1.2314 -2.3982
10978TIP3   OH254424   0.389   2.249   5.415  0.0028 -0.4851 -0.0978
10978TIP3    H154425   0.296   2.231   5.422 -0.1376 -0.0495 -0.8207
10978TIP3    H254426   0.399   2.297   5.333  0.8585 -0.5091 -0.0204
10979TIP3   OH254427   4.933   3.538   0.847 -0.3317 -0.4005 -0.6966
10979TIP3    H154428   4.950   3.515   0.938  0.5482  1.0784 -0.4540
10979TIP3    H254429   5.011   3.586   0.819 -1.1390  0.3336 -1.8098
10980TIP3   OH254430   3.794   0.967  13.239 -0.2579 -0.3346  0.1990
10980TIP3    H154431   3.789   0.903  13.168 -0.6563  1.0650 -1.0735
10980TIP3    H254432   3.711   0.956  13.287 -0.1769 -0.9847  0.1966
10981TIP3   OH254433   1.975   0.936   3.005  0.6384 -0.5596 -0.0873
10981TIP3    H154434   1.985   0.966   3.095 -0.2667 -1.6805  0.4024
10981TIP3    H254435   2.044   0.983   2.957  1.2283 -0.0585  1.1944
10982TIP3   OH254436   1.230   4.680   2.872 -0.3316  0.2248  0.1128
10982TIP3    H154437   1.184   4.758   2.903  0.7255  0.3689  1.4402
10982TIP3    H254438   1.312   4.679   2.923 -0.3977 -1.8457  0.2711
10983TIP3   OH254439   6.837   3.801   4.047 -0.7347  0.6077  0.4608
10983TIP3    H154440   6.858   3.846   4.129 -0.1222 -1.1070  1.2787
10983TIP3    H254441   6.788   3.723   4.074  0.0157 -0.3080 -0.7455
10984TIP3   OH254442   3.163   5.381  13.879 -0.0551  0.2792 -0.6498
10984TIP3    H154443   3.178   5.391  13.973  1.1011  0.4389 -0.8443
10984TIP3    H254444   3.236   5.327  13.848 -0.4116  0.2462 -1.4653
10985TIP3   OH254445   4.623   2.184  15.797  0.1266 -0.1790 -0.5552
10985TIP3    H154446   4.536   2.159  15.827 -0.0558  1.6601  0.5806
10985TIP3    H254447   4.613   2.274  15.768  1.1094 -0.7459 -2.9176
10986TIP3   OH254448   2.232   4.543   0.895  0.3187  0.1035  0.2333
10986TIP3    H154449   2.314   4.497   0.875 -0.0495 -0.2812 -0.3985
10986TIP3    H254450   2.217   4.524   0.988  0.4078 -0.6771  0.0935
10987TIP3   OH254451   5.259   4.296  15.274 -0.3341 -0.5502  0.8051
10987TIP3    H154452   5.275   4.340  15.190 -0.5647 -1.2798  0.3696
10987TIP3    H254453   5.214   4.361  15.327  1.0419  0.4005  0.8611
10988TIP3   OH254454   1.662   4.669  10.924  0.0097  0.3325  0.6225
10988TIP3    H154455   1.616   4.585  10.919 -0.1812  0.2712  2.7114
10988TIP3    H254456   1.719   4.669  10.847 -1.6695 -0.6637 -0.6950
10989TIP3   OH254457   6.197   6.196   2.668  0.3052  0.3714  0.1321
10989TIP3    H154458   6.188   6.103   2.647 -0.5598  0.2469  0.9666
10989TIP3    H254459   6.140   6.240   2.605 -3.8069 -0.1405  3.0880
10990TIP3   OH254460   6.608   1.488  10.720 -0.1059 -0.3441 -0.4637
10990TIP3    H154461   6.525   1.534  10.705  1.1343  2.1792 -0.0435
10990TIP3    H254462   6.623   1.440  10.638 -2.3461 -1.5913 -0.2329
10991TIP3   OH254463   6.754   5.194   4.710  0.0922 -0.1285  0.4001
10991TIP3    H154464   6.659   5.197   4.698 -0.2027 -1.9354  1.8367
10991TIP3    H254465   6.765   5.166   4.801  2.0172 -0.2353  0.1669
10992TIP3   OH254466   6.847   3.929  13.775  0.2096 -0.5046 -0.0766
10992TIP3    H154467   6.798   3.913  13.856  1.4418 -2.4112  0.3637
10992TIP3    H254468   6.918   3.987  13.802 -0.3889  0.3190 -0.2125
10993TIP3   OH254469   4.163   5.813  16.563 -0.3900 -0.4641  0.0582
10993TIP3    H154470   4.191   5.728  16.597 -1.8692 -0.4028  1.5663
10993TIP3    H254471   4.156   5.868  16.641  0.8398  1.1541 -0.9246
10994TIP3   OH254472   4.268   0.831   6.495  0.1618  0.0201  0.4276
10994TIP3    H154473   4.257   0.923   6.515  2.1320  0.3528  0.2596
10994TIP3    H254474   4.195   0.809   6.437 -1.3465  0.9619  1.8913
10995TIP3   OH254475   2.586   2.583  15.415 -0.0032  0.1797  0.4796
10995TIP3    H154476   2.572   2.498  15.455 -0.6480  0.3398  0.6060
10995TIP3    H254477   2.556   2.571  15.324  0.9956 -0.0466  0.1688
10996TIP3   OH254478   2.641   4.048   1.143  0.7560 -0.0323  0.2529
10996TIP3    H154479   2.727   4.089   1.144  1.7055 -1.9412  1.0641
10996TIP3    H254480   2.624   4.030   1.051  0.6669  1.3846 -0.0353
10997TIP3   OH254481   5.212   4.040  15.160  0.2421 -0.1948 -0.2349
10997TIP3    H154482   5.127   4.062  15.122  0.8078 -0.4544 -1.7238
10997TIP3    H254483   5.246   4.122  15.194 -0.3911 -0.0008 -0.0611
10998TIP3   OH254484   3.578   2.801   4.335 -0.2190  0.3562  0.0776
10998TIP3    H154485   3.623   2.749   4.268 -0.1688 -0.5215  0.7645
10998TIP3    H254486   3.508   2.744   4.366  1.2490 -0.2720  2.4792
10999TIP3   OH254487   4.163   1.893   1.973  0.2851 -0.3060  0.5558
10999TIP3    H154488   4.083   1.937   2.002  0.5143  0.2681  0.3353
10999TIP3    H254489   4.221   1.897   2.049  0.1871 -0.5240  0.6432
11000TIP3   OH254490   2.017   2.546   2.077 -0.0876 -0.2880  0.1923
11000TIP3    H154491   2.028   2.473   2.138  2.3954 -1.0327 -0.9902
11000TIP3    H254492   2.097   2.598   2.087 -1.0595  1.3460 -0.1917
11001TIP3   OH254493   6.016   6.748   1.735 -0.0259 -0.4062 -0.1486
11001TIP3    H154494   6.109   6.743   1.715  0.3120  1.0062  0.9477
11001TIP3    H254495   6.011   6.741   1.830 -1.3151 -3.4562 -0.3276
11002TIP3   OH254496   3.698   1.367  16.461 -0.2837 -0.2167  0.3166
11002TIP3    H154497   3.771   1.340  16.516 -0.2797  1.7026  1.3325
11002TIP3    H254498   3.707   1.461  16.452 -1.2261 -0.2446 -1.6692
11003TIP3   OH254499   2.239   4.611   3.251 -0.3684  0.3167  0.0985
11003TIP3    H154500   2.245   4.629   3.345  1.7469  0.6897 -0.0543
11003TIP3    H254501   2.285   4.528   3.240 -2.3817 -0.7955 -0.3798
11004TIP3   OH254502   4.669   2.794  15.284  0.3060  0.6423 -0.6240
11004TIP3    H154503   4.660   2.701  15.308 -0.6809  0.8676 -0.0668
11004TIP3    H254504   4.737   2.827  15.343 -0.0154  0.4908 -0.1611
11005TIP3   OH254505   3.313   5.553   0.040  0.3265 -0.5741 -0.4624
11005TIP3    H154506   3.363   5.472   0.043  0.3660 -0.5281  1.8002
11005TIP3    H254507   3.223   5.525   0.024  0.2959 -1.1026  0.5768
11006TIP3   OH254508   3.115   1.671  12.153  0.0684  0.6043  0.5224
11006TIP3    H154509   3.026   1.641  12.169  0.1918 -0.1015 -0.0834
11006TIP3    H254510   3.157   1.668  12.239 -0.1970 -0.0470  0.6353
11007TIP3   OH254511   4.446   0.874   5.683 -0.0568 -0.2481 -0.6244
11007TIP3    H154512   4.526   0.921   5.708 -0.4299 -0.3352  0.8170
11007TIP3    H254513   4.376   0.937   5.700 -0.3668 -0.4520 -1.1345
11008TIP3   OH254514   5.510   0.806   2.889  0.0397 -0.2458  0.2307
11008TIP3    H154515   5.561   0.790   2.810  0.9087  2.9669 -0.0036
11008TIP3    H254516   5.575   0.813   2.959 -0.3825  0.4164  0.5722
11009TIP3   OH254517   5.375   2.058  15.220 -0.0843  0.1497  0.4320
11009TIP3    H154518   5.393   1.991  15.155 -1.7507  1.0968 -1.0877
11009TIP3    H254519   5.394   2.015  15.304 -0.6295 -2.0781 -0.4907
11010TIP3   OH254520   2.313   4.167  13.740 -0.5561  0.3419 -0.2553
11010TIP3    H154521   2.368   4.134  13.669  0.2528  1.4797 -0.1748
11010TIP3    H254522   2.363   4.238  13.778 -0.7024 -0.6415  1.8924
11011TIP3   OH254523   5.346   4.282   5.947 -0.0617 -0.1206 -0.0327
11011TIP3    H154524   5.353   4.370   5.910 -1.9360  0.3320  0.6015
11011TIP3    H254525   5.426   4.272   5.999 -0.6032  1.8894  1.2943
11012TIP3   OH254526   0.169   1.522  15.009 -0.0168  0.5553  0.3709
11012TIP3    H154527   0.183   1.428  15.023  1.4135  0.5519 -0.8432
11012TIP3    H254528   0.114   1.549  15.083 -0.6388 -1.2675  0.6186
11013TIP3   OH254529   3.462   4.144   1.152  0.3122 -0.0839 -0.0530
11013TIP3    H154530   3.470   4.058   1.111  1.1713 -1.8658  3.4562
11013TIP3    H254531   3.552   4.170   1.171  0.0116  1.2377 -0.3217
11014TIP3   OH254532   3.610   6.121  14.232 -0.1578  0.0554 -0.1476
11014TIP3    H154533   3.599   6.146  14.324  0.4397 -1.4145  0.3349
11014TIP3    H254534   3.700   6.144  14.211 -0.1473 -0.0557 -0.2252
11015TIP3   OH254535   1.547   4.998  16.021  0.5322 -0.5026  0.1380
11015TIP3    H154536   1.497   4.923  15.987  1.0947 -2.1393  2.6451
11015TIP3    H254537   1.627   4.999  15.968 -1.1698  0.9858 -2.6572
11016TIP3   OH254538   0.541   4.381   2.269  0.7073 -0.1493 -0.4973
11016TIP3    H154539   0.572   4.311   2.327  1.9920 -0.1634 -1.1561
11016TIP3    H254540   0.461   4.346   2.231  0.5530 -0.6685  0.2756
11017TIP3   OH254541   4.028   2.939  11.613  0.7811  0.4226 -0.2148
11017TIP3    H154542   3.952   2.989  11.585  0.7216  2.2842  2.8299
11017TIP3    H254543   4.099   2.969  11.557  0.0613  1.5349 -0.5651
11018TIP3   OH254544   0.078   3.827  13.185 -0.0502 -0.5546  0.3610
11018TIP3    H154545   0.124   3.837  13.268  0.9328 -0.9984 -0.1117
11018TIP3    H254546   0.147   3.814  13.121 -0.7818  0.0085 -0.5674
11019TIP3   OH254547   4.713   2.864   1.471  0.3860 -0.1800  0.6818
11019TIP3    H154548   4.688   2.916   1.394 -1.3567 -0.8827  0.7229
11019TIP3    H254549   4.779   2.803   1.439  1.3042  0.9957  0.2703
11020TIP3   OH254550   1.392   0.291   4.409  0.8259 -0.2924  0.2988
11020TIP3    H154551   1.348   0.219   4.455  1.2887 -0.6750  0.1415
11020TIP3    H254552   1.453   0.327   4.474 -0.5502  1.0277  0.9296
11021TIP3   OH254553   2.511   2.079  12.273 -0.3699  0.4320 -0.7217
11021TIP3    H154554   2.430   2.046  12.312  1.3929 -1.5425  1.5471
11021TIP3    H254555   2.491   2.169  12.249 -3.2293 -0.0070 -0.3014
11022TIP3   OH254556   3.934   3.974  13.373  0.1382  0.0444 -0.4001
11022TIP3    H154557   4.009   3.968  13.314  1.1061  0.3602  0.7561
11022TIP3    H254558   3.964   3.932  13.454 -0.8230  0.4601  0.1819
11023TIP3   OH254559   2.353   2.484  11.472  0.1433  0.7509 -1.0288
11023TIP3    H154560   2.392   2.445  11.551 -0.6870  0.0005 -0.9863
11023TIP3    H254561   2.284   2.542  11.506  0.2130  0.9248 -1.1814
11024TIP3   OH254562   0.635   2.912   5.863 -0.3865 -0.3122 -0.5868
11024TIP3    H154563   0.673   2.831   5.899  2.3633  0.5746 -1.2314
11024TIP3    H254564   0.552   2.923   5.910  0.7229 -1.7440  1.9212
11025TIP3   OH254565   6.515   1.309  11.512  0.1678  0.5007 -0.1619
11025TIP3    H154566   6.526   1.245  11.442 -0.4619  0.3453 -0.1260
11025TIP3    H254567   6.593   1.299  11.567 -0.4321 -1.0308  0.4670
11026TIP3   OH254568   0.487   1.185  12.343 -0.2745  0.1048  0.2842
11026TIP3    H154569   0.485   1.278  12.321 -3.2945  0.3272  1.0904
11026TIP3    H254570   0.476   1.182  12.438 -1.9591 -1.0397  0.1100
11027TIP3   OH254571   6.631   2.525  11.829  0.0441 -0.2952  0.7068
11027TIP3    H154572   6.656   2.490  11.915  0.4604 -0.4142  0.5414
11027TIP3    H254573   6.538   2.547  11.838  0.0536 -0.4231  1.1492
11028TIP3   OH254574   4.326   0.678   3.200 -0.0103 -0.2130  0.2587
11028TIP3    H154575   4.394   0.680   3.132  0.1399  0.3157  0.4232
11028TIP3    H254576   4.357   0.613   3.262  0.7890  0.6438  0.7841
11029TIP3   OH254577   4.435   5.660   3.940 -0.1777  0.2318  0.0335
11029TIP3    H154578   4.442   5.715   4.018 -2.3207  0.5062  0.1040
11029TIP3    H254579   4.377   5.709   3.882 -0.4821 -1.0302 -0.7729
11030TIP3   OH254580   0.629   3.830  16.329  0.0066  0.3328 -0.1324
11030TIP3    H154581   0.625   3.775  16.251  0.4928 -0.4304  0.3667
11030TIP3    H254582   0.558   3.798  16.385 -0.3864  0.9245 -0.2799
11031TIP3   OH254583   6.183   5.541   2.575  0.1731 -0.3908  0.0446
11031TIP3    H154584   6.239   5.589   2.515  0.9697 -0.3015  0.8348
11031TIP3    H254585   6.098   5.584   2.568  0.3773 -0.0956 -0.6764
11032TIP3   OH254586   3.478   5.846  15.856 -0.2381 -0.2107 -0.6918
11032TIP3    H154587   3.492   5.757  15.823  0.7228 -0.3451  0.0711
11032TIP3    H254588   3.385   5.863  15.839 -0.2898 -1.1267 -1.3907
11033TIP3   OH254589   3.576   0.140  13.624  0.1547 -0.2790  0.0577
11033TIP3    H154590   3.565   0.073  13.690 -2.9904 -0.5142 -0.5551
11033TIP3    H254591   3.543   0.100  13.543  1.7037  0.7817 -1.1612
11034TIP3   OH254592   5.768   3.457   3.484 -0.5654  0.1547  0.0934
11034TIP3    H154593   5.815   3.376   3.507 -0.3051  0.3086  0.1002
11034TIP3    H254594   5.686   3.426   3.447 -0.0644 -0.1372 -0.7974
11035TIP3   OH254595   3.040   6.474   5.937  0.0487 -0.1768 -1.0340
11035TIP3    H154596   3.075   6.554   5.976 -1.6709 -0.4107  1.1878
11035TIP3    H254597   3.112   6.412   5.941  0.7268  0.6125 -0.6765
11036TIP3   OH254598   5.886   4.732  12.972 -0.5563  0.3219  0.5770
11036TIP3    H154599   5.919   4.643  12.981  1.7020  1.2227  2.2267
11036TIP3    H254600   5.804   4.732  13.021 -1.9149 -1.3563 -1.4770
11037TIP3   OH254601   5.210   2.917  13.632  0.1105 -0.3887 -0.3708
11037TIP3    H154602   5.157   2.951  13.704  1.1333  2.4658 -0.8475
11037TIP3    H254603   5.214   2.823  13.648  0.3809  0.1216  3.3770
11038TIP3   OH254604   1.570   1.363  11.661 -0.6075  0.1048  0.0011
11038TIP3    H154605   1.594   1.388  11.750  3.4997 -0.8451 -0.6312
11038TIP3    H254606   1.603   1.435  11.607 -0.4151 -0.6377 -0.8979
11039TIP3   OH254607   3.884   1.437   0.017 -0.2606 -0.6210  0.4065
11039TIP3    H154608   3.796   1.435   0.053  0.4215  0.6320  2.2703
11039TIP3    H254609   3.892   1.523  -0.025  0.3752 -0.3154  1.1235
11040TIP3   OH254610   6.049   4.775  12.258 -0.0633  0.1218 -0.5868
11040TIP3    H154611   6.010   4.695  12.294 -2.5506  0.7202 -1.7188
11040TIP3    H254612   5.984   4.843  12.273  1.5204  1.7193 -0.6560
11041TIP3   OH254613   3.095   3.560   1.875  0.2000  0.0350  0.2573
11041TIP3    H154614   3.021   3.620   1.876 -1.3255 -1.7214 -0.8328
11041TIP3    H254615   3.169   3.613   1.844 -0.6368  1.7566  1.1017
11042TIP3   OH254616   0.463   2.801  13.617 -0.0563 -0.0574  0.1465
11042TIP3    H154617   0.445   2.854  13.694 -2.2727 -2.5909  1.5545
11042TIP3    H254618   0.532   2.741  13.644 -0.1647 -0.3202 -0.1446
11043TIP3   OH254619   0.930   0.519   4.191  1.1983  0.4916  0.2464
11043TIP3    H154620   0.935   0.432   4.150 -2.6147  1.2259 -2.2810
11043TIP3    H254621   0.948   0.580   4.119  2.9873  1.9191  1.7933
11044TIP3   OH254622   1.793   1.009  10.923 -0.0693 -0.3722 -0.0188
11044TIP3    H154623   1.822   0.918  10.930 -0.0477 -0.4655 -1.2000
11044TIP3    H254624   1.762   1.018  10.833  2.0954  1.4085 -0.6926
11045TIP3   OH254625   2.592   3.154   2.113 -0.1270  0.0448  0.1551
11045TIP3    H154626   2.613   3.114   2.198 -0.4873  0.3717  0.4024
11045TIP3    H254627   2.503   3.123   2.094  0.4542 -1.1302 -0.7600
11046TIP3   OH254628   0.126   5.488   5.768  0.3982  0.4476  0.2869
11046TIP3    H154629   0.048   5.483   5.711 -0.2304 -2.2345  1.2198
11046TIP3    H254630   0.107   5.427   5.839  3.1510  0.1337  0.8498
11047TIP3   OH254631   3.861   6.002   1.683  0.5878  0.0442 -0.6235
11047TIP3    H154632   3.923   6.065   1.719  0.7710 -0.9285  0.8735
11047TIP3    H254633   3.886   5.918   1.722  0.0845 -0.8985 -2.2028
11048TIP3   OH254634   6.583   6.049  16.705 -0.0612 -0.4466  0.2584
11048TIP3    H154635   6.662   6.102  16.715  0.1995 -0.8395  0.3112
11048TIP3    H254636   6.586   6.018  16.614 -2.4345  3.1373 -1.3155
11049TIP3   OH254637   5.027   5.839   0.136 -0.3945 -0.1762  0.5311
11049TIP3    H154638   4.976   5.839   0.055 -1.7798 -0.3271  1.3717
11049TIP3    H254639   5.000   5.918   0.182  1.8015  0.9338  0.0232
11050TIP3   OH254640   1.821   3.916  12.297  0.1829  0.0173 -0.2638
11050TIP3    H154641   1.790   3.831  12.265 -0.5914  0.2059 -0.0440
11050TIP3    H254642   1.838   3.966  12.217  0.6603 -0.3524 -0.3938
11051TIP3   OH254643   0.606   6.252   4.051 -0.6040  0.4840  0.1356
11051TIP3    H154644   0.622   6.220   3.962 -0.5262 -0.0397  0.3303
11051TIP3    H254645   0.694   6.255   4.091 -0.4517  2.1823 -0.2749
11052TIP3   OH254646   4.201   2.714  16.686  0.0760 -0.3670 -0.2955
11052TIP3    H154647   4.248   2.656  16.747  0.8704  0.9279  0.3800
11052TIP3    H254648   4.146   2.768  16.743  0.7680  0.8051 -0.7070
11053TIP3   OH254649   0.573   3.169   6.016  0.5011 -0.4236  0.3075
11053TIP3    H154650   0.629   3.203   5.946 -1.6333  1.6214 -0.5093
11053TIP3    H254651   0.615   3.201   6.097  0.0078  2.0495 -0.3283
11054TIP3   OH254652   0.482   2.290   0.396  0.0022  0.4435 -0.7342
11054TIP3    H154653   0.515   2.294   0.486  0.5222  0.2409 -0.9109
11054TIP3    H254654   0.393   2.326   0.401  0.0409  0.4652 -0.1474
11055TIP3   OH254655   4.462   4.161   4.490  0.1183  0.1888  0.4929
11055TIP3    H154656   4.530   4.219   4.524  0.0017  0.9578 -0.5094
11055TIP3    H254657   4.405   4.219   4.439 -1.1582 -0.4810  1.1080
11056TIP3   OH254658   6.329   4.011   0.018  0.3408  0.1378  0.5713
11056TIP3    H154659   6.247   4.059   0.016  0.4773  0.3741 -1.3051
11056TIP3    H254660   6.346   3.989  -0.073  1.4227 -1.5352  1.1320
11057TIP3   OH254661   4.061   3.732  16.138 -0.4073  0.2357 -0.2782
11057TIP3    H154662   4.008   3.655  16.157 -1.9158 -0.0202 -4.4409
11057TIP3    H254663   4.001   3.806  16.147  0.7540  0.9808  2.6210
11058TIP3   OH254664   1.287   0.160   0.163  0.3205 -0.1514  0.2752
11058TIP3    H154665   1.262   0.074   0.130 -0.9740  0.8346 -1.4770
11058TIP3    H254666   1.315   0.143   0.253 -1.8143 -2.1460  0.6748
11059TIP3   OH254667   2.367   3.040   4.760 -0.1783 -0.4168 -0.0695
11059TIP3    H154668   2.402   2.955   4.733 -1.5131 -1.3348  0.9350
11059TIP3    H254669   2.279   3.042   4.723 -0.6380 -0.0585  0.9853
11060TIP3   OH254670   0.242   5.327  16.853 -0.1378 -0.1330  0.6365
11060TIP3    H154671   0.233   5.313  16.948  1.7336  1.5992  1.1313
11060TIP3    H254672   0.334   5.309  16.835 -0.6458 -1.2165 -1.0448
11061TIP3   OH254673   6.749   1.837  15.797  0.0245  1.0931  0.1900
11061TIP3    H154674   6.786   1.900  15.859  2.6650 -1.2514  1.2216
11061TIP3    H254675   6.706   1.772  15.852  1.5414 -0.4875 -0.3921
11062TIP3   OH254676   6.058   0.907  12.449 -0.1642  0.5856 -0.5290
11062TIP3    H154677   6.030   0.815  12.450 -0.4697  0.6787  0.2108
11062TIP3    H254678   6.154   0.902  12.443 -0.0856  0.1863  0.7852
11063TIP3   OH254679   1.463   0.164  14.038  0.2220 -0.0631  0.4021
11063TIP3    H154680   1.372   0.193  14.032 -0.3742 -1.9108 -0.4204
11063TIP3    H254681   1.471   0.130  14.128 -0.0987 -0.4237  0.3006
11064TIP3   OH254682   2.545   5.779  16.613  0.2220 -0.0656  0.0069
11064TIP3    H154683   2.477   5.819  16.558 -2.6283  0.0946  3.3347
11064TIP3    H254684   2.572   5.701  16.565 -0.7822  0.9535 -2.3649
11065TIP3   OH254685   0.575   3.523   5.529  0.5521 -0.0242 -0.0427
11065TIP3    H154686   0.642   3.591   5.526  1.2983 -0.7364  0.3013
11065TIP3    H254687   0.617   3.445   5.493 -0.1057 -0.4708  0.1279
11066TIP3   OH254688   4.958   0.271  16.377  0.2437  0.0218  0.3410
11066TIP3    H154689   4.967   0.343  16.314 -0.1038  0.1115  0.3888
11066TIP3    H254690   4.877   0.227  16.352  0.1846 -0.0359  0.6311
11067TIP3   OH254691   5.913   3.045  11.921  0.1161  0.4264  0.1792
11067TIP3    H154692   5.894   3.005  12.006  1.2848 -2.1395 -0.6776
11067TIP3    H254693   5.839   3.104  11.905 -0.2371  0.8202  2.8328
11068TIP3   OH254694   2.238   3.417  11.054 -0.1169 -0.0169  0.2341
11068TIP3    H154695   2.299   3.359  11.009  0.4179  1.0077 -0.3803
11068TIP3    H254696   2.216   3.484  10.990 -1.4609 -0.0434  0.6289
11069TIP3   OH254697   6.132   3.398  14.931 -0.2408 -0.5673  0.0363
11069TIP3    H154698   6.060   3.441  14.976 -1.0187 -1.0344 -0.7270
11069TIP3    H254699   6.148   3.451  14.853 -0.3441 -0.9396 -0.2423
11070TIP3   OH254700   5.825   5.104  13.166  0.1145 -0.0151  0.2092
11070TIP3    H154701   5.884   5.032  13.190 -0.6947 -1.3816 -1.6934
11070TIP3    H254702   5.882   5.182  13.165  2.0029 -1.3177 -1.8532
11071TIP3   OH254703   1.375   6.684  13.644 -0.1460  0.0194 -0.0621
11071TIP3    H154704   1.297   6.666  13.697  0.3148  0.2294  0.7111
11071TIP3    H254705   1.370   6.623  13.571 -0.2068 -1.0732  0.8356
11072TIP3   OH254706   5.274   5.070   3.568 -0.2591 -0.1420 -0.0472
11072TIP3    H154707   5.205   5.008   3.544  0.1611 -0.7852  0.3964
11072TIP3    H254708   5.290   5.054   3.660 -0.2528  0.7453  0.1144
11073TIP3   OH254709   5.540   2.906  13.927 -0.0739  0.4829  0.4337
11073TIP3    H154710   5.573   2.989  13.893 -1.2267  1.8427  2.4459
11073TIP3    H254711   5.601   2.840  13.893  0.5486  2.0566 -1.6579
11074TIP3   OH254712   5.861   0.202   5.650  0.0914 -0.2636 -0.1591
11074TIP3    H154713   5.817   0.194   5.566  0.8211 -0.0132 -0.5795
11074TIP3    H254714   5.901   0.289   5.648  4.0565 -1.8550 -1.5626
11075TIP3   OH254715   3.322   4.799   5.047  0.7568  0.5671  0.0491
11075TIP3    H154716   3.354   4.831   4.963  0.1735 -2.8575 -1.6735
11075TIP3    H254717   3.234   4.836   5.055  0.3992  0.1108 -1.4416
11076TIP3   OH254718   2.408   5.376   3.022 -0.3077 -0.6192  0.4785
11076TIP3    H154719   2.435   5.319   2.950 -1.2834 -0.2816 -0.1801
11076TIP3    H254720   2.313   5.382   3.013 -0.4668 -0.6816  1.8951
11077TIP3   OH254721   6.205   5.029  14.092  0.0405  0.1257  0.7824
11077TIP3    H154722   6.145   4.956  14.107  0.1915 -0.5025 -1.3047
11077TIP3    H254723   6.290   4.998  14.124 -0.0898 -0.2460  0.7652
11078TIP3   OH254724   4.853   5.231   1.342  0.0861  0.4906 -0.2263
11078TIP3    H154725   4.838   5.209   1.250  0.0611 -0.6917  0.0500
11078TIP3    H254726   4.870   5.147   1.385 -1.2931  0.8394  1.1159
11079TIP3   OH254727   5.581   6.267   0.771  0.1475 -0.4738 -0.1869
11079TIP3    H154728   5.654   6.248   0.829  0.5234  0.3341 -0.3788
11079TIP3    H254729   5.503   6.244   0.822  0.5473 -2.7398 -0.5033
11080TIP3   OH254730   1.788   2.368   3.043 -0.3934  0.0447 -1.3722
11080TIP3    H154731   1.700   2.405   3.055  0.4612  2.2364 -1.4288
11080TIP3    H254732   1.833   2.386   3.126 -0.1311 -1.5563 -1.1376
11081TIP3   OH254733   5.297   6.757  15.776  0.7747 -0.3221  0.1299
11081TIP3    H154734   5.362   6.796  15.835 -0.1352 -1.1285  1.7219
11081TIP3    H254735   5.213   6.775  15.818 -0.0758  0.6055 -1.8408
11082TIP3   OH254736   5.535   5.485  14.083  0.1106  0.1464  0.7134
11082TIP3    H154737   5.481   5.522  14.153 -0.7300  0.2072  0.0483
11082TIP3    H254738   5.540   5.554  14.017 -0.3635 -0.4307  0.0535
11083TIP3   OH254739   0.015   1.501   0.277 -0.4519  0.4314 -0.8033
11083TIP3    H154740  -0.044   1.553   0.222 -1.1423  0.7713  0.2308
11083TIP3    H254741  -0.028   1.416   0.284 -1.4860  1.0551  0.9533
11084TIP3   OH254742   2.965   1.784  14.630  0.3260 -1.0040  0.6181
11084TIP3    H154743   2.874   1.771  14.604 -0.4887  2.6639  1.0878
11084TIP3    H254744   3.016   1.734  14.566 -1.9327 -0.6997 -1.5634
11085TIP3   OH254745   0.265   4.301   4.766  0.3280  0.7138 -0.2340
11085TIP3    H154746   0.360   4.298   4.771  0.3279  0.6704 -0.2545
11085TIP3    H254747   0.247   4.344   4.682  0.3312 -0.4492 -0.8607
11086TIP3   OH254748   1.837   6.820  15.426  0.0582 -0.1551 -0.8441
11086TIP3    H154749   1.776   6.755  15.461  1.2761  0.5299  3.0381
11086TIP3    H254750   1.901   6.768  15.377  0.4868 -1.8632  1.3835
11087TIP3   OH254751   6.309   1.046   4.893 -0.0899  0.6325  0.9592
11087TIP3    H154752   6.297   1.027   4.800 -0.0311 -0.2672  1.1248
11087TIP3    H254753   6.221   1.066   4.925 -0.4147 -0.8017  1.0630
11088TIP3   OH254754   0.408   4.569   2.085  0.2694 -0.0561  0.1069
11088TIP3    H154755   0.319   4.538   2.068 -0.2392  1.5666 -0.4092
11088TIP3    H254756   0.396   4.647   2.139  1.4468 -0.3465  0.8238
11089TIP3   OH254757   2.714   0.511   6.001  0.5620  0.4319  0.3877
11089TIP3    H154758   2.670   0.566   6.066  1.3460 -0.2836  1.5570
11089TIP3    H254759   2.785   0.469   6.049  0.9419 -0.3979 -0.8551
11090TIP3   OH254760   4.419   4.029   2.108  0.0468  0.2817  0.3051
11090TIP3    H154761   4.450   4.119   2.098 -1.6945  1.1239  1.9133
11090TIP3    H254762   4.470   3.994   2.181  0.5925  0.0214 -0.1986
11091TIP3   OH254763   6.234   4.684   1.612 -0.8462 -0.1409  0.4669
11091TIP3    H154764   6.307   4.740   1.587 -0.2692 -1.4675 -0.9897
11091TIP3    H254765   6.159   4.717   1.563 -0.9562  0.4424  1.0070
11092TIP3   OH254766   2.067   1.701  10.522  0.3435  0.1019 -0.4507
11092TIP3    H154767   2.043   1.793  10.519  0.2509  0.0597 -1.7639
11092TIP3    H254768   2.064   1.678  10.615 -0.4529  1.2010 -0.1836
11093TIP3   OH254769   4.222   3.395   5.044 -0.3500 -0.4378  0.2976
11093TIP3    H154770   4.231   3.486   5.072 -3.4546  0.1275 -0.2020
11093TIP3    H254771   4.248   3.344   5.120 -0.9038  0.9112  1.4336
11094TIP3   OH254772   0.571   5.310   5.611  0.0380  0.6247  0.0470
11094TIP3    H154773   0.531   5.224   5.605 -1.3224  1.1532  0.9920
11094TIP3    H254774   0.508   5.362   5.661  1.0337  2.0424 -0.1182
11095TIP3   OH254775   2.333   6.402  14.817  0.1088  0.0677  0.3246
11095TIP3    H154776   2.350   6.376  14.726 -0.3741 -0.4494  0.3700
11095TIP3    H254777   2.338   6.320  14.866 -2.7159 -0.2237  0.2897
11096TIP3   OH254778   4.171   0.458  15.811  0.2120 -0.2889 -0.4750
11096TIP3    H154779   4.163   0.479  15.904  0.2085 -0.4854 -0.4298
11096TIP3    H254780   4.199   0.539  15.770 -0.6160  0.0332 -0.4271
11097TIP3   OH254781   3.306   6.151  14.425  0.3238 -0.6301 -0.3690
11097TIP3    H154782   3.386   6.099  14.437 -0.0896 -1.2407 -0.2391
11097TIP3    H254783   3.278   6.173  14.514  0.0723 -0.8379 -0.3960
11098TIP3   OH254784   6.449   2.645   2.304  0.3869  0.7617 -0.2111
11098TIP3    H154785   6.407   2.560   2.318 -0.4732  1.2963  0.5315
11098TIP3    H254786   6.376   2.704   2.285  1.0969  1.0287 -2.4017
11099TIP3   OH254787   4.756   0.313   3.161 -0.0989  0.8363  0.6019
11099TIP3    H154788   4.715   0.303   3.247 -2.3508  0.2096 -0.4900
11099TIP3    H254789   4.701   0.263   3.102  2.4832 -0.4033 -0.9473
11100TIP3   OH254790   6.135   4.654   4.924  0.2534 -0.1027  0.1850
11100TIP3    H154791   6.087   4.588   4.975  1.1951  0.7570  2.3344
11100TIP3    H254792   6.089   4.736   4.943  2.2275  0.6749  1.9798
11101TIP3   OH254793   4.661   6.389   5.979 -0.0229  0.6676  0.3291
11101TIP3    H154794   4.570   6.360   5.983  0.1345  0.1606  0.2668
11101TIP3    H254795   4.693   6.378   6.068  0.8503 -2.0489 -0.2358
11102TIP3   OH254796   1.610   3.079  13.091 -0.3473  0.1980  0.6363
11102TIP3    H154797   1.567   3.056  13.174 -0.7910  1.4159  0.7618
11102TIP3    H254798   1.643   2.996  13.057  0.6388 -0.2268  2.4852
11103TIP3   OH254799   0.908   1.168  15.391  0.5647  1.0754  0.9639
11103TIP3    H154800   0.962   1.226  15.444  0.5785  1.9524  0.0179
11103TIP3    H254801   0.955   1.159  15.308 -0.2926  1.1400  0.4532
11104TIP3   OH254802   5.506   1.573  16.266  0.4100 -0.0681  0.1085
11104TIP3    H154803   5.535   1.616  16.186  1.0187 -4.0055 -2.0513
11104TIP3    H254804   5.584   1.526  16.297 -1.0344 -2.7565 -0.0596
11105TIP3   OH254805   4.159   0.869  16.274 -0.1657 -0.2231 -0.6003
11105TIP3    H154806   4.224   0.929  16.236  0.3931 -0.6574 -0.3501
11105TIP3    H254807   4.181   0.864  16.367  0.0040 -1.0627 -0.6738
11106TIP3   OH254808   2.197   6.701   6.193 -0.2855  0.4554 -0.1945
11106TIP3    H154809   2.153   6.620   6.169 -0.5750  0.5322  0.0693
11106TIP3    H254810   2.280   6.699   6.145  0.4573 -0.7621  1.0740
11107TIP3   OH254811   6.420   1.554   3.489 -0.1701  0.5811  0.5860
11107TIP3    H154812   6.393   1.641   3.517 -0.6689  0.5780  0.1371
11107TIP3    H254813   6.338   1.511   3.462  0.0062 -0.1704  1.1784
11108TIP3   OH254814   1.521   6.564   3.167  0.3095 -0.0951 -0.0522
11108TIP3    H154815   1.589   6.497   3.180  1.2559  0.7677 -0.4411
11108TIP3    H254816   1.516   6.575   3.072 -1.2648 -1.0171 -0.1118
11109TIP3   OH254817   6.608   1.535   3.813 -0.0161  0.4339  0.1859
11109TIP3    H154818   6.645   1.487   3.739 -0.4551 -0.8521  0.7668
11109TIP3    H254819   6.652   1.621   3.811  1.6400 -0.3797 -0.2154
11110TIP3   OH254820   3.272   0.760   2.036 -0.1985 -0.2063  0.2938
11110TIP3    H154821   3.327   0.682   2.042  0.1084  0.0351  0.6687
11110TIP3    H254822   3.313   0.812   1.967  1.1212  0.7965  1.7615
11111TIP3   OH254823   2.716   6.805   4.022  0.0801 -0.2745 -0.1855
11111TIP3    H154824   2.725   6.818   4.116  0.5620  1.2412 -0.4146
11111TIP3    H254825   2.629   6.766   4.012 -0.7212  1.1858  0.7640
11112TIP3   OH254826   2.484   0.304   2.650  0.2052 -0.5704 -0.5597
11112TIP3    H154827   2.475   0.355   2.731  0.8300 -1.0202 -0.1956
11112TIP3    H254828   2.410   0.243   2.652  1.7905 -2.5857  1.1844
11113TIP3   OH254829   4.270   4.266   0.930  0.6848 -0.0578 -0.3041
11113TIP3    H154830   4.311   4.243   0.846  0.5744 -0.9833 -0.1237
11113TIP3    H254831   4.176   4.256   0.915  0.5982  0.8506 -0.3737
11114TIP3   OH254832   2.112   3.243  13.350  0.0724 -0.4559 -0.4309
11114TIP3    H154833   2.079   3.162  13.311  1.6514 -0.9326 -0.8486
11114TIP3    H254834   2.111   3.307  13.279  0.0596 -0.4778 -0.4505
11115TIP3   OH254835   2.402   5.101   3.412  0.0279  0.0744 -0.3084
11115TIP3    H154836   2.495   5.116   3.430 -0.2914  1.0625  0.6617
11115TIP3    H254837   2.380   5.165   3.344  0.5250 -1.5937 -2.0950
11116TIP3   OH254838   1.295   5.283  14.055  0.1404 -0.6965  0.0726
11116TIP3    H154839   1.263   5.194  14.046 -0.6238 -0.2631 -2.2469
11116TIP3    H254840   1.387   5.278  14.028  0.2359 -0.8773  0.4375
11117TIP3   OH254841   2.748   1.730  17.080  0.6630 -0.2575  0.0569
11117TIP3    H154842   2.729   1.803  17.140  1.9527  1.6066 -1.6986
11117TIP3    H254843   2.666   1.680  17.078  0.4362 -0.2010  3.0106
11118TIP3   OH254844   0.878   4.213   0.915  0.1523  0.0340 -0.0614
11118TIP3    H154845   0.924   4.297   0.911 -1.3523  0.8791 -0.4284
11118TIP3    H254846   0.906   4.174   0.998 -0.5627  1.7998  1.0700
11119TIP3   OH254847   6.033   0.020  13.423 -0.1980 -0.1443 -0.1754
11119TIP3    H154848   5.947  -0.007  13.390 -0.5208  1.1571 -0.4537
11119TIP3    H254849   6.016   0.052  13.511 -0.4829  2.5275 -1.1334
11120TIP3   OH254850   0.324   4.297  13.789 -0.3310 -0.0119  0.7202
11120TIP3    H154851   0.277   4.380  13.803 -0.2149  0.0982  0.4687
11120TIP3    H254852   0.413   4.314  13.820 -0.8249 -0.6849  2.6244
11121TIP3   OH254853   3.390   0.646  16.316  0.1444 -0.3478  0.9293
11121TIP3    H154854   3.312   0.700  16.304 -0.2941 -0.5455  2.5372
11121TIP3    H254855   3.458   0.708  16.342  0.6921 -0.1135 -0.9140
11122TIP3   OH254856   1.312   0.521   1.736 -0.1189  0.3383  0.0134
11122TIP3    H154857   1.373   0.454   1.705  0.4195  0.3913  0.9461
11122TIP3    H254858   1.294   0.574   1.658  0.2638 -0.2594 -0.4918
11123TIP3   OH254859   4.597   1.172  16.817 -0.2488 -0.0531 -0.0847
11123TIP3    H154860   4.654   1.241  16.852 -0.1600 -0.0352 -0.2649
11123TIP3    H254861   4.536   1.217  16.759 -1.7556  0.2235  1.6335
11124TIP3   OH254862   0.699   2.633  15.667 -0.1343 -0.0107  0.0783
11124TIP3    H154863   0.776   2.575  15.669  0.2924  0.4231 -1.5951
11124TIP3    H254864   0.649   2.603  15.591  0.8803  2.6890 -1.7916
11125TIP3   OH254865   1.597   0.101   4.522 -0.4080  0.2337  0.3015
11125TIP3    H154866   1.516   0.054   4.542  0.5377 -0.6213  2.3198
11125TIP3    H254867   1.595   0.178   4.578  0.2842  0.0807  0.5476
11126TIP3   OH254868   2.510   6.158  11.125  0.0104  0.9963  0.2512
11126TIP3    H154869   2.589   6.174  11.074 -0.6318  0.8217 -0.8591
11126TIP3    H254870   2.540   6.142  11.214  1.5285 -2.1555 -0.6823
11127TIP3   OH254871   2.548   0.144  12.300  0.0750 -0.0357 -0.3872
11127TIP3    H154872   2.526   0.219  12.245 -1.1514  1.2744  1.7543
11127TIP3    H254873   2.472   0.133  12.358  1.8922 -0.2610  2.1419
11128TIP3   OH254874   3.693   4.957  12.846 -0.2345 -0.1567 -0.8936
11128TIP3    H154875   3.737   4.911  12.917 -1.8471 -0.1772  0.1426
11128TIP3    H254876   3.643   4.890  12.800  2.3429 -0.5476 -3.4232
11129TIP3   OH254877   2.561   0.015  10.419 -0.0638  0.5901  1.2492
11129TIP3    H154878   2.599   0.102  10.409  1.0178  0.0185 -0.0745
11129TIP3    H254879   2.628  -0.044  10.383 -1.9431 -0.5286 -0.6892
11130TIP3   OH254880   1.012   4.985   4.456  0.5316 -0.2568  0.6290
11130TIP3    H154881   1.040   5.037   4.532 -1.1808  2.9582 -0.7216
11130TIP3    H254882   0.953   4.920   4.493  1.1271  0.0479  2.2381
11131TIP3   OH254883   6.627   3.270  11.372 -0.0057  0.3988 -0.0373
11131TIP3    H154884   6.689   3.198  11.360  0.7162  0.7195  1.4503
11131TIP3    H254885   6.682   3.349  11.367 -0.7298  0.8593 -1.2974
11132TIP3   OH254886   0.837   1.593  15.035 -0.0012 -0.2741 -0.3329
11132TIP3    H154887   0.748   1.626  15.045  0.0882 -0.5064  1.5932
11132TIP3    H254888   0.881   1.658  14.981 -1.9324 -1.3803 -3.5390
11133TIP3   OH254889   0.463   5.087  14.699 -0.5611 -0.5237 -0.6623
11133TIP3    H154890   0.431   5.032  14.770 -0.5962 -2.1869 -1.8869
11133TIP3    H254891   0.470   5.175  14.737  0.2969 -1.5017  1.6068
11134TIP3   OH254892   2.885   0.179  12.735 -0.1574 -0.3243  0.7198
11134TIP3    H154893   2.923   0.155  12.820 -1.4344 -0.9709  1.1382
11134TIP3    H254894   2.797   0.210  12.757 -0.6237 -0.8215 -0.3980
11135TIP3   OH254895   3.891   2.673  14.750  0.1990  0.1730 -0.3522
11135TIP3    H154896   3.949   2.643  14.680  0.6384  1.9623 -0.7888
11135TIP3    H254897   3.942   2.659  14.830  0.3812 -0.2245 -0.5324
11136TIP3   OH254898   0.929   3.022   0.852  0.4003 -0.4115 -0.4202
11136TIP3    H154899   0.874   2.959   0.806 -0.1052 -2.3195  2.4852
11136TIP3    H254900   0.914   3.105   0.807 -2.1134 -1.5521 -1.8978
11137TIP3   OH254901   5.321   2.588   1.071  0.2562 -0.2327 -0.1403
11137TIP3    H154902   5.228   2.571   1.057 -0.0871  0.4972  1.1087
11137TIP3    H254903   5.351   2.629   0.990 -0.8900  0.9526  0.0159
11138TIP3   OH254904   3.293   0.067   1.369 -0.1640 -0.4762 -0.2918
11138TIP3    H154905   3.264   0.132   1.305 -1.2494 -0.3261  0.3250
11138TIP3    H254906   3.300   0.116   1.451 -1.8798 -1.2629  0.3859
11139TIP3   OH254907   5.188   0.265   5.847  0.8938  0.3175  0.0952
11139TIP3    H154908   5.127   0.290   5.916  1.9859  0.7400  0.9483
11139TIP3    H254909   5.142   0.285   5.765 -0.3822 -0.1072  0.6966
11140TIP3   OH254910   3.925   5.113   4.408 -0.7859  0.6768 -0.4439
11140TIP3    H154911   3.953   5.032   4.365  0.7817  0.0786  1.5431
11140TIP3    H254912   3.977   5.181   4.365 -0.0514  0.2398 -0.2767
11141TIP3   OH254913   6.467   5.277   2.325 -0.4755 -0.6630  0.3304
11141TIP3    H154914   6.506   5.343   2.381 -0.3359  0.8915 -1.4862
11141TIP3    H254915   6.413   5.224   2.383  0.2525  0.3675  2.0199
11142TIP3   OH254916   2.423   4.989   3.818  0.6651 -0.0006  0.6578
11142TIP3    H154917   2.411   4.963   3.727 -0.1535  1.0209  0.4479
11142TIP3    H254918   2.515   4.971   3.837  1.0737  0.5998 -0.6457
11143TIP3   OH254919   6.140   4.148   5.854  0.2454  0.2282  0.3655
11143TIP3    H154920   6.212   4.207   5.873 -0.6174  1.7131 -0.7345
11143TIP3    H254921   6.062   4.202   5.862 -0.5660 -0.7076 -0.8449
11144TIP3   OH254922   2.672   1.367   5.232  0.4076  0.9473  0.7077
11144TIP3    H154923   2.603   1.378   5.166  0.5341 -2.7320 -0.2687
11144TIP3    H254924   2.740   1.318   5.186  2.9633  2.8686  2.1764
11145TIP3   OH254925   2.926   0.109  11.849  0.0314 -0.1905  0.1251
11145TIP3    H154926   2.955   0.194  11.817 -0.7623  0.0462  0.0134
11145TIP3    H254927   2.994   0.082  11.911 -0.2220  1.0152  0.9567
11146TIP3   OH254928   3.655   6.851   0.402  0.0518 -0.2975 -0.3590
11146TIP3    H154929   3.591   6.854   0.473 -0.8579 -1.9773 -1.0525
11146TIP3    H254930   3.738   6.876   0.443 -0.2940 -1.9554  1.5086
11147TIP3   OH254931   5.673   1.973   6.024 -0.8133 -0.2143 -0.2946
11147TIP3    H154932   5.604   1.952   6.087 -0.3764 -0.1313  0.2111
11147TIP3    H254933   5.753   1.976   6.075 -0.5661  0.6756 -0.7132
11148TIP3   OH254934   1.558   1.935   4.202 -0.1454 -0.3519  0.6138
11148TIP3    H154935   1.638   1.963   4.248 -0.8843  1.3499  0.9319
11148TIP3    H254936   1.497   1.912   4.272  0.5622 -3.3160  0.3617
11149TIP3   OH254937   2.404   3.098   3.774  0.4774 -0.2924  0.1149
11149TIP3    H154938   2.463   3.173   3.767  0.7656 -0.3494  1.5995
11149TIP3    H254939   2.332   3.129   3.828  0.4510 -0.9984  0.5002
11150TIP3   OH254940   1.216   1.325   4.884 -0.0193  0.0180 -0.4691
11150TIP3    H154941   1.255   1.299   4.800  1.7955  0.8345  0.0667
11150TIP3    H254942   1.183   1.413   4.868  0.9932  0.4671 -0.1485
11151TIP3   OH254943   4.819   1.901  13.769  0.2502  0.0666 -0.0369
11151TIP3    H154944   4.874   1.834  13.810  1.3212  0.8769 -0.1063
11151TIP3    H254945   4.855   1.911  13.681  0.0733  0.6861 -0.0441
11152TIP3   OH254946   0.492   5.039   2.617 -0.1007  0.5905 -0.1894
11152TIP3    H154947   0.533   5.022   2.532  0.0259  0.7042 -0.1522
11152TIP3    H254948   0.556   5.006   2.681  0.2455  1.3853 -0.1084
11153TIP3   OH254949   0.921   2.185   0.738 -0.2923  0.0997  0.1399
11153TIP3    H154950   0.855   2.202   0.670 -0.1762 -0.7550 -0.1868
11153TIP3    H254951   0.870   2.159   0.814 -0.2994 -1.7586 -0.4647
11154TIP3   OH254952   3.445   5.813   4.990  1.1400  0.6402  0.0745
11154TIP3    H154953   3.474   5.781   4.904 -1.8331 -0.8911 -0.5171
11154TIP3    H254954   3.482   5.751   5.052 -2.5638 -2.9413 -0.8701
11155TIP3   OH254955   3.155   4.465   2.728 -0.4880  0.7477 -1.2211
11155TIP3    H154956   3.195   4.509   2.653 -0.9223  1.1192 -1.2419
11155TIP3    H254957   3.165   4.372   2.709  1.2708  0.8046 -0.7327
11156TIP3   OH254958   1.003   0.566   0.456  0.2864  0.0375 -0.0205
11156TIP3    H154959   1.076   0.626   0.470 -0.4700  0.5608  2.2044
11156TIP3    H254960   0.958   0.601   0.379  2.4342 -0.4402 -1.5736
11157TIP3   OH254961   0.236   0.734  15.239  0.0113 -0.5467 -0.4659
11157TIP3    H154962   0.147   0.741  15.204  0.5187  0.5292 -1.6400
11157TIP3    H254963   0.251   0.818  15.282 -0.0851 -1.3262  1.1740
11158TIP3   OH254964   1.109   0.896  12.141 -0.3230 -0.4633 -0.2134
11158TIP3    H154965   1.160   0.953  12.084 -3.0039 -0.1548 -2.5047
11158TIP3    H254966   1.047   0.954  12.184  1.6888 -0.6627  3.3417
11159TIP3   OH254967   5.443   4.381   0.069 -0.2781 -0.3919 -0.8740
11159TIP3    H154968   5.366   4.334   0.036 -0.1953 -0.4957 -0.9219
11159TIP3    H254969   5.436   4.469   0.032 -1.7977  0.4609  1.2379
11160TIP3   OH254970   0.237   0.217  11.260  0.4667  0.7612 -0.3733
11160TIP3    H154971   0.324   0.228  11.221  0.4860  0.5754 -0.3842
11160TIP3    H254972   0.254   0.180  11.346  0.3526 -0.3047 -0.7868
11161TIP3   OH254973   5.479   3.257  14.825 -0.0033  0.2044  0.4050
11161TIP3    H154974   5.516   3.223  14.744 -0.6868  0.0352  0.1509
11161TIP3    H254975   5.386   3.231  14.821 -0.1752  0.7200  0.9538
11162TIP3   OH254976   1.560   4.801   3.714  0.3062  0.3017 -0.4898
11162TIP3    H154977   1.468   4.776   3.707  0.3014  0.7676 -4.0808
11162TIP3    H254978   1.603   4.724   3.751 -1.4361  0.0094  1.0893
11163TIP3   OH254979   2.932   3.970  12.510 -0.0841  0.1571  0.0127
11163TIP3    H154980   2.919   4.000  12.600  0.3569 -0.2117  0.2037
11163TIP3    H254981   2.942   4.051  12.459  0.8695  0.3502  0.4839
11164TIP3   OH254982   4.622   3.657   2.186 -0.5701  0.1269 -0.4726
11164TIP3    H154983   4.549   3.693   2.136  0.0683  2.1663 -0.0177
11164TIP3    H254984   4.601   3.677   2.277  0.7293  1.1138 -0.3700
11165TIP3   OH254985   1.205   6.019   6.210  0.4251  0.0067 -0.3046
11165TIP3    H154986   1.185   6.073   6.288  0.5366 -0.8332  0.3181
11165TIP3    H254987   1.120   5.990   6.179  0.2009  1.9556 -1.7177
11166TIP3   OH254988   2.921   1.961   0.731 -0.2879  0.3315 -0.4475
11166TIP3    H154989   2.859   1.926   0.667 -1.3398  0.7125  0.3369
11166TIP3    H254990   2.973   2.024   0.682  1.2716 -1.8275 -1.7602
11167TIP3   OH254991   2.538   4.628  12.141 -0.1600 -1.1405 -0.0581
11167TIP3    H154992   2.543   4.545  12.095  0.8528 -1.3994  0.4845
11167TIP3    H254993   2.539   4.604  12.234 -0.7165 -0.5617  0.1051
11168TIP3   OH254994   1.048   0.158  15.357  0.2508  0.2444  0.2298
11168TIP3    H154995   1.036   0.067  15.385 -0.5988  0.0709 -0.6401
11168TIP3    H254996   1.129   0.157  15.306  0.6579  0.1394  0.8683
11169TIP3   OH254997   6.123   6.153   2.229 -0.2661  0.6399  0.6268
11169TIP3    H154998   6.053   6.140   2.292  0.2154 -0.1398  1.0159
11169TIP3    H254999   6.101   6.098   2.154 -0.3910  0.8881  0.4788
11170TIP3   OH255000   0.902   6.763  15.803 -0.5309  0.4420  0.1805
11170TIP3    H155001   0.827   6.744  15.860 -0.3814 -2.2515 -0.4075
11170TIP3    H255002   0.865   6.767  15.715  0.0271 -1.8399 -0.2350
11171TIP3   OH255003   0.456   4.510   4.066 -0.0846 -0.3263  0.1122
11171TIP3    H155004   0.477   4.533   3.975  0.4046 -0.2315  0.2473
11171TIP3    H255005   0.532   4.540   4.116 -0.5518  0.0379  0.6118
11172TIP3   OH255006   6.135   6.822  12.160  0.3910  0.3417 -0.3844
11172TIP3    H155007   6.056   6.773  12.184 -1.4043  1.6284 -3.1803
11172TIP3    H255008   6.159   6.869  12.240 -2.6452  1.1103  0.2134
11173TIP3   OH255009   2.631   4.433   0.958 -0.3103 -0.6468  0.2197
11173TIP3    H155010   2.688   4.463   0.887 -0.2581 -0.0567  0.5068
11173TIP3    H255011   2.550   4.409   0.914 -0.5644  0.4917  0.0395
11174TIP3   OH255012   0.545   5.264  12.747  0.1448 -0.5588 -0.7889
11174TIP3    H155013   0.625   5.296  12.790 -1.1045 -0.4587  1.6372
11174TIP3    H255014   0.508   5.341  12.705 -0.5667  0.3409  1.3154
11175TIP3   OH255015   4.047   1.429  15.207  0.5473 -0.1901  0.0704
11175TIP3    H155016   4.013   1.429  15.117  0.6387  0.6165  0.0311
11175TIP3    H255017   4.119   1.365  15.205  0.3038 -0.4595 -0.3319
11176TIP3   OH255018   3.616   5.463  15.503  0.4409 -0.0119 -0.4913
11176TIP3    H155019   3.582   5.379  15.472  1.6215 -0.3484 -0.9167
11176TIP3    H255020   3.710   5.450  15.508  0.5529  1.0118  0.3239
11177TIP3   OH255021   0.711   5.480  11.954  0.3842 -0.1036  0.1875
11177TIP3    H155022   0.634   5.423  11.954  1.0011 -0.9597 -0.1036
11177TIP3    H255023   0.679   5.564  11.988 -0.3812 -0.8304  1.3195
11178TIP3   OH255024   3.596   2.775  14.544  0.6141  0.1297  0.4361
11178TIP3    H155025   3.596   2.706  14.611 -3.3459 -0.1058  0.4095
11178TIP3    H255026   3.570   2.854  14.591  1.3928  0.8132 -0.2432
11179TIP3   OH255027   4.229   6.465   5.842  0.9546 -0.2420 -0.1365
11179TIP3    H155028   4.186   6.439   5.923 -4.5780  2.4615 -1.7495
11179TIP3    H255029   4.207   6.396   5.780  1.4336 -0.1835 -0.3786
11180TIP3   OH255030   1.957   6.517  11.369  0.0355  0.4131 -0.1806
11180TIP3    H155031   1.877   6.568  11.380 -0.0918  0.2512 -0.3522
11180TIP3    H255032   2.021   6.580  11.336  0.3052  0.8106  1.0683
11181TIP3   OH255033   4.431   2.856   2.448  0.4419  0.1199 -0.3622
11181TIP3    H155034   4.484   2.933   2.466  1.8153 -0.6155 -1.0794
11181TIP3    H255035   4.493   2.783   2.449 -0.8724 -1.0597  0.7143
11182TIP3   OH255036   3.372   1.865  11.069 -0.7399 -0.3252 -0.1595
11182TIP3    H155037   3.280   1.837  11.064 -0.6149 -0.6345 -0.9232
11182TIP3    H255038   3.369   1.949  11.115 -1.5294  0.1674 -1.0638
11183TIP3   OH255039   6.844   5.620   3.350 -0.2833 -0.6080  0.3013
11183TIP3    H155040   6.863   5.591   3.260 -0.8420 -0.6532  0.1982
11183TIP3    H255041   6.750   5.635   3.351  0.0143  1.5795  0.2496
11184TIP3   OH255042   4.677   5.028  11.417 -0.1783 -0.0296 -0.7961
11184TIP3    H155043   4.640   5.032  11.329  0.4240  1.7019 -1.0125
11184TIP3    H255044   4.619   5.082  11.470 -0.1114 -0.4452 -0.2929
11185TIP3   OH255045   0.997   1.157   3.398  0.3125 -0.3434 -0.5260
11185TIP3    H155046   0.996   1.225   3.465  1.5766  0.5569 -1.3813
11185TIP3    H255047   0.952   1.197   3.323 -0.0869 -0.9238 -0.5991
11186TIP3   OH255048   3.391   1.288  15.974  0.0269 -0.1127 -0.1231
11186TIP3    H155049   3.464   1.296  16.036  1.4897  0.5001 -1.8573
11186TIP3    H255050   3.386   1.194  15.955 -2.3421 -0.7948  2.9977
11187TIP3   OH255051   4.695   3.650   3.012  0.0858  0.3677 -0.0328
11187TIP3    H155052   4.633   3.586   3.049 -0.4343 -0.9813 -2.9653
11187TIP3    H255053   4.778   3.602   3.005  0.6237  1.1339  0.8408
11188TIP3   OH255054   1.963   5.620   6.489  0.0261 -0.0617 -0.1673
11188TIP3    H155055   1.898   5.577   6.433  0.1487 -0.4380 -0.0231
11188TIP3    H255056   1.913   5.654   6.563 -0.1433  0.4759 -0.5272
11189TIP3   OH255057   4.434   1.257   0.450 -0.7974  0.2499 -0.0201
11189TIP3    H155058   4.440   1.170   0.411 -1.4534 -0.0080  0.4218
11189TIP3    H255059   4.474   1.315   0.386  1.2209 -0.5791  0.4225
11190TIP3   OH255060   5.704   6.666   3.897 -0.2301 -0.0037  0.1120
11190TIP3    H155061   5.650   6.697   3.970 -0.3589  0.0001  0.0151
11190TIP3    H255062   5.785   6.635   3.938 -0.4788 -0.4098  0.3046
11191TIP3   OH255063   3.203   5.133  13.372 -0.2063 -0.3085 -0.1274
11191TIP3    H155064   3.289   5.176  13.363  0.5939 -2.3316 -4.1487
11191TIP3    H255065   3.219   5.061  13.432  0.8679 -0.4857 -0.6010
11192TIP3   OH255066   1.378   1.557  15.522  0.4458 -0.1248 -0.5702
11192TIP3    H155067   1.297   1.588  15.482  0.1444 -1.0256 -0.6770
11192TIP3    H255068   1.395   1.619  15.594  0.8848  1.3827 -1.9164
11193TIP3   OH255069   6.109   2.698  16.075  0.0518 -0.0073 -0.5142
11193TIP3    H155070   6.147   2.771  16.124 -1.9002  0.4577  0.3785
11193TIP3    H255071   6.034   2.735  16.029 -0.4051 -1.2443 -0.8168
11194TIP3   OH255072   4.164   3.919   4.104  0.1260  0.0556 -0.3116
11194TIP3    H155073   4.105   3.846   4.085 -0.0151  0.3928 -1.2450
11194TIP3    H255074   4.180   3.959   4.018  1.0955  0.4383  0.0393
11195TIP3   OH255075   2.721   0.895  16.622  0.0530 -0.2022 -0.2969
11195TIP3    H155076   2.708   0.889  16.528  0.4765 -1.0491 -0.3097
11195TIP3    H255077   2.772   0.818  16.645  1.3953  0.8479  0.3881
11196TIP3   OH255078   4.610   2.663   0.705 -0.1001 -0.5774 -0.4658
11196TIP3    H155079   4.689   2.609   0.711  0.5251  0.3899  0.2680
11196TIP3    H255080   4.538   2.600   0.707  0.5742 -1.3547  1.5876
11197TIP3   OH255081   3.194   0.755  11.009 -0.0930 -0.5518 -0.3870
11197TIP3    H155082   3.119   0.807  10.980  0.2032  1.2099  1.7795
11197TIP3    H255083   3.263   0.777  10.946  0.9491  4.2627  1.9344
11198TIP3   OH255084   4.289   5.327   6.310  0.8141  0.1917 -0.0094
11198TIP3    H155085   4.194   5.339   6.307  0.7313 -0.0466  1.2277
11198TIP3    H255086   4.324   5.414   6.331  0.7403 -0.0538  1.2015
11199TIP3   OH255087   0.515   2.422  13.163 -0.5091  0.2103 -0.1186
11199TIP3    H155088   0.516   2.394  13.255 -1.9747  1.3359  0.2838
11199TIP3    H255089   0.422   2.431  13.142 -0.1723  1.2771 -1.2919
11200TIP3   OH255090   6.635   0.050   4.577  0.3137  0.0256  0.4314
11200TIP3    H155091   6.665   0.069   4.666 -1.4126 -1.0877  1.2996
11200TIP3    H255092   6.543   0.024   4.587 -0.4047  1.3674 -1.8577
11201TIP3   OH255093   2.152   3.455  14.770  0.4002 -0.3290 -0.6267
11201TIP3    H155094   2.223   3.484  14.714  0.5308 -0.1085 -0.3526
11201TIP3    H255095   2.080   3.435  14.710  0.9762 -1.4257 -0.9843
11202TIP3   OH255096   4.476   3.776  16.685 -0.1552  0.7448  0.3072
11202TIP3    H155097   4.402   3.745  16.633 -0.7992 -0.4520  1.8389
11202TIP3    H255098   4.553   3.737  16.643 -0.6348  0.0152  0.0747
11203TIP3   OH255099   2.021   1.030   1.783 -0.3945  0.2116  0.6513
11203TIP3    H155100   2.056   0.962   1.725  0.1673  1.9889 -1.1982
11203TIP3    H255101   1.930   1.003   1.801  0.3768 -1.9783  1.5930
11204TIP3   OH255102   6.267   5.461   4.984  0.5364 -0.1437  0.6774
11204TIP3    H155103   6.321   5.521   5.035 -0.2258  1.2075 -0.0715
11204TIP3    H255104   6.270   5.495   4.895 -0.3934 -0.8767  0.3496
11205TIP3   OH255105   3.427   5.000  14.137  0.5091 -0.8227 -0.1335
11205TIP3    H155106   3.410   5.088  14.172 -2.3560 -2.1283  2.1489
11205TIP3    H255107   3.517   4.981  14.165 -0.0538  0.0285  2.6535
11206TIP3   OH255108   4.231   2.911  13.185 -0.5005 -0.3175 -0.1720
11206TIP3    H155109   4.318   2.950  13.183 -0.8945  0.5625 -0.4696
11206TIP3    H255110   4.195   2.927  13.098 -1.4280  0.4214  0.3287
11207TIP3   OH255111   2.096   0.686   1.184  0.5486  0.1151  0.1956
11207TIP3    H155112   2.115   0.745   1.257 -0.0816 -0.5333  0.8920
11207TIP3    H255113   2.110   0.740   1.106  0.5838  1.0139  0.8080
11208TIP3   OH255114   5.524   6.766  15.420 -0.2129 -0.0757 -0.3808
11208TIP3    H155115   5.444   6.757  15.367 -0.2570  0.0132 -0.3299
11208TIP3    H255116   5.516   6.700  15.488 -0.4421  0.2117 -0.1259
11209TIP3   OH255117   6.285   4.931   3.022 -0.0383  0.7003 -0.1510
11209TIP3    H155118   6.197   4.947   2.988 -0.1308 -0.5704 -0.5625
11209TIP3    H255119   6.342   4.938   2.946 -0.2754 -2.4106 -0.7510
11210TIP3   OH255120   6.059   6.570   2.789 -0.4086  0.0106 -0.5322
11210TIP3    H155121   5.976   6.527   2.769 -0.3276 -0.2593 -0.3019
11210TIP3    H255122   6.035   6.649   2.837 -0.5877  0.5222 -1.4553
11211TIP3   OH255123   2.722   0.767   1.493  0.0315  0.5071  0.4020
11211TIP3    H155124   2.698   0.845   1.542 -0.6083  0.4341  0.2141
11211TIP3    H255125   2.658   0.701   1.520  0.6645 -0.0034  0.6837
11212TIP3   OH255126   6.312   5.848  15.794  0.0149  0.1986 -0.9012
11212TIP3    H155127   6.236   5.791  15.783 -0.3821  0.5229  0.0460
11212TIP3    H255128   6.309   5.907  15.718 -0.8042  0.3504 -0.7603
11213TIP3   OH255129   6.490   5.860   2.667  0.6944 -1.0776  0.3236
11213TIP3    H155130   6.559   5.912   2.628  1.0236 -2.5864 -1.2349
11213TIP3    H255131   6.447   5.816   2.593  0.2684 -2.7809  1.5000
11214TIP3   OH255132   6.216   2.018  15.709 -0.0298  0.5159 -0.5398
11214TIP3    H155133   6.295   2.064  15.735  0.7887 -1.1573  0.1060
11214TIP3    H255134   6.244   1.959  15.639 -0.8732  0.4519 -0.8398
11215TIP3   OH255135   5.416   3.649   1.994  0.3580  0.1423 -0.7327
11215TIP3    H155136   5.359   3.657   1.917 -2.3652  0.0194  1.1323
11215TIP3    H255137   5.423   3.739   2.028  1.0104  0.0950 -0.7211
11216TIP3   OH255138   5.110   2.234   3.886 -0.0231 -0.3983 -0.1237
11216TIP3    H155139   5.098   2.293   3.811 -1.7422 -0.6306 -0.0792
11216TIP3    H255140   5.175   2.278   3.940 -1.0346  1.3564 -0.2382
11217TIP3   OH255141   3.402   2.600   2.289  0.0826  0.3937 -0.2821
11217TIP3    H155142   3.407   2.559   2.376  1.5427 -0.4234 -0.7200
11217TIP3    H255143   3.470   2.556   2.238  1.0157  2.6531 -1.1052
11218TIP3   OH255144   5.823   5.838   2.484  0.1491  0.2505 -0.8063
11218TIP3    H155145   5.733   5.844   2.451 -0.4223  0.4693  0.7086
11218TIP3    H255146   5.818   5.776   2.556  0.5685  2.4777  1.2550
11219TIP3   OH255147   6.272   6.209   5.441 -0.2935 -0.6812  0.3395
11219TIP3    H155148   6.298   6.164   5.361 -1.7210 -0.4334 -0.2947
11219TIP3    H255149   6.354   6.225   5.488  0.8105  0.9394 -1.9996
11220TIP3   OH255150   0.093   4.923  12.327  0.5513  0.7723  0.0919
11220TIP3    H155151   0.107   5.017  12.315  0.2822  1.1312  2.1348
11220TIP3    H255152   0.077   4.913  12.421  0.4998 -1.3216 -0.0838
11221TIP3   OH255153   5.514   2.502  16.395 -0.3819  0.2239  0.4198
11221TIP3    H155154   5.576   2.532  16.462  0.3803  1.0906 -0.6186
11221TIP3    H255155   5.490   2.582  16.348  0.4774 -0.5501 -1.4445
11222TIP3   OH255156   6.752   4.141   3.131  0.1752  0.8125  0.0152
11222TIP3    H155157   6.766   4.136   3.225 -0.8848 -2.7893  0.1447
11222TIP3    H255158   6.667   4.182   3.121 -0.0225  0.5860  0.6991
11223TIP3   OH255159   4.673   6.258  16.589  0.9932  0.6379 -1.0691
11223TIP3    H155160   4.588   6.242  16.547  1.2878  0.7910 -1.7454
11223TIP3    H255161   4.729   6.290  16.518  1.1771  2.1060 -0.3042
11224TIP3   OH255162   5.356   4.541   3.102  0.5397  0.1167  0.1193
11224TIP3    H155163   5.418   4.520   3.032 -0.5325  0.8139 -1.0743
11224TIP3    H255164   5.388   4.492   3.178  3.0587  1.1827 -0.1880
11225TIP3   OH255165   1.519   4.109   1.064 -0.3359  0.0677  0.0896
11225TIP3    H155166   1.599   4.138   1.019  0.0026 -1.0825 -0.0753
11225TIP3    H255167   1.452   4.110   0.997  0.3656 -2.5451 -0.7657
11226TIP3   OH255168   1.884   5.749   5.900 -0.1028  0.3351  0.5630
11226TIP3    H155169   1.882   5.724   5.993  2.9101 -2.0428  0.1310
11226TIP3    H255170   1.856   5.670   5.854 -1.1341  1.3537 -0.6598
11227TIP3   OH255171   4.255   6.363   2.663 -0.3559 -0.6058 -0.6949
11227TIP3    H155172   4.160   6.365   2.680 -0.4774 -1.1107 -1.2884
11227TIP3    H255173   4.294   6.362   2.750 -0.8379  1.1681 -0.4055
11228TIP3   OH255174   3.845   6.150   1.436 -0.4080 -0.2788  0.1129
11228TIP3    H155175   3.755   6.169   1.462 -0.6407 -1.7921  0.5194
11228TIP3    H255176   3.880   6.096   1.507  0.9615  0.6045  0.1540
11229TIP3   OH255177   2.188   5.740   1.558 -0.5280  0.7974  0.1012
11229TIP3    H155178   2.183   5.670   1.623 -0.0027 -0.6688 -1.3689
11229TIP3    H255179   2.110   5.726   1.503 -1.4964  2.6100  0.9278
11230TIP3   OH255180   4.482   3.214   3.122  0.1850  0.3651  0.0702
11230TIP3    H155181   4.451   3.215   3.212 -0.0934  0.9166 -0.0261
11230TIP3    H255182   4.404   3.197   3.070  0.2276  0.7070 -0.1077
11231TIP3   OH255183   2.636   5.633   3.180 -0.3242  0.2853 -0.1665
11231TIP3    H155184   2.581   5.615   3.255 -0.1387 -1.1073 -0.3388
11231TIP3    H255185   2.577   5.672   3.115 -1.1347 -1.1577 -0.3410
11232TIP3   OH255186   0.469   6.832   3.810 -0.4196  0.3899 -0.1795
11232TIP3    H155187   0.433   6.856   3.725 -1.8948  1.2918  0.6600
11232TIP3    H255188   0.412   6.763   3.843  0.4133 -0.2810 -0.0938
11233TIP3   OH255189   1.564   1.043   0.439  0.3055  0.0917 -0.1600
11233TIP3    H155190   1.490   1.070   0.384 -0.1728  0.3226  0.5858
11233TIP3    H255191   1.545   0.953   0.463  0.0264  0.2940  0.4042
11234TIP3   OH255192   5.723   6.517  15.084 -0.3052  0.1677 -0.5579
11234TIP3    H155193   5.801   6.568  15.062 -0.0136  0.0347  0.1502
11234TIP3    H255194   5.697   6.476  15.001  0.1694  0.4918 -0.8690
11235TIP3   OH255195   5.524   1.443   3.557  0.6051 -1.0332 -0.1636
11235TIP3    H155196   5.444   1.421   3.510  1.0242 -1.9987 -0.4524
11235TIP3    H255197   5.503   1.424   3.649 -0.0634  0.4197  0.0102
11236TIP3   OH255198   1.104   0.686  15.128 -0.0097 -0.1326 -0.2249
11236TIP3    H155199   1.101   0.591  15.116 -0.5407 -0.1638  0.1153
11236TIP3    H255200   1.134   0.698  15.218 -1.1414 -0.0130  0.1547
11237TIP3   OH255201   6.810   5.606   3.702  0.4334  0.3393 -0.2872
11237TIP3    H155202   6.903   5.588   3.688  0.2332 -0.4547 -0.6556
11237TIP3    H255203   6.771   5.520   3.714 -0.5938  0.4895 -2.2876
11238TIP3   OH255204   0.264   4.712   2.268 -0.0611  0.0796  0.3418
11238TIP3    H155205   0.194   4.772   2.296 -0.7261 -0.4749 -0.1099
11238TIP3    H255206   0.318   4.701   2.346 -0.1938  0.8938  0.5654
11239TIP3   OH255207   6.533   5.655  13.478 -0.2987 -0.1597  0.1895
11239TIP3    H155208   6.560   5.744  13.454  0.9776 -0.9491 -1.5407
11239TIP3    H255209   6.438   5.659  13.482 -0.2809  1.2314 -0.0813
11240TIP3   OH255210   2.693   5.853   3.867 -0.3545  0.1576 -0.5449
11240TIP3    H155211   2.661   5.765   3.847  0.7930 -0.3512 -0.2365
11240TIP3    H255212   2.784   5.840   3.894  0.2315  1.5817 -1.6980
11241TIP3   OH255213   5.130   6.505  11.644 -0.2395 -0.3900  0.1429
11241TIP3    H155214   5.116   6.593  11.679  1.3106 -0.2727  0.5354
11241TIP3    H255215   5.136   6.450  11.721  1.8116 -0.3474  0.0599
11242TIP3   OH255216   5.585   3.412   5.535  0.0097  0.3386 -0.1984
11242TIP3    H155217   5.598   3.484   5.597 -0.0743  0.9270 -0.8542
11242TIP3    H255218   5.571   3.335   5.591  2.5246  0.3403  0.5674
11243TIP3   OH255219   3.919   4.110  14.765 -0.8449  0.4009 -0.7317
11243TIP3    H155220   3.838   4.136  14.721 -1.6205  1.2269  1.0827
11243TIP3    H255221   3.930   4.175  14.834  0.9254 -0.1927 -0.4193
11244TIP3   OH255222   5.231   1.257  11.128 -0.1883  0.3106  0.2228
11244TIP3    H155223   5.319   1.221  11.111 -1.1964 -2.2134 -0.0205
11244TIP3    H255224   5.179   1.227  11.054 -2.0572 -1.2240  2.0536
11245TIP3   OH255225   1.841   2.959  16.641  0.0948 -0.1346 -0.0287
11245TIP3    H155226   1.807   3.005  16.564  1.4425  1.3334  0.1875
11245TIP3    H255227   1.816   2.868  16.627 -0.7975  0.2984 -1.5737
11246TIP3   OH255228   5.999   0.633  17.089 -0.2619  0.4658  0.2585
11246TIP3    H155229   6.093   0.649  17.090 -0.1463 -0.1213 -0.3895
11246TIP3    H255230   5.969   0.678  17.009 -0.4089  0.0213  0.0630
11247TIP3   OH255231   1.095   2.995   6.521  0.0693 -0.0302  0.4751
11247TIP3    H155232   1.165   3.057   6.541  0.3604 -0.3806  0.5505
11247TIP3    H255233   1.134   2.909   6.535 -1.0448 -0.2217  2.9003
11248TIP3   OH255234   0.680   0.919   0.887  0.1303 -0.4160 -0.3848
11248TIP3    H155235   0.597   0.874   0.908  0.5339 -0.2262  1.8051
11248TIP3    H255236   0.728   0.855   0.834 -0.8288 -1.0989 -0.4696
11249TIP3   OH255237   0.850   0.506  12.828 -0.0567  0.6199 -0.0471
11249TIP3    H155238   0.817   0.507  12.738 -1.2102 -1.3109  0.3038
11249TIP3    H255239   0.789   0.449  12.875  2.0450 -0.5963  1.3505
11250TIP3   OH255240   3.575   3.090  13.426 -0.0737  0.2696  0.1685
11250TIP3    H155241   3.528   3.104  13.508 -0.4166  0.1516 -0.0079
11250TIP3    H255242   3.666   3.110  13.447 -0.2602  0.9077  0.4081
11251TIP3   OH255243   2.548   4.196  16.740 -0.5241  0.2918  0.4861
11251TIP3    H155244   2.596   4.223  16.818 -1.3003  0.0510  1.0677
11251TIP3    H255245   2.461   4.172  16.773 -0.6760 -0.4000 -0.3654
11252TIP3   OH255246   5.191   0.545  12.367 -0.1176 -0.7200 -0.1817
11252TIP3    H155247   5.280   0.579  12.376  0.0139 -1.3956  1.3393
11252TIP3    H255248   5.192   0.496  12.285  1.1292 -1.3348  0.1774
11253TIP3   OH255249   3.012   2.579   3.793  0.6550  0.1112  0.1588
11253TIP3    H155250   3.080   2.577   3.860  0.7301 -0.0034  0.0800
11253TIP3    H255251   2.949   2.511   3.821  0.5836  0.2032  0.2207
11254TIP3   OH255252   2.246   6.005   2.908  0.1244 -0.1223 -0.2925
11254TIP3    H155253   2.322   6.061   2.890  1.4680 -1.9681 -0.6988
11254TIP3    H255254   2.237   5.951   2.829 -1.8654  0.3004 -0.3875
11255TIP3   OH255255   3.294   3.008  10.759  0.2373  0.0910 -0.1794
11255TIP3    H155256   3.303   2.993  10.853  0.3116 -0.5390 -0.2850
11255TIP3    H255257   3.214   2.962  10.734  1.8063 -2.3899 -0.9654
11256TIP3   OH255258   4.983   6.415  16.075 -0.1494 -0.1618  0.4135
11256TIP3    H155259   4.904   6.469  16.071 -0.2513 -0.2139 -4.3151
11256TIP3    H255260   5.055   6.478  16.073 -0.0381 -0.1866  2.0190
11257TIP3   OH255261   3.146   1.373  16.100 -0.1043 -0.3607  0.1241
11257TIP3    H155262   3.107   1.293  16.135 -2.2195 -0.6471 -2.5250
11257TIP3    H255263   3.208   1.343  16.033 -0.2084  0.1707 -0.2212
11258TIP3   OH255264   0.580   6.263  11.828  1.0748 -0.7874 -0.2520
11258TIP3    H155265   0.485   6.270  11.813  0.8720  0.6157  1.4665
11258TIP3    H255266   0.616   6.248  11.741 -0.6887 -1.1020 -0.9874
11259TIP3   OH255267   1.501   3.729   3.776 -0.5539 -0.3573  0.2280
11259TIP3    H155268   1.481   3.771   3.860 -3.2911 -1.6543  0.3458
11259TIP3    H255269   1.449   3.777   3.712  0.5970 -0.1252 -0.5606
11260TIP3   OH255270   3.868   3.150   6.228 -0.1682 -0.1311  0.1103
11260TIP3    H155271   3.782   3.169   6.265  0.4803  0.2299  1.5101
11260TIP3    H255272   3.886   3.059   6.253 -0.2495 -0.3042 -0.4319
11261TIP3   OH255273   4.891   4.147  11.100  1.0488  0.6046  0.9990
11261TIP3    H155274   4.921   4.094  11.026  2.9397 -0.1097  2.1884
11261TIP3    H255275   4.866   4.231  11.061 -1.4812 -0.8797 -0.8576
11262TIP3   OH255276   5.460   1.391   3.842 -0.4179  0.0503 -0.7382
11262TIP3    H155277   5.391   1.393   3.908 -0.5981  1.3639 -0.9408
11262TIP3    H255278   5.509   1.472   3.856  0.5536 -0.4541 -1.1542
11263TIP3   OH255279   0.898   6.818   4.074  0.1983  0.0677 -0.3289
11263TIP3    H155280   0.979   6.791   4.031  0.1348  1.3492 -1.3071
11263TIP3    H255281   0.830   6.799   4.010 -0.0912  0.4965 -0.1516
11264TIP3   OH255282   2.607   4.925   0.167  0.0645 -0.1955 -0.2410
11264TIP3    H155283   2.619   4.901   0.075 -0.7763 -2.1419  0.1182
11264TIP3    H255284   2.682   4.886   0.211  0.0446  0.0474  0.0039
11265TIP3   OH255285   0.129   5.876   0.156 -0.0715  0.8563  0.0387
11265TIP3    H155286   0.191   5.891   0.227  1.8359  0.8896 -1.5338
11265TIP3    H255287   0.105   5.784   0.164  0.3876  0.7726  0.5412
11266TIP3   OH255288   5.176   3.436  13.426  0.2095 -0.5478  0.0340
11266TIP3    H155289   5.194   3.485  13.506 -0.5134  0.7493 -0.5605
11266TIP3    H255290   5.196   3.498  13.355 -3.0738 -0.1704 -0.7133
11267TIP3   OH255291   0.101   4.510  14.513 -0.2988  0.0232 -0.0067
11267TIP3    H155292   0.148   4.461  14.580 -0.0874 -1.5353 -1.2465
11267TIP3    H255293   0.011   4.478  14.519 -0.9096  1.7960  1.2428
11268TIP3   OH255294   5.999   6.280  13.097  0.3801 -0.0309  0.1756
11268TIP3    H155295   6.004   6.187  13.079 -0.5450 -0.1970  0.6945
11268TIP3    H255296   6.017   6.287  13.191 -0.5361  0.2043  0.3393
11269TIP3   OH255297   3.833   1.125  12.456 -0.1067 -0.1782  0.5650
11269TIP3    H155298   3.926   1.105  12.468 -0.5131 -3.3733 -0.5328
11269TIP3    H255299   3.832   1.197  12.393  1.5870  0.9462  1.7243
11270TIP3   OH255300   5.415   5.079  15.208  0.2109  0.3006  0.3291
11270TIP3    H155301   5.400   4.998  15.257  1.5316 -0.5714 -0.6382
11270TIP3    H255302   5.336   5.131  15.224 -1.2051 -1.6235  0.1095
11271TIP3   OH255303   4.294   0.706  15.423 -0.0034  0.4528 -0.3473
11271TIP3    H155304   4.319   0.683  15.512 -0.4665 -0.7220 -0.5129
11271TIP3    H255305   4.199   0.701  15.422 -0.0083  0.5802 -0.8815
11272TIP3   OH255306   0.466   2.751   1.823 -0.2990  0.1769  0.3710
11272TIP3    H155307   0.464   2.656   1.833  0.8889  0.3439  3.2623
11272TIP3    H255308   0.557   2.775   1.841 -0.4062  1.8177 -1.0475
11273TIP3   OH255309   4.572   5.347   5.937 -0.7191 -0.4071 -0.0079
11273TIP3    H155310   4.503   5.282   5.943 -0.1060 -0.9360  2.3399
11273TIP3    H255311   4.545   5.417   5.996  0.9903 -0.9369  1.4997
11274TIP3   OH255312   4.039   4.080   1.813 -0.5887 -0.7065  0.8687
11274TIP3    H155313   4.024   4.081   1.718  1.7672 -0.3137  0.4560
11274TIP3    H255314   4.021   4.170   1.841 -0.3681 -0.5927  0.6433
11275TIP3   OH255315   5.723   1.128  15.554  1.0184 -0.0913 -0.4901
11275TIP3    H155316   5.672   1.058  15.513  1.2928  0.0001 -0.9943
11275TIP3    H255317   5.718   1.200  15.492 -2.9034  1.9692  1.8164
11276TIP3   OH255318   6.654   4.293   3.531  0.0070  0.2436  0.1789
11276TIP3    H155319   6.585   4.296   3.465  0.3847 -0.0440 -0.2311
11276TIP3    H255320   6.714   4.364   3.507  1.9295 -1.8874 -1.7888
11277TIP3   OH255321   2.779   5.427  12.981 -0.6986  0.3811 -0.7676
11277TIP3    H155322   2.848   5.363  12.999 -1.5563 -0.5576 -0.7294
11277TIP3    H255323   2.775   5.431  12.886 -2.5048 -1.7563 -0.8538
11278TIP3   OH255324   6.246   3.925   3.295 -0.4285 -0.3718 -0.6814
11278TIP3    H155325   6.227   3.844   3.343  1.1007  0.1379  0.8772
11278TIP3    H255326   6.341   3.924   3.283  0.1894  2.7580  2.4558
11279TIP3   OH255327   5.496   1.606  11.574 -0.1653 -0.6692  0.8783
11279TIP3    H155328   5.469   1.556  11.496  2.0819 -0.2159 -0.2782
11279TIP3    H255329   5.524   1.539  11.636  3.1359 -1.0390 -0.7793
11280TIP3   OH255330   2.105   0.265   4.606  0.0349 -0.3407  0.1077
11280TIP3    H155331   2.015   0.237   4.618 -0.6498  0.4285 -2.5543
11280TIP3    H255332   2.099   0.360   4.590  1.3286 -0.2246  0.1442
11281TIP3   OH255333   3.783   0.261   5.203 -0.3863  0.2697  0.2807
11281TIP3    H155334   3.878   0.277   5.203 -0.1276 -1.1622  0.0345
11281TIP3    H255335   3.775   0.166   5.201 -1.8411  0.3632  0.8818
11282TIP3   OH255336   2.060   5.658   1.291  0.2463 -0.0685  0.4104
11282TIP3    H155337   2.152   5.672   1.267 -0.1153  1.6183 -0.0951
11282TIP3    H255338   2.021   5.746   1.290 -0.4067 -0.0772  4.7985
11283TIP3   OH255339   5.847   2.321   6.511 -0.3733 -0.0339  0.0965
11283TIP3    H155340   5.867   2.407   6.476  0.3643 -0.0425  0.4735
11283TIP3    H255341   5.902   2.313   6.589 -1.4181 -0.3109  0.8388
11284TIP3   OH255342   2.871   6.727  16.761  0.4086 -0.2342  0.0285
11284TIP3    H155343   2.803   6.733  16.828  1.1624 -0.4775  0.8334
11284TIP3    H255344   2.831   6.764  16.682 -0.1796  0.9097  0.8432
11285TIP3   OH255345   2.795   4.832  16.805 -0.3882 -0.1671  0.0740
11285TIP3    H155346   2.746   4.750  16.805 -0.6043 -0.0626  1.3830
11285TIP3    H255347   2.881   4.809  16.771 -0.2144 -1.1046  1.0894
11286TIP3   OH255348   5.488   2.321   1.401  0.8467 -0.3218 -0.2087
11286TIP3    H155349   5.486   2.358   1.313  0.4899  0.1256 -0.0180
11286TIP3    H255350   5.402   2.280   1.412  0.7832 -0.1220  0.0394
11287TIP3   OH255351   6.335   4.458   1.329 -0.1963  0.4171 -0.2619
11287TIP3    H155352   6.324   4.370   1.292  0.9389 -1.0837  2.6359
11287TIP3    H255353   6.427   4.479   1.310 -0.3133  0.7367 -0.4674
11288TIP3   OH255354   4.411   5.836   0.776  0.0694 -0.1995  0.1624
11288TIP3    H155355   4.433   5.807   0.865 -0.4356 -1.3457 -0.0619
11288TIP3    H255356   4.388   5.928   0.786 -1.3053 -0.6324  1.4785
11289TIP3   OH255357   3.898   4.496  11.459 -0.1135  0.1808  0.1835
11289TIP3    H155358   3.839   4.463  11.391 -0.5908  1.0857  0.1318
11289TIP3    H255359   3.844   4.560  11.507  0.3385 -0.1524  1.1583
11290TIP3   OH255360   5.651   5.748   5.728  0.3763 -0.0423  0.0524
11290TIP3    H155361   5.728   5.729   5.781 -0.6408  1.0857  2.0420
11290TIP3    H255362   5.686   5.784   5.647  1.9888 -2.1027 -0.2615
11291TIP3   OH255363   6.724   6.844   3.432 -0.1057  0.1634 -0.5268
11291TIP3    H155364   6.778   6.829   3.354 -0.1560  0.8095 -0.6883
11291TIP3    H255365   6.639   6.871   3.398  0.0522  1.0515 -0.2459
11292TIP3   OH255366   5.533   6.562   0.045  0.6036 -0.4065 -0.3217
11292TIP3    H155367   5.465   6.500   0.069  0.4407  0.0024  0.2896
11292TIP3    H255368   5.564   6.597   0.129  0.1529  0.9140 -0.6914
11293TIP3   OH255369   5.267   4.062   2.082 -0.0847 -0.2536  0.0228
11293TIP3    H155370   5.201   4.100   2.141 -0.0255  0.2655 -0.2397
11293TIP3    H255371   5.309   3.994   2.134  1.0714  1.2618  1.1688
11294TIP3   OH255372   1.262   1.934  13.120 -0.3312 -0.1379 -0.8181
11294TIP3    H155373   1.347   1.938  13.076  0.6959 -1.4811  0.9187
11294TIP3    H255374   1.224   2.021  13.105  0.9189  0.1899 -2.4086
11295TIP3   OH255375   1.906   0.601  12.485  0.0452 -0.3180  0.6791
11295TIP3    H155376   1.974   0.537  12.504 -0.3097 -0.8556  0.1617
11295TIP3    H255377   1.952   0.685  12.484  0.8973 -0.7629 -0.6297
11296TIP3   OH255378   5.058   0.179   1.428  0.4255 -0.4931  0.6905
11296TIP3    H155379   5.119   0.115   1.391  0.1102 -1.4657  1.7938
11296TIP3    H255380   5.052   0.156   1.520  0.6618  1.4388  1.2256
11297TIP3   OH255381   4.387   4.837  15.962  0.9032  0.0146 -0.0235
11297TIP3    H155382   4.436   4.919  15.966  1.1736 -0.1960  1.6702
11297TIP3    H255383   4.360   4.830  15.871  2.2887  1.1543 -0.5608
11298TIP3   OH255384   6.738   0.361  13.147 -0.1169 -0.6899 -0.0195
11298TIP3    H155385   6.807   0.369  13.213 -1.1423  1.0952  0.9148
11298TIP3    H255386   6.688   0.283  13.174  0.8171 -1.3142 -0.0426
11299TIP3   OH255387   4.141   2.986   0.574 -0.3775 -0.1432  0.6564
11299TIP3    H155388   4.160   3.009   0.483 -0.5887  1.3555  0.9768
11299TIP3    H255389   4.226   2.963   0.611 -0.0533  0.7828  0.4986
11300TIP3   OH255390   1.615   3.830   2.614 -0.5669 -0.7613 -0.2025
11300TIP3    H155391   1.686   3.871   2.564 -2.2883 -0.0334 -2.2470
11300TIP3    H255392   1.655   3.753   2.654  1.3954 -0.3037 -1.1295
11301TIP3   OH255393   3.714   5.837   5.619 -0.0912 -0.4851 -0.0105
11301TIP3    H155394   3.772   5.858   5.693 -0.1726  0.0307 -0.0878
11301TIP3    H255395   3.705   5.920   5.572  2.4839 -1.3785 -2.3975
11302TIP3   OH255396   1.388   1.674   2.721 -0.3200 -0.1258 -0.6877
11302TIP3    H155397   1.301   1.659   2.684  0.1952 -0.8187 -1.6873
11302TIP3    H255398   1.376   1.746   2.783 -1.7008 -0.5826 -0.3986
11303TIP3   OH255399   1.537   6.723  12.258  0.2383  0.5793 -0.0759
11303TIP3    H155400   1.468   6.769  12.210  0.9610  1.1786 -0.5706
11303TIP3    H255401   1.573   6.661  12.195 -1.6300 -1.7350  0.9708
11304TIP3   OH255402   0.647   2.147   4.715  0.7690  0.0416  0.0561
11304TIP3    H155403   0.727   2.189   4.747  0.5730  0.0975  0.4888
11304TIP3    H255404   0.627   2.080   4.780 -1.1970  2.0041  1.6640
11305TIP3   OH255405   2.918   4.994  12.537  0.2462  0.0263  0.2863
11305TIP3    H155406   2.862   4.955  12.605 -0.8456  1.1469  0.0697
11305TIP3    H255407   2.925   5.087  12.562  1.2780  0.0975 -0.1998
11306TIP3   OH255408   0.867   1.340   5.625  0.2377 -0.6439 -0.7818
11306TIP3    H155409   0.954   1.350   5.664 -0.2180  0.7497 -0.0437
11306TIP3    H255410   0.809   1.324   5.700 -0.3794  0.1469 -1.0792
11307TIP3   OH255411   1.512   0.589  12.527 -0.4454  0.1567 -0.2808
11307TIP3    H155412   1.504   0.645  12.604 -0.6746  0.1684 -0.3123
11307TIP3    H255413   1.446   0.622  12.467  0.4645  0.8549 -0.9263
11308TIP3   OH255414   0.176   5.652  13.789 -0.0082 -0.2019  0.0608
11308TIP3    H155415   0.210   5.727  13.740  0.5751  0.7316  1.8157
11308TIP3    H255416   0.254   5.601  13.811 -0.2024 -0.3539  0.4105
11309TIP3   OH255417   6.650   3.978   4.768 -0.1647 -0.4451  1.0972
11309TIP3    H155418   6.666   4.064   4.806  1.4176  1.0824 -2.5460
11309TIP3    H255419   6.588   3.994   4.697  0.0777 -2.3068  0.4060
11310TIP3   OH255420   2.086   3.453   3.774 -0.6267  0.0178 -0.4113
11310TIP3    H155421   2.147   3.379   3.774 -0.2343  0.3261  0.6286
11310TIP3    H255422   1.999   3.413   3.779 -0.4706 -0.3969 -0.9408
11311TIP3   OH255423   4.219   5.565  11.806 -0.2048  0.3416  0.1860
11311TIP3    H155424   4.198   5.578  11.898  0.8656 -0.1806  0.5180
11311TIP3    H255425   4.135   5.543  11.765 -0.5112 -0.5048  1.2362
11312TIP3   OH255426   4.275   5.419   3.497  0.5341 -0.4449  0.6353
11312TIP3    H155427   4.213   5.490   3.484 -0.9460 -1.6666  0.6390
11312TIP3    H255428   4.283   5.378   3.411  1.0944 -0.4885  0.7053
11313TIP3   OH255429   1.480   5.161   4.269 -0.2088 -0.0476 -0.1167
11313TIP3    H155430   1.534   5.145   4.191  0.4371 -1.5118  0.6042
11313TIP3    H255431   1.538   5.144   4.343 -1.2862 -0.3798  0.6844
11314TIP3   OH255432   4.926   1.783  16.772  0.1171  0.0954 -0.3753
11314TIP3    H155433   4.905   1.869  16.736 -1.0191 -0.1554 -0.3652
11314TIP3    H255434   5.020   1.785  16.787  0.0420  1.4947  0.0323
11315TIP3   OH255435   4.166   6.148   6.259  0.0516  0.0901  0.3480
11315TIP3    H155436   4.106   6.087   6.217  0.0170 -0.5863  1.3389
11315TIP3    H255437   4.238   6.094   6.291  0.7837  0.7804 -0.0890
11316TIP3   OH255438   2.385   2.721  16.549 -0.2103 -0.0866 -0.2544
11316TIP3    H155439   2.395   2.763  16.635 -2.0985  0.3953 -0.2164
11316TIP3    H255440   2.354   2.791  16.492  1.6520 -0.2440 -1.5425
11317TIP3   OH255441   5.779   6.302   5.505 -0.0196  0.1629 -0.0977
11317TIP3    H155442   5.795   6.384   5.550  0.1448 -0.2507  0.6134
11317TIP3    H255443   5.859   6.285   5.456 -1.1077  1.9096 -2.6866
11318TIP3   OH255444   1.065   5.674   2.318  0.0692  0.0092 -0.3457
11318TIP3    H155445   1.158   5.687   2.337  0.2928 -1.1362 -0.5969
11318TIP3    H255446   1.020   5.735   2.376  0.8697 -1.0925  1.5324
11319TIP3   OH255447   1.681   5.965   5.098  0.2432  0.2955  0.1826
11319TIP3    H155448   1.716   5.962   5.009  0.0756  0.2081  0.1195
11319TIP3    H255449   1.594   5.925   5.091 -0.2734  1.3682  0.1462
11320TIP3   OH255450   5.428   1.558  14.280 -0.0742 -0.5186 -0.0763
11320TIP3    H155451   5.518   1.540  14.253 -0.0461  1.2143 -1.2471
11320TIP3    H255452   5.437   1.622  14.351 -0.3855  0.0080 -0.5059
11321TIP3   OH255453   3.615   1.332  16.171 -0.0624  0.0381 -0.1511
11321TIP3    H155454   3.686   1.355  16.231 -0.3846  0.9869 -0.1013
11321TIP3    H255455   3.557   1.409  16.173 -0.3487 -0.1384 -1.2722
11322TIP3   OH255456   6.296   6.113  13.321  0.1143 -0.0568  0.1721
11322TIP3    H155457   6.357   6.101  13.394  0.0638 -1.0222  0.0656
11322TIP3    H255458   6.342   6.171  13.260 -0.1215  1.3682  1.2729
11323TIP3   OH255459   1.026   1.938  11.523  0.6605  0.2565 -0.2421
11323TIP3    H155460   1.039   2.011  11.583 -0.1147 -0.8560  1.3309
11323TIP3    H255461   1.036   1.860  11.577  2.8989 -0.8937 -2.1544
11324TIP3   OH255462   0.341   1.616  16.184 -0.9562  0.5264  0.0946
11324TIP3    H155463   0.349   1.584  16.274  0.7819 -0.0308 -0.2138
11324TIP3    H255464   0.395   1.695  16.181 -1.4654  0.8644 -0.3161
11325TIP3   OH255465   6.730   5.928  16.255 -0.3781 -0.2256 -0.2674
11325TIP3    H155466   6.811   5.901  16.298  0.0275 -1.7220 -1.8632
11325TIP3    H255467   6.758   5.975  16.177 -1.0343 -0.4053 -0.6246
11326TIP3   OH255468   1.714   5.636   6.673  0.1835  0.0701  0.5793
11326TIP3    H155469   1.640   5.681   6.714 -0.7177 -0.8584  0.0169
11326TIP3    H255470   1.790   5.662   6.725 -0.1788  2.7551 -0.1092
11327TIP3   OH255471   1.127   4.055   3.253 -0.5126  0.3370 -0.5669
11327TIP3    H155472   1.112   4.142   3.288 -0.9930 -0.2948  0.8886
11327TIP3    H255473   1.066   3.999   3.300  0.5814 -0.9718 -0.6307
11328TIP3   OH255474   4.900   3.381  13.434  0.0256  0.0398  0.8362
11328TIP3    H155475   4.987   3.397  13.399  0.5328  0.7071  2.3454
11328TIP3    H255476   4.852   3.463  13.419 -0.2079 -0.1671  0.4277
11329TIP3   OH255477   0.434   0.891   3.950  0.2388  0.4592 -0.1117
11329TIP3    H155478   0.342   0.868   3.934  0.3627  0.4929 -0.9476
11329TIP3    H255479   0.482   0.811   3.931  0.6843  1.2891 -3.1460
11330TIP3   OH255480   0.114   0.526   2.850 -0.4205 -0.3754 -0.4491
11330TIP3    H155481   0.114   0.605   2.796  1.4670 -1.7080 -2.5701
11330TIP3    H255482   0.201   0.525   2.891 -1.1713 -0.3374  1.2362
11331TIP3   OH255483   1.082   1.062  14.083  0.0937  0.4280  1.1827
11331TIP3    H155484   1.051   0.976  14.052 -0.2468  0.3834  1.6245
11331TIP3    H255485   1.053   1.124  14.016  0.1076  0.2292  0.9910
11332TIP3   OH255486   1.159   1.194   5.444 -0.1270 -0.1688  0.7033
11332TIP3    H155487   1.067   1.184   5.470  0.0230 -0.0954  1.2858
11332TIP3    H255488   1.205   1.128   5.497 -0.0396 -1.3403 -0.7711
11333TIP3   OH255489   1.607   3.688   3.366 -0.0040 -0.5174  0.1544
11333TIP3    H155490   1.574   3.678   3.276 -1.4520  0.7375  0.5163
11333TIP3    H255491   1.629   3.780   3.373 -0.9588 -0.3715  1.4364
11334TIP3   OH255492   1.979   1.279  16.759  0.1504 -0.8667 -0.2655
11334TIP3    H155493   2.070   1.304  16.779 -0.4251  0.4214  0.9479
11334TIP3    H255494   1.932   1.362  16.758 -1.7878 -1.7249  3.3158
11335TIP3   OH255495   3.678   1.018   0.887 -0.0128 -0.0185 -0.2256
11335TIP3    H155496   3.611   1.086   0.897 -0.3200 -0.3992  0.3249
11335TIP3    H255497   3.715   1.008   0.974  1.6381  1.0639 -0.7571
11336TIP3   OH255498   6.159   1.844   0.234 -0.1085 -0.3771  0.2765
11336TIP3    H155499   6.103   1.803   0.300  1.5908 -0.5799  1.6607
11336TIP3    H255500   6.154   1.938   0.253  1.8751 -0.5561  2.0325
11337TIP3   OH255501   5.013   1.350  10.906 -0.3309  0.1942  0.0473
11337TIP3    H155502   4.920   1.363  10.919 -0.2996  0.0100  0.4879
11337TIP3    H255503   5.020   1.259  10.875 -0.3225  0.2965 -0.2465
11338TIP3   OH255504   3.398   4.958   1.816 -0.3440  0.4654  0.4528
11338TIP3    H155505   3.386   4.893   1.747 -0.6506  0.6682  0.3131
11338TIP3    H255506   3.341   4.929   1.887  0.9175 -0.4485  1.1385
11339TIP3   OH255507   4.914   1.419  11.186 -0.4246  0.0032  0.0998
11339TIP3    H155508   4.940   1.355  11.120 -3.1453 -0.6582 -0.4303
11339TIP3    H255509   4.859   1.369  11.246 -0.5816  1.3297  1.0912
11340TIP3   OH255510   3.239   4.630  12.364  0.0120  0.3845 -0.1685
11340TIP3    H155511   3.207   4.651  12.277 -1.4183 -0.9688 -0.0137
11340TIP3    H255512   3.245   4.534  12.365  0.8403  0.4250  0.9397
11341TIP3   OH255513   6.305   0.994  13.571  0.1139 -0.4792 -0.1433
11341TIP3    H155514   6.263   0.965  13.491  0.2605  1.6349 -1.0475
11341TIP3    H255515   6.372   0.928  13.589 -1.2940 -2.0759 -0.5631
11342TIP3   OH255516   5.049   1.615  11.412 -0.4173  0.3349  0.0174
11342TIP3    H155517   4.975   1.676  11.420 -0.0357  0.8655 -0.3836
11342TIP3    H255518   5.033   1.569  11.329 -0.7170 -0.1351  0.3318
11343TIP3   OH255519   3.442   3.843  15.054  0.3557  0.0073  0.0090
11343TIP3    H155520   3.365   3.790  15.077 -0.4030  1.2029  0.2959
11343TIP3    H255521   3.487   3.856  15.137 -0.4047  1.2460  0.2528
11344TIP3   OH255522   2.242   6.759   0.254  0.0658 -0.1976 -0.0504
11344TIP3    H155523   2.189   6.748   0.333 -0.4079 -2.1283 -0.6049
11344TIP3    H255524   2.211   6.842   0.217 -0.3150  0.3011  1.2974
11345TIP3   OH255525   0.615   3.139  11.710  0.3883  0.1071  0.3327
11345TIP3    H155526   0.528   3.138  11.749  0.4560 -1.2431  0.4995
11345TIP3    H255527   0.661   3.211  11.754 -1.1410  1.9688 -0.9694
11346TIP3   OH255528   3.500   3.132  13.113 -0.5102  0.0970  0.1919
11346TIP3    H155529   3.552   3.053  13.129 -0.6790  0.2444  1.5986
11346TIP3    H255530   3.541   3.199  13.167 -1.3362  0.5570  0.2601
11347TIP3   OH255531   1.893   3.945  15.453 -0.3342  0.1295 -0.2688
11347TIP3    H155532   1.972   3.993  15.431 -0.9417  1.0696 -0.4716
11347TIP3    H255533   1.880   3.961  15.547 -0.9677  1.0443 -0.5001
11348TIP3   OH255534   1.800   0.016   2.315 -0.1254 -0.8916 -0.4282
11348TIP3    H155535   1.772   0.009   2.406 -0.9613  0.4163 -0.5599
11348TIP3    H255536   1.724  -0.013   2.264 -0.3034  0.0581 -0.7286
11349TIP3   OH255537   1.944   2.549   4.036  0.0741  0.5687  1.2077
11349TIP3    H155538   1.858   2.580   4.064 -1.0751 -0.6378 -0.7603
11349TIP3    H255539   1.972   2.490   4.106 -1.0237  0.4317  1.5455
11350TIP3   OH255540   1.991   1.406  11.311  0.2808  0.2172  0.4652
11350TIP3    H155541   2.067   1.349  11.320  0.8384  0.9460  0.4858
11350TIP3    H255542   1.986   1.453  11.394 -0.5533 -0.2418  0.6881
11351TIP3   OH255543   2.013   5.050   0.308 -0.0374  0.0121 -0.1029
11351TIP3    H155544   1.987   5.008   0.226 -1.3346 -0.3955  0.4966
11351TIP3    H255545   2.032   4.978   0.368 -1.7732  0.2379  0.7710
11352TIP3   OH255546   3.502   2.792  15.429 -0.1321  0.5057 -0.0715
11352TIP3    H155547   3.478   2.778  15.521 -2.5849  0.7387 -0.6192
11352TIP3    H255548   3.518   2.887  15.424 -0.2036  0.5258  0.0608
11353TIP3   OH255549   4.709   3.596  13.017 -0.1492 -0.1751  0.6227
11353TIP3    H155550   4.641   3.652  13.054  0.8356  1.0623  0.6127
11353TIP3    H255551   4.773   3.586  13.087 -0.5123 -1.6697  0.7700
11354TIP3   OH255552   2.384   4.287  14.963 -0.2435 -0.0544  0.1068
11354TIP3    H155553   2.476   4.283  14.992 -0.1763  0.3961 -0.0345
11354TIP3    H255554   2.345   4.207  14.998  0.0698  0.0131  0.6347
11355TIP3   OH255555   2.822   2.445   0.014  0.4965 -0.1467  0.3222
11355TIP3    H155556   2.911   2.424  -0.015 -0.6179 -0.8243 -3.1324
11355TIP3    H255557   2.769   2.439  -0.066 -2.9166 -1.1024  2.4458
11356TIP3   OH255558   6.064   4.656  15.461 -0.0768 -0.2461 -0.3014
11356TIP3    H155559   6.070   4.631  15.369 -1.5932  1.6823 -0.9923
11356TIP3    H255560   6.110   4.739  15.467  2.3637 -1.5768  1.3358
11357TIP3   OH255561   2.957   3.643  15.172 -0.1007  0.5359 -0.0022
11357TIP3    H155562   2.905   3.702  15.117 -1.3919 -0.8207 -0.3162
11357TIP3    H255563   2.926   3.660  15.261 -1.0978 -0.2073 -0.1783
11358TIP3   OH255564   2.950   6.455  10.654  0.3968  0.0528  0.2939
11358TIP3    H155565   2.864   6.488  10.628  0.2411 -0.0288  0.6990
11358TIP3    H255566   3.003   6.459  10.574 -0.0313 -0.0550  0.0047
11359TIP3   OH255567   2.448   1.989   3.864 -0.6823 -0.5880  0.1884
11359TIP3    H155568   2.411   2.071   3.898  0.3511 -0.1245  0.2411
11359TIP3    H255569   2.384   1.959   3.800 -1.8219 -0.5592  1.2754
11360TIP3   OH255570   3.501   6.461   5.588 -0.1624  0.1765 -0.7099
11360TIP3    H155571   3.544   6.481   5.505 -0.8202  1.3428 -0.7912
11360TIP3    H255572   3.440   6.390   5.566  0.8575 -0.6885 -0.8357
11361TIP3   OH255573   2.743   2.438   3.812  0.2799  0.0703 -1.1025
11361TIP3    H155574   2.754   2.389   3.731 -1.0399 -1.9064 -0.1763
11361TIP3    H255575   2.669   2.496   3.796  0.7767  0.5554 -1.6715
11362TIP3   OH255576   5.297   1.794   4.272 -0.2782  0.7477  0.3483
11362TIP3    H155577   5.214   1.788   4.320 -1.3884  1.0108 -1.4388
11362TIP3    H255578   5.355   1.843   4.330 -0.9291 -0.5208  2.1821
11363TIP3   OH255579   1.586   6.018   0.675 -0.0833 -0.3073 -0.0257
11363TIP3    H155580   1.656   5.974   0.725  0.3248  0.3649  0.0118
11363TIP3    H255581   1.531   5.947   0.643  0.1591 -0.8033  0.6374
11364TIP3   OH255582   3.361   5.378  16.233  0.3059  0.0732  0.0541
11364TIP3    H155583   3.403   5.336  16.308 -0.2752 -1.5736 -0.4917
11364TIP3    H255584   3.303   5.444  16.272 -1.1770 -1.7902  1.2202
11365TIP3   OH255585   5.992   3.746   1.336  0.4734  0.5038  0.5319
11365TIP3    H155586   5.917   3.805   1.344 -0.7459 -0.9702  0.4465
11365TIP3    H255587   6.049   3.769   1.409 -0.5796  0.9572  1.2320
11366TIP3   OH255588   3.918   5.658  16.781  0.0572 -0.4952 -0.4588
11366TIP3    H155589   3.983   5.728  16.773  0.3939 -0.7641 -0.0391
11366TIP3    H255590   3.964   5.579  16.752 -0.1991 -0.6206 -0.5261
11367TIP3   OH255591   2.191   4.097   2.786 -0.0711 -0.3016 -0.5201
11367TIP3    H155592   2.128   4.037   2.747 -1.7390  1.2023 -0.2475
11367TIP3    H255593   2.204   4.165   2.720  1.2584 -0.5510 -0.5494
11368TIP3   OH255594   5.134   4.487  15.480  0.4878 -0.0424 -0.8066
11368TIP3    H155595   5.136   4.582  15.492  0.1509  0.2233 -2.5406
11368TIP3    H255596   5.120   4.452  15.568 -0.4193  1.5576 -0.2664
11369TIP3   OH255597   3.879   2.038  16.272 -0.0355 -0.0725 -0.1636
11369TIP3    H155598   3.937   2.007  16.202  0.8365  2.0677 -0.4832
11369TIP3    H255599   3.806   2.080  16.225 -0.3388 -0.1489  0.2342
11370TIP3   OH255600   0.144   4.298  14.673  0.5919  0.1581 -0.4263
11370TIP3    H155601   0.137   4.327  14.764 -0.5182 -0.2892 -0.3483
11370TIP3    H255602   0.202   4.222  14.677 -0.1848 -0.4260  0.0614
11371TIP3   OH255603   0.933   3.344  15.003  0.6846 -0.0522  0.0863
11371TIP3    H155604   0.916   3.367  15.094 -0.1906 -0.4124  0.0280
11371TIP3    H255605   1.018   3.300  15.005  1.1427  0.8243  0.5721
11372TIP3   OH255606   5.558   5.702   2.084  0.1443  0.5251 -0.3821
11372TIP3    H155607   5.521   5.629   2.135 -1.4724  1.4959 -0.0947
11372TIP3    H255608   5.486   5.731   2.028  1.0014  1.4053 -1.0661
11373TIP3   OH255609   4.533   4.142  16.841 -0.4134  0.5139  0.0341
11373TIP3    H155610   4.541   4.236  16.826 -2.1749  1.1515  2.5063
11373TIP3    H255611   4.484   4.110  16.765 -1.1250  1.8757 -0.1167
11374TIP3   OH255612   6.488   2.711   2.664 -0.5655 -0.3808 -0.4838
11374TIP3    H155613   6.522   2.697   2.576  0.2198  0.7206 -0.3862
11374TIP3    H255614   6.534   2.646   2.718 -1.2992 -1.2799 -0.9253
11375TIP3   OH255615   1.791   2.080   4.301  0.2906  0.0432 -0.2705
11375TIP3    H155616   1.811   2.074   4.395 -1.0038  1.0687  0.0919
11375TIP3    H255617   1.873   2.057   4.258  1.0799  0.1415  1.1237
11376TIP3   OH255618   1.098   2.154  12.374 -0.5348  0.2170  0.1635
11376TIP3    H155619   1.044   2.081  12.405  1.2174 -1.2054  0.0457
11376TIP3    H255620   1.180   2.113  12.346  0.8149  2.3073  0.7654
11377TIP3   OH255621   1.037   3.605  15.770 -0.1890  0.0197 -0.5280
11377TIP3    H155622   0.956   3.554  15.770 -0.2378  0.0879  0.0796
11377TIP3    H255623   1.030   3.663  15.694 -1.4018  1.1123  0.3872
11378TIP3   OH255624   2.976   0.101  12.975 -0.2379  0.4597  0.2897
11378TIP3    H155625   2.883   0.087  12.993  0.1396 -0.7903  1.5194
11378TIP3    H255626   3.011   0.139  13.056  0.3482  0.7574 -0.0944
11379TIP3   OH255627   3.859   6.654   1.094 -0.0474  0.1751 -0.3368
11379TIP3    H155628   3.890   6.737   1.130 -2.0795  0.2957  1.2534
11379TIP3    H255629   3.833   6.675   1.004  1.3271  0.7723 -0.6211
11380TIP3   OH255630   0.814   4.731   3.581 -0.3306  0.2576 -0.0875
11380TIP3    H155631   0.830   4.735   3.486 -1.0799 -1.6561 -0.3356
11380TIP3    H255632   0.768   4.648   3.594 -1.4105  1.0968  1.8076
11381TIP3   OH255633   6.019   3.073  15.238 -0.2045  0.1421 -0.2340
11381TIP3    H155634   5.954   3.071  15.309 -1.3497 -0.9843 -1.2804
11381TIP3    H255635   6.031   3.166  15.221 -0.0785  0.4357  1.2678
11382TIP3   OH255636   3.729   2.745   4.646 -0.1623  0.8001 -1.1047
11382TIP3    H155637   3.797   2.685   4.615 -0.6456 -1.1032  1.1736
11382TIP3    H255638   3.769   2.791   4.720 -0.8457  0.8411 -0.7522
11383TIP3   OH255639   0.294   5.219  14.223  0.2865  0.2757 -0.0082
11383TIP3    H155640   0.282   5.253  14.311  0.3120  2.2341 -0.7035
11383TIP3    H255641   0.386   5.194  14.218 -0.0606 -1.3259  0.9602
11384TIP3   OH255642   0.829   0.080  16.455  0.4047 -0.2003 -0.4442
11384TIP3    H155643   0.756   0.020  16.436  0.1250  0.1657 -0.5302
11384TIP3    H255644   0.871   0.042  16.532  0.2713 -0.5460 -0.5365
11385TIP3   OH255645   5.729   2.028  16.038 -0.1735  0.0650  0.0587
11385TIP3    H155646   5.784   2.023  15.960  1.6116 -0.2405  1.2509
11385TIP3    H255647   5.791   2.017  16.111 -1.8288 -0.1891  1.4960
11386TIP3   OH255648   2.482   6.055  11.697 -0.0503 -0.0323  1.1937
11386TIP3    H155649   2.511   6.042  11.607  0.1687  0.3160  1.2145
11386TIP3    H255650   2.495   6.148  11.713  1.9647 -0.4496  2.3150
11387TIP3   OH255651   1.531   4.476   1.633 -0.1309  0.1213  0.6166
11387TIP3    H155652   1.545   4.534   1.708  1.0477 -0.4256  0.8488
11387TIP3    H255653   1.601   4.499   1.571  0.0524 -0.7050  0.4992
11388TIP3   OH255654   6.582   0.160  11.607 -0.3151  0.1446  0.4906
11388TIP3    H155655   6.598   0.243  11.651 -1.5307  1.0114 -0.6360
11388TIP3    H255656   6.596   0.094  11.675 -0.4729  1.3291  1.7142
11389TIP3   OH255657   5.417   3.909   5.345 -0.3124 -0.0777 -0.3092
11389TIP3    H155658   5.503   3.869   5.358 -0.3866 -0.5798 -1.2870
11389TIP3    H255659   5.414   3.928   5.251 -1.0807  0.3777 -0.1944
11390TIP3   OH255660   1.981   5.671  12.877 -0.0576  0.1659 -0.3201
11390TIP3    H155661   2.058   5.663  12.821  0.7332 -4.3454  0.9893
11390TIP3    H255662   2.011   5.725  12.950  1.6434 -0.6475 -0.3444
11391TIP3   OH255663   6.342   2.413  13.936  0.4285 -0.0754 -0.2217
11391TIP3    H155664   6.279   2.481  13.911 -0.2869 -0.7100 -0.1941
11391TIP3    H255665   6.417   2.428  13.879  0.3342  0.8084 -0.1340
11392TIP3   OH255666   0.792   3.707  15.398  0.1923 -0.1037  1.0112
11392TIP3    H155667   0.823   3.628  15.354  1.0357  0.7977 -0.0551
11392TIP3    H255668   0.749   3.675  15.477  0.7625 -1.6124  0.7338
11393TIP3   OH255669   3.914   1.319  16.032  0.4213  0.5317  0.3700
11393TIP3    H155670   3.858   1.341  15.958  0.0092 -0.3019  0.4155
11393TIP3    H255671   4.002   1.311  15.994  0.3336  0.8123  0.1034
11394TIP3   OH255672   0.886   2.568   1.474  0.9056  0.3495  0.0757
11394TIP3    H155673   0.833   2.505   1.523  1.4603  0.5786  1.0085
11394TIP3    H255674   0.828   2.642   1.460  1.2599  1.0742  2.0935
11395TIP3   OH255675   0.928   4.238  13.498  0.2833  0.4949  0.1633
11395TIP3    H155676   0.833   4.227  13.494  0.1158  1.8941 -0.4341
11395TIP3    H255677   0.959   4.162  13.547 -1.1189 -0.0935  0.1914
11396TIP3   OH255678   2.945   5.203  16.531  0.0553  0.2798  0.3421
11396TIP3    H155679   3.036   5.183  16.551  0.3296 -0.1811 -1.2271
11396TIP3    H255680   2.949   5.266  16.459 -0.8391 -0.9495 -0.8364
11397TIP3   OH255681   1.481   6.378  11.764 -0.4296  0.1680  0.1639
11397TIP3    H155682   1.440   6.324  11.833  0.1569 -0.1388  0.2756
11397TIP3    H255683   1.552   6.424  11.809 -1.2629  1.4701  0.1907
11398TIP3   OH255684   2.062   1.454   2.127  0.2739  0.0578  0.0771
11398TIP3    H155685   2.088   1.363   2.141 -0.7165 -0.6669 -2.3243
11398TIP3    H255686   2.144   1.498   2.103  0.5104 -0.5696 -0.3038
11399TIP3   OH255687   6.005   3.788   2.410 -0.1997  0.4398  0.1190
11399TIP3    H155688   5.913   3.809   2.426 -0.5405  0.6004 -1.7994
11399TIP3    H255689   6.003   3.727   2.336  1.2616  0.6528 -0.1234
11400TIP3   OH255690   0.658   2.650   2.105  0.5900  0.0848  0.1178
11400TIP3    H155691   0.714   2.698   2.044  0.9867  0.0738  0.4708
11400TIP3    H255692   0.602   2.596   2.048 -0.2895  1.4063 -0.3084
11401TIP3   OH255693   0.522   3.519   0.329 -0.7556  0.0073 -0.1238
11401TIP3    H155694   0.461   3.543   0.260 -1.6472 -2.2190 -0.1916
11401TIP3    H255695   0.609   3.531   0.290 -1.2195  0.2746 -1.0875
11402TIP3   OH255696   5.991   2.165  15.610 -0.1180 -0.2932 -0.7725
11402TIP3    H155697   5.971   2.205  15.695  0.8274 -1.2824 -0.0561
11402TIP3    H255698   6.074   2.119  15.624 -0.1590 -0.8260 -2.1265
11403TIP3   OH255699   1.247   6.018   3.006 -0.1199 -0.0803  0.0409
11403TIP3    H155700   1.324   6.063   2.971 -0.3207  0.1512 -0.1123
11403TIP3    H255701   1.282   5.953   3.066  0.2640 -0.8853 -1.0212
11404TIP3   OH255702   3.456   4.996  11.123 -0.0510 -0.1320 -0.0469
11404TIP3    H155703   3.526   4.981  11.059  0.0655 -0.4979  0.1696
11404TIP3    H255704   3.502   5.005  11.207 -0.2717 -0.4257  0.1029
11405TIP3   OH255705   0.544   1.427  16.093 -0.0567 -0.4182  0.1350
11405TIP3    H155706   0.539   1.362  16.022  2.5751  0.9661 -1.4968
11405TIP3    H255707   0.468   1.483  16.080 -0.4767 -1.1344 -0.5899
11406TIP3   OH255708   5.609   2.429  11.551 -0.2227  0.1794  0.6348
11406TIP3    H155709   5.595   2.342  11.513 -3.8324 -0.0102  1.9427
11406TIP3    H255710   5.655   2.413  11.633  0.0974 -0.3736  0.3488
11407TIP3   OH255711   6.250   0.565  12.065  0.1682  0.5078  0.2366
11407TIP3    H155712   6.275   0.632  12.001 -0.1100 -0.3032 -0.7525
11407TIP3    H255713   6.231   0.614  12.145 -0.3956  1.6470 -0.5634
11408TIP3   OH255714   5.146   6.013  11.621 -0.3555  0.2092 -0.6481
11408TIP3    H155715   5.101   6.025  11.705 -0.9960 -0.2959 -0.9135
11408TIP3    H255716   5.236   5.992  11.645 -0.7813 -1.0352 -0.0475
11409TIP3   OH255717   3.987   4.279  14.994  0.5923 -0.1488  0.0877
11409TIP3    H155718   4.040   4.311  14.921  1.3449 -0.1536  0.6273
11409TIP3    H255719   4.030   4.198  15.021  0.0257 -0.4128  0.2226
11410TIP3   OH255720   5.339   1.494  12.160 -0.5832 -0.2160  0.1071
11410TIP3    H155721   5.335   1.423  12.224 -1.7954  0.9328  1.3889
11410TIP3    H255722   5.283   1.563  12.197 -1.9633  0.2181 -2.5557
11411TIP3   OH255723   1.998   1.448   4.302 -0.0078 -0.4837 -0.7141
11411TIP3    H155724   1.962   1.495   4.226  1.2993 -2.7382 -2.8778
11411TIP3    H255725   1.941   1.372   4.313  0.0544 -0.3968  0.3659
11412TIP3   OH255726   5.461   0.061  15.946  0.5550  0.0065 -0.3975
11412TIP3    H155727   5.450   0.081  16.039  1.0592  2.0172 -0.7070
11412TIP3    H255728   5.553   0.033  15.938  0.4244 -0.4679 -0.2524
11413TIP3   OH255729   5.775   2.019  14.419  0.1483  0.1877  0.2104
11413TIP3    H155730   5.729   1.981  14.344  0.6773 -1.9209  0.8965
11413TIP3    H255731   5.732   2.104  14.432 -0.2165  0.4618 -2.2069
11414TIP3   OH255732   1.408   5.575  11.733  0.0686 -0.5295  0.1934
11414TIP3    H155733   1.332   5.633  11.737  1.1218  0.8088  2.0597
11414TIP3    H255734   1.380   5.496  11.779 -0.2911 -0.1566  0.6194
11415TIP3   OH255735   4.819   1.008  12.203  0.2133 -0.5287 -0.2329
11415TIP3    H155736   4.777   1.024  12.288  0.2238 -2.5893  0.2111
11415TIP3    H255737   4.802   0.915  12.185  1.9303 -0.6341 -1.5185
11416TIP3   OH255738   6.579   3.679  11.933  0.1150 -0.9450  0.8239
11416TIP3    H155739   6.498   3.709  11.892  0.1955  0.3891  1.5857
11416TIP3    H255740   6.648   3.704  11.873  0.0528 -1.1410  0.6685
11417TIP3   OH255741   2.408   2.959  11.886  0.1205  0.1065  0.5536
11417TIP3    H155742   2.371   2.951  11.798 -0.7338 -0.3017  0.9416
11417TIP3    H255743   2.442   3.049  11.890  3.2004 -0.8566 -1.3357
11418TIP3   OH255744   6.066   2.560   3.638  0.3006 -1.1295 -0.3689
11418TIP3    H155745   6.158   2.587   3.636  0.2629 -1.0221 -0.8082
11418TIP3    H255746   6.017   2.642   3.641  0.2475 -1.1949  2.0848
11419TIP3   OH255747   1.487   1.756  13.834  0.3003 -0.0303  0.4648
11419TIP3    H155748   1.436   1.706  13.770  1.5835  0.5103 -1.0638
11419TIP3    H255749   1.455   1.846  13.824 -1.0668 -0.2597  2.2545
11420TIP3   OH255750   4.047   4.053  16.779  0.2969 -0.2505 -0.8555
11420TIP3    H155751   4.033   4.077  16.870 -0.0426  0.9213 -1.1900
11420TIP3    H255752   4.059   3.958  16.780  1.2966 -0.1302  0.5039
11421TIP3   OH255753   4.167   4.532  11.380  0.3979  0.1313  0.3378
11421TIP3    H155754   4.221   4.462  11.416 -1.1746 -2.0239 -1.2597
11421TIP3    H255755   4.083   4.523  11.425  0.7700  2.4264  1.6487
11422TIP3   OH255756   3.929   0.587   4.797 -0.3300 -0.3261 -0.0870
11422TIP3    H155757   3.983   0.510   4.813 -0.9929 -0.9279 -0.6433
11422TIP3    H255758   3.946   0.644   4.871  1.3472 -0.3234 -0.4470
11423TIP3   OH255759   3.508   6.182   0.156 -0.2260 -0.4839 -0.0547
11423TIP3    H155760   3.487   6.101   0.109 -0.3573 -0.9690  0.8251
11423TIP3    H255761   3.588   6.162   0.204  0.6766  0.4396 -1.1020
11424TIP3   OH255762   5.763   0.443  16.902 -0.1392  0.6390 -0.4530
11424TIP3    H155763   5.751   0.349  16.897 -2.8579  0.9368 -1.2692
11424TIP3    H255764   5.820   0.457  16.977 -1.5883 -1.5240  1.1455
11425TIP3   OH255765   0.203   5.219   2.108  0.1554  0.4062 -0.3041
11425TIP3    H155766   0.293   5.217   2.139 -0.3283  0.2753  1.2091
11425TIP3    H255767   0.172   5.129   2.117 -0.5322  0.7107  0.5616
11426TIP3   OH255768   6.718   4.702   0.520  0.1358  0.2366 -0.3878
11426TIP3    H155769   6.628   4.708   0.553 -0.2079 -0.7763 -1.0865
11426TIP3    H255770   6.773   4.705   0.598 -0.6446 -1.9966  0.3377
11427TIP3   OH255771   1.127   5.832  14.410 -0.0371 -0.0432 -0.0222
11427TIP3    H155772   1.080   5.787  14.479  3.4857 -1.7330  1.5151
11427TIP3    H255773   1.122   5.925  14.433 -1.9769 -0.2015  0.3566
11428TIP3   OH255774   3.943   3.376   0.585  0.0176 -0.2977 -0.2336
11428TIP3    H155775   4.034   3.377   0.616  0.1188 -0.2322 -0.5234
11428TIP3    H255776   3.932   3.289   0.548  0.2207 -0.0425 -0.9278
11429TIP3   OH255777   0.314   6.312  11.761 -0.1361  0.1947 -0.4763
11429TIP3    H155778   0.287   6.353  11.678 -0.3904  1.3552  0.1518
11429TIP3    H255779   0.252   6.240  11.773 -1.2509  1.1385 -0.4101
11430TIP3   OH255780   3.655   0.864  12.737  0.0100  0.0849 -0.7369
11430TIP3    H155781   3.723   0.822  12.684  0.3397 -2.3604  1.4505
11430TIP3    H255782   3.578   0.807  12.727 -0.7116  1.0051 -0.5773
11431TIP3   OH255783   1.665   4.969   3.507 -0.2185  0.6751  0.5220
11431TIP3    H155784   1.760   4.964   3.502 -0.1044  2.4314  0.4163
11431TIP3    H255785   1.642   4.909   3.578  0.8855 -0.3208  0.0794
11432TIP3   OH255786   2.985   3.389  15.659 -0.2008 -0.2871 -0.0482
11432TIP3    H155787   3.004   3.480  15.636 -2.4408  0.3817  0.5333
11432TIP3    H255788   3.069   3.355  15.692  0.6958  1.5165 -0.3398
11433TIP3   OH255789   3.861   0.740   4.354  0.8815 -0.1213  0.4081
11433TIP3    H155790   3.892   0.799   4.422  3.0863 -0.4153 -0.2745
11433TIP3    H255791   3.879   0.652   4.388 -1.2863 -0.4441  0.9040
11434TIP3   OH255792   3.107   1.813  11.024  0.1378  0.2142 -0.1046
11434TIP3    H155793   3.101   1.837  10.932  0.1649 -0.3646 -0.2606
11434TIP3    H255794   3.030   1.855  11.064 -0.2678 -0.1222 -0.5203
11435TIP3   OH255795   3.226   2.934  14.764 -0.1818 -0.1808  0.5262
11435TIP3    H155796   3.320   2.927  14.749  0.3418  3.3426  1.2351
11435TIP3    H255797   3.193   2.980  14.686 -0.6707  1.6484  1.7590
11436TIP3   OH255798   3.846   3.417   4.592  0.3413 -0.3155 -0.0141
11436TIP3    H155799   3.755   3.438   4.572  0.4305 -1.2116 -1.4737
11436TIP3    H255800   3.891   3.502   4.587 -0.3892  0.1270  0.6857
11437TIP3   OH255801   5.840   5.140   5.187 -0.9281  0.2654  0.0274
11437TIP3    H155802   5.841   5.227   5.226  0.8161 -0.4945  1.8438
11437TIP3    H255803   5.889   5.149   5.105 -0.4129  0.9115  0.4023
11438TIP3   OH255804   3.953   0.330  13.809 -0.5003  0.5298 -0.1770
11438TIP3    H155805   4.024   0.277  13.844  0.1319  0.7220 -1.1438
11438TIP3    H255806   3.884   0.324  13.876 -0.1316 -0.8199  0.1198
11439TIP3   OH255807   2.361   3.430  16.968  1.0120 -0.3616 -0.4216
11439TIP3    H155808   2.400   3.518  16.964 -0.9669  0.5924  0.0826
11439TIP3    H255809   2.345   3.415  17.061  1.0712 -1.1650 -0.5329
11440TIP3   OH255810   1.816   1.490   2.281  0.1649  0.0969  0.5438
11440TIP3    H155811   1.907   1.495   2.250 -0.3679 -3.0697 -2.1864
11440TIP3    H255812   1.808   1.560   2.345  4.0486  1.5723 -0.3101
11441TIP3   OH255813   2.889   3.514   1.618  0.2891  0.1154  0.0614
11441TIP3    H155814   2.814   3.511   1.678 -2.2946 -0.6559 -2.9400
11441TIP3    H255815   2.901   3.607   1.600 -1.0296  0.1889 -0.5850
11442TIP3   OH255816   1.847   1.223   5.388  0.5594 -0.0566 -0.2068
11442TIP3    H155817   1.832   1.290   5.321  2.5060 -0.0842 -0.7419
11442TIP3    H255818   1.941   1.228   5.406  0.1479 -0.2633  2.3429
11443TIP3   OH255819   1.684   3.443   0.881  0.1085  0.3043  0.1549
11443TIP3    H155820   1.716   3.366   0.834 -0.2075 -0.5655  1.3091
11443TIP3    H255821   1.731   3.516   0.843  3.5132 -0.8630  1.6895
11444TIP3   OH255822   4.894   3.452   0.255 -0.1382  0.2684  0.4659
11444TIP3    H155823   4.844   3.449   0.337 -0.9895  1.8038  0.0438
11444TIP3    H255824   4.848   3.393   0.196 -0.6029  0.5600  0.5355
11445TIP3   OH255825   2.797   1.500  11.677 -0.4345  0.0443  0.0272
11445TIP3    H155826   2.887   1.481  11.651 -0.3893 -1.1723  0.9936
11445TIP3    H255827   2.796   1.490  11.772 -1.7314 -0.5917 -0.0267
11446TIP3   OH255828   3.535   0.392  10.553 -0.1548 -0.6359 -0.0559
11446TIP3    H155829   3.617   0.366  10.511  0.4743 -0.1787  0.8701
11446TIP3    H255830   3.508   0.470  10.505  0.5663 -0.1067  0.3934
11447TIP3   OH255831   1.326   1.345   1.152  0.4773  0.1499  0.0576
11447TIP3    H155832   1.247   1.392   1.125  1.2221  1.9701  0.8152
11447TIP3    H255833   1.331   1.359   1.247  0.8268 -1.3774  0.2869
11448TIP3   OH255834   4.783   0.793   4.767 -0.1077  0.0099 -0.0988
11448TIP3    H155835   4.696   0.764   4.738 -0.0431 -1.5061  1.1115
11448TIP3    H255836   4.769   0.882   4.800 -0.7981  0.5170 -1.6719
11449TIP3   OH255837   4.558   6.082  13.347  0.1535  0.2593  0.0523
11449TIP3    H155838   4.505   6.061  13.424  1.9244  1.1313  1.5995
11449TIP3    H255839   4.544   6.009  13.287 -3.0455  0.6200  0.1830
11450TIP3   OH255840   6.392   2.551  15.072  0.4087  0.4695  0.2375
11450TIP3    H155841   6.319   2.573  15.014  1.0164  1.1278 -0.3070
11450TIP3    H255842   6.469   2.559  15.017  0.7647 -2.6385  0.1257
11451TIP3   OH255843   4.609   1.444   4.938  0.0791 -0.9293  0.3209
11451TIP3    H155844   4.623   1.430   5.032 -1.5803 -1.1469  0.5614
11451TIP3    H255845   4.514   1.438   4.927  0.1718  0.1069 -1.2241
11452TIP3   OH255846   6.731   1.865  17.090  0.0670 -0.7463 -0.3934
11452TIP3    H155847   6.768   1.942  17.047 -0.4711 -0.5082 -0.4373
11452TIP3    H255848   6.802   1.831  17.144  0.2809 -0.1618 -0.3008
11453TIP3   OH255849   0.536   4.923  15.332 -0.2261  0.2640  0.4717
11453TIP3    H155850   0.485   5.004  15.336 -0.5643  0.1196 -0.6567
11453TIP3    H255851   0.476   4.856  15.364 -0.3985  0.2552  0.1329
11454TIP3   OH255852   6.436   3.680  15.141  0.1321  0.1949  0.0351
11454TIP3    H155853   6.530   3.685  15.161 -0.1894  2.4408  1.3160
11454TIP3    H255854   6.431   3.698  15.048  1.0905 -2.5089 -0.6514
11455TIP3   OH255855   3.257   0.549   1.494  0.1381 -0.1657  0.1089
11455TIP3    H155856   3.306   0.624   1.529 -3.1799  1.1717  2.4858
11455TIP3    H255857   3.243   0.492   1.569 -0.2080 -1.5350 -0.9481
11456TIP3   OH255858   2.722   2.711  12.467  0.0455 -0.3308 -0.2073
11456TIP3    H155859   2.769   2.628  12.463  0.7391  0.0886 -0.7710
11456TIP3    H255860   2.769   2.769  12.408 -0.8107  0.2824 -0.3033
11457TIP3   OH255861   0.986   0.779  11.858  0.3238 -0.3439 -0.3147
11457TIP3    H155862   0.978   0.786  11.763 -0.4212 -3.5012 -0.5914
11457TIP3    H255863   1.058   0.839  11.880  0.1012  0.9385 -2.7519
11458TIP3   OH255864   1.085   0.807   3.716 -0.1601  0.1440 -0.4408
11458TIP3    H155865   1.172   0.769   3.705 -0.1897  0.2199 -0.9653
11458TIP3    H255866   1.028   0.752   3.661 -0.7127 -0.8387  1.0456
11459TIP3   OH255867   2.562   5.875  15.098 -0.4604 -0.9318 -0.8321
11459TIP3    H155868   2.578   5.813  15.170  0.5929 -0.9002 -1.0257
11459TIP3    H255869   2.650   5.900  15.068 -0.8461  1.1358 -0.3582
11460TIP3   OH255870   2.742   4.889  17.073  0.1445 -0.0094 -0.0172
11460TIP3    H155871   2.734   4.895  16.978 -2.4417  0.1863  0.1286
11460TIP3    H255872   2.774   4.800  17.090  2.1539  0.4584 -1.0611
11461TIP3   OH255873   3.840   4.070  11.305  0.5463  0.1499 -0.1967
11461TIP3    H155874   3.764   4.032  11.349  1.1088  0.0347  0.6926
11461TIP3    H255875   3.814   4.076  11.213 -1.0228  1.3004  0.2748
11462TIP3   OH255876   2.270   2.667  14.337  0.2327 -1.0118  0.7267
11462TIP3    H155877   2.222   2.673  14.419  0.1783 -0.3139  0.6452
11462TIP3    H255878   2.225   2.727  14.278  1.7409  0.3566  0.9174
11463TIP3   OH255879   6.143   0.318  12.052 -0.5948 -0.0520 -0.1047
11463TIP3    H155880   6.153   0.413  12.045  0.6052  0.3829  4.3614
11463TIP3    H255881   6.196   0.283  11.979 -2.3412  2.5371 -2.8544
11464TIP3   OH255882   5.111   5.252  17.111  0.0907  0.0886 -0.1784
11464TIP3    H155883   5.105   5.232  17.204  1.6655  0.9226  0.1362
11464TIP3    H255884   5.022   5.242  17.078 -0.6523  0.5738  1.5868
11465TIP3   OH255885   1.783   5.539  15.908 -0.5484  0.5841  0.6614
11465TIP3    H155886   1.783   5.525  15.814  0.6035 -3.4175  1.1015
11465TIP3    H255887   1.691   5.530  15.934 -0.5805 -0.6057  0.1620
11466TIP3   OH255888   1.166   0.568  11.854 -0.6025  0.7139 -0.3374
11466TIP3    H155889   1.236   0.628  11.831 -0.4067  0.8115  0.4981
11466TIP3    H255890   1.103   0.621  11.902 -0.0734  0.1023  1.0603
11467TIP3   OH255891   6.221   3.271   0.091  0.0516  0.2973 -0.2200
11467TIP3    H155892   6.146   3.330   0.090 -0.8286 -0.7636 -2.3431
11467TIP3    H255893   6.239   3.252  -0.001  1.6546 -1.0841  0.3168
11468TIP3   OH255894   4.386   4.758  11.861  0.5292  0.1874 -0.4593
11468TIP3    H155895   4.405   4.743  11.768 -0.7172  0.8860 -0.8526
11468TIP3    H255896   4.339   4.842  11.862  0.7765  0.3295  0.8444
11469TIP3   OH255897   3.656   0.621  16.766  0.1078 -0.7906  0.2311
11469TIP3    H155898   3.714   0.617  16.842 -1.8559 -1.0864  1.8113
11469TIP3    H255899   3.661   0.534  16.727  1.7584 -0.3938 -0.5319
11470TIP3   OH255900   6.308   5.817  16.994  0.5799  0.3123  0.1267
11470TIP3    H155901   6.346   5.899  16.960  0.2088  0.5102  0.1887
11470TIP3    H255902   6.270   5.775  16.917 -2.3839  1.8794  0.5800
11471TIP3   OH255903   3.282   0.524  17.127 -0.1184  0.0278  0.3185
11471TIP3    H155904   3.296   0.521  17.222  1.4250 -1.4069  0.0925
11471TIP3    H255905   3.312   0.611  17.101  1.0303 -0.1617  0.9379
11472TIP3   OH255906   6.179   1.158  14.668 -0.0593  0.1639 -0.0726
11472TIP3    H155907   6.251   1.131  14.611  1.8270  2.5855  0.9483
11472TIP3    H255908   6.207   1.130  14.756 -1.6569 -1.1650  0.0525
11473TIP3   OH255909   0.860   5.711   2.686  1.0028  0.2241  0.6383
11473TIP3    H155910   0.826   5.631   2.647  1.7959 -0.9917  2.3265
11473TIP3    H255911   0.800   5.779   2.656  0.6690 -0.8736 -1.3313
11474TIP3   OH255912   3.371   4.917   4.793  0.3020  0.0221 -0.0370
11474TIP3    H155913   3.465   4.898   4.786  0.0165 -2.4301  1.6297
11474TIP3    H255914   3.331   4.866   4.722  0.1989  1.0031 -0.6971
11475TIP3   OH255915   0.485   6.151   5.957 -0.3697 -0.4532 -0.5200
11475TIP3    H155916   0.432   6.203   5.897 -0.1669 -0.4274 -0.6777
11475TIP3    H255917   0.494   6.207   6.035 -0.2558 -0.2994 -0.6415
11476TIP3   OH255918   2.944   4.007  16.557 -0.3888  0.5030 -0.6433
11476TIP3    H155919   2.981   4.095  16.550 -1.1740  0.8257 -0.8040
11476TIP3    H255920   2.977   3.975  16.641 -1.7066  1.7321  0.3982
11477TIP3   OH255921   1.588   6.652   3.775 -0.5939  0.8368  1.1054
11477TIP3    H155922   1.559   6.743   3.771 -0.3255  0.8859 -0.5632
11477TIP3    H255923   1.684   6.658   3.779 -0.5523  0.6652  5.7589
11478TIP3   OH255924   4.794   2.690   4.507 -0.5842 -0.1204 -0.2048
11478TIP3    H155925   4.851   2.623   4.544 -1.4876 -1.1586 -0.6063
11478TIP3    H255926   4.727   2.704   4.573 -0.8159 -0.1807 -0.4216
11479TIP3   OH255927   6.179   1.268  12.716  0.0694  0.0969 -0.3319
11479TIP3    H155928   6.189   1.318  12.634  0.2500 -0.0218 -0.3823
11479TIP3    H255929   6.133   1.328  12.775  1.0460  0.6494 -0.1077
11480TIP3   OH255930   4.436   3.033   1.032  0.3767 -0.2634 -0.9216
11480TIP3    H155931   4.483   2.965   0.984  0.1811 -0.8262 -0.3324
11480TIP3    H255932   4.469   3.025   1.122 -1.5902 -1.3871 -0.2502
11481TIP3   OH255933   2.807   1.990  16.587  0.4968 -0.5086 -0.5341
11481TIP3    H155934   2.899   2.015  16.596  0.3732  0.6012 -2.0434
11481TIP3    H255935   2.782   1.960  16.675  2.1829 -0.4718 -0.0059
11482TIP3   OH255936   3.523   5.136  11.735 -0.0850  0.6111  0.0740
11482TIP3    H155937   3.566   5.140  11.820 -1.1557  2.1424  0.5704
11482TIP3    H255938   3.588   5.097  11.677  1.1006  0.6936  1.3161
11483TIP3   OH255939   5.556   5.979   4.765 -0.2811  0.1821  0.0226
11483TIP3    H155940   5.479   6.027   4.793 -0.6269  0.6033 -1.5490
11483TIP3    H255941   5.590   6.029   4.691  1.7853  0.2577  0.9488
11484TIP3   OH255942   4.667   1.734  15.156 -0.0631  0.4644  0.0310
11484TIP3    H155943   4.696   1.744  15.247 -0.2705  0.0362  0.1451
11484TIP3    H255944   4.592   1.793  15.148 -0.4852 -0.0221  0.3402
11485TIP3   OH255945   1.030   3.414   3.040  0.1759 -0.4419  0.2455
11485TIP3    H155946   0.990   3.416   2.953  0.7087  0.7353  0.0109
11485TIP3    H255947   0.956   3.415   3.101 -0.1955  1.6188 -0.1809
11486TIP3   OH255948   5.298   6.322   5.165  0.4370  0.3557  0.1231
11486TIP3    H155949   5.328   6.408   5.137 -1.0395  0.2484 -2.0298
11486TIP3    H255950   5.228   6.300   5.104  1.0766 -2.5925  0.3021
11487TIP3   OH255951   3.525   0.421  16.226  0.0604  0.3398 -0.3113
11487TIP3    H155952   3.493   0.509  16.245  0.0672  0.1988  0.3823
11487TIP3    H255953   3.599   0.435  16.167  0.6266  0.8713  0.4918
11488TIP3   OH255954   4.509   5.340  13.718  0.4103 -0.3352  0.3512
11488TIP3    H155955   4.492   5.405  13.786  0.6285  0.0355  0.0593
11488TIP3    H255956   4.549   5.390  13.647 -0.7461 -0.5223 -0.4673
11489TIP3   OH255957   2.422   5.383  10.070  0.1768  0.0205 -0.0482
11489TIP3    H155958   2.333   5.371  10.104 -0.0867  1.3713 -0.2300
11489TIP3    H255959   2.438   5.477  10.076  1.5067 -0.1794 -0.2498
11490TIP3   OH255960   4.637   3.155  11.892  0.0951  0.3811 -0.1296
11490TIP3    H155961   4.597   3.208  11.823 -0.5082  0.1780  0.0602
11490TIP3    H255962   4.725   3.136  11.859 -0.3698 -0.1881 -1.1085
11491TIP3   OH255963   3.490   4.901  13.240  0.2398 -0.0067  0.7417
11491TIP3    H155964   3.397   4.878  13.235  0.4048 -0.9001  1.3764
11491TIP3    H255965   3.535   4.831  13.191  0.6418 -0.1870  1.3459
11492TIP3   OH255966   6.205   3.885  15.605 -0.1138 -0.3206  0.2078
11492TIP3    H155967   6.190   3.968  15.560  0.3344 -0.4437 -0.1730
11492TIP3    H255968   6.124   3.869  15.653 -0.1563  0.3999  0.3847
11493TIP3   OH255969   4.449   5.600   0.045  0.1879 -0.3638 -0.0948
11493TIP3    H155970   4.495   5.516   0.034  2.5206  1.1269 -3.3334
11493TIP3    H255971   4.381   5.599  -0.023  0.4547  0.4910 -0.3799
11494TIP3   OH255972   1.022   4.190  16.018 -0.1245 -0.2809 -0.0340
11494TIP3    H155973   1.110   4.153  16.015  1.2143  2.6704 -0.4781
11494TIP3    H255974   1.000   4.191  16.111  0.6569 -0.3213  0.1619
11495TIP3   OH255975   1.189   4.068  15.489  0.0385  0.3504 -0.0776
11495TIP3    H155976   1.099   4.088  15.514  0.2201  0.0980  0.8128
11495TIP3    H255977   1.235   4.152  15.497  0.0450  0.3195  0.2165
11496TIP3   OH255978   3.397   6.837  10.353  0.1711  0.3129 -0.2262
11496TIP3    H155979   3.414   6.931  10.363  0.0048  0.2624  0.5782
11496TIP3    H255980   3.459   6.795  10.413 -0.9299  0.0047  0.7237
11497TIP3   OH255981   3.473   5.976   1.940 -0.6052 -0.0742  0.4592
11497TIP3    H155982   3.482   6.044   2.007  1.5515 -0.5074  0.7091
11497TIP3    H255983   3.511   5.898   1.980 -1.1773 -0.8857 -0.5425
11498TIP3   OH255984   4.085   3.868  13.572 -0.0374 -0.6973 -0.0805
11498TIP3    H155985   4.158   3.829  13.523  0.0510 -0.7274  0.0717
11498TIP3    H255986   4.102   3.843  13.663  0.4788  0.3847  0.1386
11499TIP3   OH255987   0.497   0.183  11.152 -0.3955  0.0719 -0.1026
11499TIP3    H155988   0.544   0.248  11.099  1.4956 -1.3740 -0.3178
11499TIP3    H255989   0.458   0.124  11.087 -0.1822 -0.2923  0.1018
11500TIP3   OH255990   5.088   4.663  12.649 -0.4880  0.2655  0.0264
11500TIP3    H155991   5.145   4.740  12.652 -0.4904  0.2943 -0.5639
11500TIP3    H255992   5.002   4.696  12.675 -1.2178  1.1591 -3.1020
11501TIP3   OH255993   3.043   4.182   2.946  0.0949 -0.2786 -0.3429
11501TIP3    H155994   2.985   4.118   2.988  0.6316 -0.2453  0.4750
11501TIP3    H255995   3.048   4.254   3.009  0.8173 -0.1730 -0.5146
11502TIP3   OH255996   0.461   3.513  13.964  0.1804 -0.0914  0.2881
11502TIP3    H155997   0.381   3.469  13.933  0.3257 -0.3414  0.2634
11502TIP3    H255998   0.520   3.508  13.889 -0.0387  0.7579  0.0459
11503TIP3   OH255999   3.565   0.690   5.460 -0.0773  0.0904  0.3791
11503TIP3    H156000   3.486   0.737   5.436  0.3310  1.1661  1.0449
11503TIP3    H256001   3.547   0.655   5.548  0.5757  1.3493  1.0455
11504TIP3   OH256002   5.360   5.496   6.197  0.5597 -0.4873  0.4025
11504TIP3    H156003   5.383   5.505   6.104  0.9378 -0.5323  0.4896
11504TIP3    H256004   5.305   5.418   6.200  1.2738 -1.0093  0.3342
11505TIP3   OH256005   0.366   4.279  15.875  0.5699 -0.6064 -0.6340
11505TIP3    H156006   0.300   4.271  15.807 -0.2494  1.3400 -0.1344
11505TIP3    H256007   0.331   4.230  15.949  1.1538 -2.1559 -1.3358
11506TIP3   OH256008   3.230   2.170  13.181  0.1543 -0.0640 -0.1838
11506TIP3    H156009   3.235   2.113  13.258  3.2786 -1.1021 -1.0225
11506TIP3    H256010   3.216   2.258  13.217 -0.4043 -0.7846  1.4297
11507TIP3   OH256011   4.163   0.908   3.532 -0.0582 -0.1421 -0.3745
11507TIP3    H156012   4.095   0.860   3.484  0.0131  0.3279 -0.9505
11507TIP3    H256013   4.124   0.993   3.551  0.3110  0.0715 -0.5671
11508TIP3   OH256014   0.415   0.956  10.887 -0.1136 -0.1470 -0.2397
11508TIP3    H156015   0.428   0.886  10.823  1.5190 -0.3393  0.2523
11508TIP3    H256016   0.344   1.009  10.851  0.5371 -0.4345 -2.0511
11509TIP3   OH256017   1.263   4.179  12.410  0.0142 -0.3082 -0.5545
11509TIP3    H156018   1.314   4.145  12.337 -1.4440 -1.6835 -1.0105
11509TIP3    H256019   1.175   4.143  12.397 -0.4172 -0.2208  1.6221
11510TIP3   OH256020   2.381   3.252   5.037 -0.1462  0.3728 -0.5390
11510TIP3    H156021   2.367   3.335   5.084 -1.5330 -0.6081  0.8484
11510TIP3    H256022   2.379   3.277   4.944 -1.1862  1.8076 -0.1658
11511TIP3   OH256023   0.021   5.633  11.264  0.6353 -0.2402 -0.4077
11511TIP3    H156024  -0.059   5.673  11.232 -0.4539 -1.2014  0.9639
11511TIP3    H256025   0.054   5.582  11.190 -0.2814 -0.2125 -0.8428
11512TIP3   OH256026   4.030   5.434  12.769 -0.5011 -0.4175  0.1622
11512TIP3    H156027   4.125   5.427  12.762 -0.5194 -0.1727 -0.4024
11512TIP3    H256028   4.014   5.461  12.860  0.0424  0.7741 -0.0764
11513TIP3   OH256029   4.981   2.763  14.807  0.1867 -0.3411  0.0269
11513TIP3    H156030   4.912   2.774  14.872 -0.4461  1.8268 -0.9283
11513TIP3    H256031   5.058   2.737  14.858 -0.2663  1.3153  1.6616
11514TIP3   OH256032   2.810   2.399  16.384 -0.1723  0.1481  0.8592
11514TIP3    H156033   2.893   2.426  16.424 -0.0095  1.7758 -0.4710
11514TIP3    H256034   2.824   2.308  16.360  2.0669  0.9439 -1.2324
11515TIP3   OH256035   3.327   2.523  16.406 -0.5809  0.0568 -0.3852
11515TIP3    H156036   3.316   2.607  16.450  0.1530  0.0963 -0.2762
11515TIP3    H256037   3.245   2.477  16.423 -0.3182  0.0779  1.0243
11516TIP3   OH256038   4.912   5.482   1.047 -0.0182 -0.7768  0.9615
11516TIP3    H156039   4.946   5.393   1.059  0.5846 -0.7538 -0.3543
11516TIP3    H256040   4.858   5.476   0.968 -0.7237 -0.1736  1.3938
11517TIP3   OH256041   5.276   1.137   3.126 -0.0749  0.1303 -0.1698
11517TIP3    H156042   5.234   1.079   3.190 -1.5570 -0.1609 -1.3512
11517TIP3    H256043   5.367   1.106   3.122 -0.0733 -0.1788  1.3743
11518TIP3   OH256044   0.367   6.596  11.067  0.1840  0.5004  0.0729
11518TIP3    H156045   0.316   6.531  11.116 -0.7676  0.9566 -0.2792
11518TIP3    H256046   0.396   6.549  10.988  0.7492  0.0955  0.5099
11519TIP3   OH256047   4.588   3.792   1.206  0.0820  0.0355 -0.2417
11519TIP3    H156048   4.492   3.787   1.208  0.0691 -0.5460 -1.3627
11519TIP3    H256049   4.610   3.795   1.113  1.0277  3.2884 -0.0552
11520TIP3   OH256050   4.961   1.904  16.383 -0.0284  0.0602  0.8200
11520TIP3    H156051   4.930   1.829  16.433  0.1170 -0.6553 -0.1473
11520TIP3    H256052   4.949   1.880  16.292 -0.7054  1.5348  0.4952
11521TIP3   OH256053   1.396   3.178  15.525 -0.1021  0.0229 -0.0241
11521TIP3    H156054   1.327   3.194  15.460  0.1463  0.1648 -0.2532
11521TIP3    H256055   1.382   3.246  15.592 -0.8768 -0.6297  0.5100
11522TIP3   OH256056   4.108   4.036   4.361 -0.7032 -0.3814 -0.0053
11522TIP3    H156057   4.145   4.074   4.281  1.7751  2.4762  2.2952
11522TIP3    H256058   4.132   3.943   4.356  2.9085  0.4495 -0.8636
11523TIP3   OH256059   2.315   3.346   2.084 -0.4518 -0.1442 -0.2616
11523TIP3    H156060   2.298   3.440   2.082  0.7477  0.0967  0.3171
11523TIP3    H256061   2.356   3.327   2.000  1.4893  0.3046  0.5504
11524TIP3   OH256062   3.418   2.027   3.275 -0.2525  0.7664  0.1830
11524TIP3    H156063   3.373   2.104   3.239  1.7352  1.7050 -0.4550
11524TIP3    H256064   3.354   1.988   3.335 -1.8880  2.0022 -0.6541
11525TIP3   OH256065   3.709   1.707  16.639 -0.2302 -0.4983 -0.6233
11525TIP3    H156066   3.749   1.733  16.556  0.9215 -1.1452 -0.2970
11525TIP3    H256067   3.777   1.657  16.684 -0.9416 -0.4407  0.5752
11526TIP3   OH256068   6.847   4.809   0.300  0.2665  0.1126 -0.2490
11526TIP3    H156069   6.772   4.821   0.242  0.6304  0.5512 -0.6417
11526TIP3    H256070   6.812   4.764   0.376 -0.2888 -0.1800 -0.6666
11527TIP3   OH256071   1.055   2.653   4.100  0.7849  0.2919 -0.2520
11527TIP3    H156072   1.037   2.740   4.136 -0.9201 -0.7445  1.5861
11527TIP3    H256073   0.985   2.638   4.037 -0.4662 -0.7201  1.3173
11528TIP3   OH256074   6.797   0.014  11.383 -0.1132 -0.0156 -0.0542
11528TIP3    H156075   6.747   0.082  11.427 -0.7975 -0.7670  0.3511
11528TIP3    H256076   6.878   0.007  11.434 -0.3802 -0.0479  0.3662
11529TIP3   OH256077   4.105   5.298  13.049  0.2718 -0.2770  0.1735
11529TIP3    H156078   4.036   5.364  13.046 -1.6298 -2.1341  0.8296
11529TIP3    H256079   4.180   5.339  13.006 -1.6750  1.3043 -1.9158
11530TIP3   OH256080   3.185   5.143   1.667 -0.6567 -0.1124 -0.2508
11530TIP3    H156081   3.259   5.083   1.682 -0.0333  0.4022 -1.1670
11530TIP3    H256082   3.162   5.130   1.575  0.1699  1.7598 -0.7636
11531TIP3   OH256083   2.811   0.174  13.295  0.1542  0.0684  0.5616
11531TIP3    H156084   2.860   0.189  13.376  1.2002 -1.2599  0.2097
11531TIP3    H256085   2.776   0.085  13.305  0.2002 -0.0669 -0.3865
11532TIP3   OH256086   1.563   6.047   4.107 -0.2256 -0.2946 -0.8210
11532TIP3    H156087   1.562   5.989   4.031 -0.9856 -0.4712 -0.6847
11532TIP3    H256088   1.553   6.135   4.070 -1.7480 -0.4658 -0.8728
11533TIP3   OH256089   0.621   3.275  14.093 -0.2048 -0.4578  0.4457
11533TIP3    H156090   0.696   3.275  14.034  0.1231  1.1613  0.8273
11533TIP3    H256091   0.554   3.325  14.047 -0.5244 -0.5984  0.7502
11534TIP3   OH256092   2.014   4.826  13.618  0.5898  0.2497 -0.7321
11534TIP3    H156093   1.949   4.803  13.552  0.2719 -0.9597 -0.0363
11534TIP3    H256094   2.095   4.787  13.587  0.7113  0.6964 -0.9849
11535TIP3   OH256095   3.586   5.630  16.352 -0.3700  0.2234  0.2505
11535TIP3    H156096   3.629   5.704  16.394  0.5739  0.9220 -1.8257
11535TIP3    H256097   3.526   5.670  16.289  0.2671 -0.7515 -1.0151
11536TIP3   OH256098   6.405   4.809  12.562 -0.2419 -0.2468  0.3093
11536TIP3    H156099   6.377   4.819  12.471 -0.7656  0.0949  0.5004
11536TIP3    H256100   6.494   4.844  12.563 -0.7316  1.0840  0.2048
11537TIP3   OH256101   4.222   0.275  12.826  0.3111  0.3446 -0.1230
11537TIP3    H156102   4.263   0.360  12.843  0.1225  0.9220 -2.2867
11537TIP3    H256103   4.236   0.260  12.733  1.4699 -2.6435  0.4469
11538TIP3   OH256104   1.160   4.920   0.996  0.3790  0.1769  0.2210
11538TIP3    H156105   1.174   4.841   0.942  0.2440  0.7457 -0.6721
11538TIP3    H256106   1.138   4.988   0.933  0.3279  0.8989  1.0020
11539TIP3   OH256107   6.210   1.543  11.990 -0.3895 -0.1357  0.3481
11539TIP3    H156108   6.157   1.619  12.011 -0.6562  0.1202 -1.1545
11539TIP3    H256109   6.169   1.471  12.037 -1.4969  0.2398 -0.0122
11540TIP3   OH256110   6.159   0.392  16.669  0.3759  0.3775  0.5727
11540TIP3    H156111   6.171   0.351  16.583 -0.1953 -0.2667  0.7836
11540TIP3    H256112   6.241   0.438  16.686 -0.3237  2.5642 -1.3769
11541TIP3   OH256113   3.703   2.086  12.806 -0.0171 -0.6253 -0.1259
11541TIP3    H156114   3.774   2.075  12.870 -0.3572 -1.9448  0.0504
11541TIP3    H256115   3.743   2.065  12.722 -0.6764 -3.6766  0.2129
11542TIP3   OH256116   0.419   5.146  13.480  0.4890 -0.3978 -0.9343
11542TIP3    H156117   0.467   5.182  13.405  0.8384 -1.6420 -1.3314
11542TIP3    H256118   0.475   5.164  13.555 -0.3223  1.7722 -0.7604
11543TIP3   OH256119   1.453   6.048  12.597 -0.2896 -1.2754  0.2109
11543TIP3    H156120   1.542   6.028  12.568  0.2345  0.5822  0.4542
11543TIP3    H256121   1.458   6.047  12.693 -0.6598 -1.6590  0.2307
11544TIP3   OH256122   4.771   1.372  16.934 -0.0870 -0.1052  0.1037
11544TIP3    H156123   4.859   1.387  16.900  1.3111 -1.7044  2.7601
11544TIP3    H256124   4.740   1.460  16.957 -0.0644  0.7148 -2.5860
11545TIP3   OH256125   2.408   0.815  15.712  0.8158 -0.4614 -0.0063
11545TIP3    H156126   2.314   0.808  15.693  0.8885 -0.2662 -0.4712
11545TIP3    H256127   2.445   0.851  15.631  1.1893  0.1535  0.4319
11546TIP3   OH256128   0.571   0.630   1.841  0.3425  0.2227 -0.2732
11546TIP3    H156129   0.584   0.607   1.749  3.1111  1.2569 -0.2285
11546TIP3    H256130   0.615   0.560   1.890 -1.6595 -0.6688  0.3712
11547TIP3   OH256131   6.399   4.896   0.511  0.0032 -0.0086  0.0923
11547TIP3    H156132   6.418   4.810   0.550  0.0800  1.0386  2.5545
11547TIP3    H256133   6.485   4.938   0.505 -0.3291  1.0717  2.0284
11548TIP3   OH256134   0.638   2.467   3.679  0.6568 -0.3681 -0.0806
11548TIP3    H156135   0.574   2.538   3.679 -0.4733 -1.3212  0.8763
11548TIP3    H256136   0.717   2.505   3.642 -0.7939  0.5367 -2.4395
11549TIP3   OH256137   6.159   0.939   1.511  0.8011  0.9312  0.1164
11549TIP3    H156138   6.112   0.856   1.518  1.7555 -0.1036 -3.4248
11549TIP3    H256139   6.093   1.006   1.527 -0.7766 -0.5063 -0.0966
11550TIP3   OH256140   4.653   2.939  12.561  0.2721 -0.1936  0.1746
11550TIP3    H156141   4.604   2.951  12.643 -0.7298  0.1750 -0.4640
11550TIP3    H256142   4.697   3.023  12.548  0.4634 -0.2650  0.3536
11551TIP3   OH256143   1.335   5.838  11.554 -0.2551  0.4162  0.1109
11551TIP3    H156144   1.416   5.821  11.505 -2.3196 -1.5607 -2.9325
11551TIP3    H256145   1.320   5.932  11.542  1.4863  0.8223  0.6984
11552TIP3   OH256146   0.854   5.548   6.237  0.3869 -0.1763 -0.1096
11552TIP3    H156147   0.786   5.494   6.196  1.1756  0.0507 -1.8065
11552TIP3    H256148   0.897   5.592   6.164  2.5845 -0.5713  0.8747
11553TIP3   OH256149   4.962   0.028  13.160  0.2996  0.1261  0.0599
11553TIP3    H156150   4.935  -0.054  13.201  0.4808 -0.3100 -0.6743
11553TIP3    H256151   4.914   0.096  13.208  0.0951 -0.4121  0.6245
11554TIP3   OH256152   5.365   2.529  11.586 -0.0737  0.5262  0.3051
11554TIP3    H156153   5.456   2.510  11.560 -0.7947 -0.5524 -1.6434
11554TIP3    H256154   5.337   2.451  11.633 -0.4288  0.2295 -0.3837
11555TIP3   OH256155   4.532   1.530  15.667 -0.5752  0.3957  0.5650
11555TIP3    H156156   4.461   1.582  15.705 -1.0324  1.0386 -1.0697
11555TIP3    H256157   4.522   1.541  15.573  0.3760 -1.3077  0.2235
11556TIP3   OH256158   1.102   4.465   4.012 -0.3446  0.4288 -0.0166
11556TIP3    H156159   1.031   4.444   4.072  1.3608  0.7955  2.2935
11556TIP3    H256160   1.130   4.381   3.976 -0.1402 -0.0789  1.2762
11557TIP3   OH256161   1.072   5.098   0.347  0.1558  0.4939 -0.2514
11557TIP3    H156162   1.115   5.058   0.422 -1.2714  0.3975  0.5648
11557TIP3    H256163   1.138   5.154   0.308  1.4379 -0.7237  0.0744
11558TIP3   OH256164   1.156   4.314   0.926 -0.0008  0.1136  0.9126
11558TIP3    H156165   1.213   4.239   0.908  0.0768  0.3819  0.0218
11558TIP3    H256166   1.216   4.388   0.937 -0.1948  0.6799 -1.3960
11559TIP3   OH256167   1.822   5.379  12.591 -0.8202 -0.0845 -0.0659
11559TIP3    H156168   1.862   5.376  12.678 -2.0832  0.2775  0.5476
11559TIP3    H256169   1.782   5.465  12.585 -0.0681  0.2105 -1.3441
11560TIP3   OH256170   2.465   6.642   4.038 -0.9948  0.0373 -0.3753
11560TIP3    H156171   2.536   6.584   4.010 -0.5095  0.5627 -0.2462
11560TIP3    H256172   2.405   6.584   4.086 -0.2194 -0.2567  0.2716
11561TIP3   OH256173   5.073   2.726   6.382 -0.0765 -0.2805 -0.5059
11561TIP3    H156174   5.012   2.799   6.389  0.5964  0.2203  0.3291
11561TIP3    H256175   5.156   2.761   6.416 -0.1802 -1.9376  1.6076
11562TIP3   OH256176   6.132   5.871  15.413 -0.8913  0.0511 -0.5502
11562TIP3    H156177   6.225   5.851  15.424 -1.0576 -0.5563 -0.1980
11562TIP3    H256178   6.090   5.835  15.492 -1.5982 -0.8403 -1.3112
11563TIP3   OH256179   2.922   1.243   5.135  0.1407 -0.2266  0.1058
11563TIP3    H156180   2.890   1.297   5.063  0.6506 -1.7887 -1.3746
11563TIP3    H256181   2.868   1.164   5.132 -0.4970  0.0759  2.1176
11564TIP3   OH256182   4.429   2.875   3.195  0.5291  0.1477  0.5093
11564TIP3    H156183   4.397   2.929   3.267  0.3068 -0.1386  0.6272
11564TIP3    H256184   4.350   2.851   3.147  0.3697 -1.7714  1.6329
11565TIP3   OH256185   4.100   2.712  12.004 -0.6519 -0.2741 -0.3268
11565TIP3    H156186   4.188   2.685  12.032 -0.6883 -0.2522 -0.1917
11565TIP3    H256187   4.043   2.640  12.033 -0.5433 -0.7723 -1.2993
11566TIP3   OH256188   5.201   1.099  15.929 -0.5875  0.6784  0.7576
11566TIP3    H156189   5.255   1.021  15.938 -1.8195 -0.0159  2.5876
11566TIP3    H256190   5.245   1.165  15.982  0.3789  1.2474 -0.6801
11567TIP3   OH256191   5.016   2.362  14.767  0.1319 -0.1723  0.5979
11567TIP3    H156192   4.933   2.318  14.753  0.2795 -0.0697 -0.7108
11567TIP3    H256193   5.029   2.360  14.862  0.4270 -3.4960  0.6004
11568TIP3   OH256194   4.121   1.374   0.310  0.3703 -0.1122 -0.0116
11568TIP3    H156195   4.111   1.310   0.380 -2.7483 -0.3660 -0.5474
11568TIP3    H256196   4.115   1.322   0.230  2.1621  0.3826 -0.5021
11569TIP3   OH256197   6.451   3.465  16.335  0.1037 -0.0350  0.1966
11569TIP3    H156198   6.455   3.370  16.329 -0.1095 -0.2863  2.7372
11569TIP3    H256199   6.488   3.496  16.253 -0.8780 -2.2831 -1.1994
11570TIP3   OH256200   5.912   1.160  13.431  0.3390  0.0822 -0.1510
11570TIP3    H156201   5.963   1.087  13.395  0.3585 -0.0776  0.1935
11570TIP3    H256202   5.822   1.144  13.403  0.2291 -0.4414  0.4930
11571TIP3   OH256203   0.331   3.642   5.591  0.3377 -0.1059 -0.4292
11571TIP3    H156204   0.336   3.679   5.679  2.1406 -0.6349 -0.2584
11571TIP3    H256205   0.422   3.618   5.570  0.0036  0.2446 -2.5344
11572TIP3   OH256206   0.439   3.651   2.385 -0.3489 -0.1682 -0.2217
11572TIP3    H156207   0.391   3.694   2.456 -0.2117 -0.6671  0.1825
11572TIP3    H256208   0.373   3.599   2.339  0.1708 -3.1563  2.0584
11573TIP3   OH256209   1.704   5.892   3.362  0.5560  0.1910 -0.0245
11573TIP3    H156210   1.780   5.881   3.304  1.0528  0.0584  0.6429
11573TIP3    H256211   1.667   5.976   3.336  0.9643  0.2886 -0.3187
11574TIP3   OH256212   6.730   1.091   3.902 -0.1613 -0.0504  0.2730
11574TIP3    H156213   6.786   1.154   3.858  0.1142  0.8878  1.9142
11574TIP3    H256214   6.693   1.038   3.831  0.1987  1.4474 -1.0737
11575TIP3   OH256215   2.873   3.856   0.697  0.1831  0.1384  0.0197
11575TIP3    H156216   2.942   3.792   0.677 -1.1232 -0.4319 -3.3802
11575TIP3    H256217   2.880   3.871   0.791  2.9509 -2.1857  0.3075
11576TIP3   OH256218   5.099   6.475  12.137  0.4101  0.3451 -0.1632
11576TIP3    H156219   5.093   6.429  12.220 -1.5121  2.5972  1.0739
11576TIP3    H256220   5.176   6.531  12.145  0.9396 -0.3366 -0.4214
11577TIP3   OH256221   4.590   4.605  14.031 -0.1687 -0.3542  0.3093
11577TIP3    H156222   4.519   4.557  14.073 -0.7481  1.1901  1.1554
11577TIP3    H256223   4.555   4.632  13.946  0.1178 -1.2910 -0.1178
11578TIP3   OH256224   5.684   0.744   2.689  0.0854 -0.3118 -0.1224
11578TIP3    H156225   5.652   0.756   2.599  1.4530 -0.5031 -0.6757
11578TIP3    H256226   5.719   0.654   2.689 -1.9185 -1.1670  1.2966
11579TIP3   OH256227   6.060   4.301   4.562  0.0954 -0.2755 -0.7329
11579TIP3    H156228   6.114   4.299   4.483  0.3029  1.2537 -0.6505
11579TIP3    H256229   5.983   4.352   4.537  0.1482  0.1889  0.0384
11580TIP3   OH256230   2.277   4.888  10.760 -0.3373 -0.0679  0.8203
11580TIP3    H156231   2.197   4.870  10.809 -1.9019  0.3520 -1.4384
11580TIP3    H256232   2.317   4.802  10.748 -1.4042 -0.5246  0.4397
11581TIP3   OH256233   0.304   1.529   4.787  0.3142  0.3632 -0.0641
11581TIP3    H156234   0.267   1.444   4.764 -1.8747  0.0581  3.6759
11581TIP3    H256235   0.259   1.591   4.730 -2.3855 -0.5558  0.8875
11582TIP3   OH256236   1.831   5.744  14.252 -0.4276  0.1911 -0.2762
11582TIP3    H156237   1.826   5.735  14.157 -1.3200 -1.3437 -0.1227
11582TIP3    H256238   1.892   5.675  14.279 -1.0001 -0.0864  0.3412
11583TIP3   OH256239   6.540   5.364   2.644 -0.7466  0.2048  0.2433
11583TIP3    H156240   6.595   5.417   2.702  0.0506 -0.0699 -0.2485
11583TIP3    H256241   6.579   5.277   2.645 -0.1669  0.4008 -1.3771
11584TIP3   OH256242   2.789   1.192  12.558 -0.4932  0.1221 -0.6477
11584TIP3    H156243   2.797   1.235  12.644 -0.6025  0.9107 -1.0288
11584TIP3    H256244   2.734   1.116  12.575 -1.5884  0.9712 -0.2556
11585TIP3   OH256245   3.887   0.981   4.102 -0.0852  0.3218 -0.1461
11585TIP3    H156246   3.875   0.917   4.172 -0.5541 -1.0364 -1.4024
11585TIP3    H256247   3.955   0.943   4.047 -0.5246  0.8041 -1.0377
11586TIP3   OH256248   6.368   4.376   0.300  0.5322  0.4217 -0.5721
11586TIP3    H156249   6.352   4.282   0.305  1.1844  0.3234 -0.1623
11586TIP3    H256250   6.397   4.391   0.209  1.3465  0.0617 -0.3855
11587TIP3   OH256251   3.899   5.050   5.563  0.0860  0.2988  0.1457
11587TIP3    H156252   3.879   4.971   5.614 -0.6775 -0.3451 -1.0869
11587TIP3    H256253   3.993   5.047   5.550 -0.0194 -0.8051 -0.4721
11588TIP3   OH256254   1.404   6.028   2.676 -0.0760  0.4465  0.3173
11588TIP3    H156255   1.475   5.965   2.672 -1.4416 -1.1256 -0.7296
11588TIP3    H256256   1.445   6.113   2.657  1.7019 -0.1892  1.1414
11589TIP3   OH256257   2.297   5.328  14.677 -0.7130  0.0857  0.9523
11589TIP3    H156258   2.248   5.297  14.601  0.1874  1.1794 -0.1361
11589TIP3    H256259   2.300   5.253  14.737  0.6568 -1.6678 -1.1582
11590TIP3   OH256260   1.128   1.219   2.175  0.3446 -0.0662  0.3736
11590TIP3    H156261   1.160   1.298   2.133 -0.0928 -0.5250 -0.8876
11590TIP3    H256262   1.040   1.242   2.205  0.5095  0.1513  0.6894
11591TIP3   OH256263   4.071   5.355   4.376 -0.3736 -0.4598  0.2687
11591TIP3    H156264   4.060   5.404   4.458  0.0840  0.2831 -0.0946
11591TIP3    H256265   4.159   5.379   4.347 -0.4860 -0.8252 -0.3716
11592TIP3   OH256266   6.381   1.827   3.590  0.2049 -0.0098 -0.7531
11592TIP3    H156267   6.395   1.795   3.679 -0.4500  0.1325 -0.5940
11592TIP3    H256268   6.295   1.869   3.593  0.4771  0.6040 -1.2801
11593TIP3   OH256269   4.654   2.457  12.240  0.3574 -0.3475 -0.5294
11593TIP3    H156270   4.697   2.372  12.245  0.2333 -0.4499 -1.1554
11593TIP3    H256271   4.564   2.441  12.268  0.4975 -0.3013 -0.0510
11594TIP3   OH256272   4.127   2.027  10.775  0.2295  0.6992 -0.1085
11594TIP3    H156273   4.143   1.934  10.794  1.9663  1.1188  0.6979
11594TIP3    H256274   4.173   2.042  10.693 -0.0592  0.8399 -0.2430
11595TIP3   OH256275   6.487   0.106   5.535  0.0762 -0.5255  0.3227
11595TIP3    H156276   6.480   0.178   5.598 -1.6759 -0.8920  0.5908
11595TIP3    H256277   6.567   0.060   5.560  1.5187  1.5422 -0.1375
11596TIP3   OH256278   6.571   3.776  12.211 -0.1215 -0.0118 -0.2362
11596TIP3    H156279   6.566   3.720  12.133  0.2810  0.2374 -0.4411
11596TIP3    H256280   6.566   3.865  12.178 -1.3082  0.0900  0.1318
11597TIP3   OH256281   1.677   6.598  12.036  0.4083  0.1228  0.0639
11597TIP3    H156282   1.658   6.608  11.943 -0.7555  0.9228  0.3808
11597TIP3    H256283   1.711   6.508  12.044 -0.7167 -0.4149 -0.9326
11598TIP3   OH256284   5.100   3.576   3.681  0.3070 -0.6135 -0.6893
11598TIP3    H156285   5.158   3.641   3.642  0.6976 -0.8407 -0.4965
11598TIP3    H256286   5.153   3.535   3.749 -0.4965  0.0366  0.3416
11599TIP3   OH256287   3.052   2.818  15.328  0.4119 -0.3606  0.4696
11599TIP3    H156288   3.098   2.747  15.373  1.2023  0.2692  0.6747
11599TIP3    H256289   2.991   2.852  15.394 -2.0733 -2.6664 -0.4746
11600TIP3   OH256290   1.285   2.531   3.411 -0.2202  0.6122 -0.2095
11600TIP3    H156291   1.275   2.624   3.429 -0.1163  0.3209  1.5256
11600TIP3    H256292   1.291   2.490   3.497  1.0826 -0.8609 -0.9482
11601TIP3   OH256293   4.027   3.855  16.469 -0.0613 -1.1431 -0.1524
11601TIP3    H156294   4.061   3.943  16.478 -0.4779 -1.1422  1.9015
11601TIP3    H256295   4.040   3.833  16.377 -1.1541  1.5367 -1.0398
11602TIP3   OH256296   6.042   5.084  16.159  0.1814  0.5320  0.1091
11602TIP3    H156297   6.090   5.005  16.183  0.8263 -0.1262 -2.9599
11602TIP3    H256298   6.108   5.153  16.161  0.0909  0.6085  0.7289
11603TIP3   OH256299   5.633   5.955  16.115 -0.2756  0.3821  0.0862
11603TIP3    H156300   5.665   5.907  16.039  1.4737  0.7855  0.5110
11603TIP3    H256301   5.683   5.919  16.189 -2.7388 -0.8189  1.2921
11604TIP3   OH256302   4.289   6.063   3.220  0.3913  0.3558 -1.0081
11604TIP3    H156303   4.324   6.005   3.287  0.7227  0.6518 -0.9248
11604TIP3    H256304   4.271   6.145   3.265  0.6941  0.5831 -1.2921
11605TIP3   OH256305   6.147   2.196   2.896 -0.5318  0.2504 -0.2159
11605TIP3    H156306   6.234   2.189   2.935 -1.0742  0.8807  1.1612
11605TIP3    H256307   6.159   2.257   2.823 -0.0928  1.5649  0.9094
11606TIP3   OH256308   5.030   4.880   2.419 -0.3045 -0.2004 -0.0852
11606TIP3    H156309   4.998   4.928   2.496 -0.9559  0.8265 -0.9810
11606TIP3    H256310   4.973   4.907   2.348  0.5329 -0.8505 -1.0246
11607TIP3   OH256311   0.087   0.714  13.970 -0.4902 -0.0202 -0.4693
11607TIP3    H156312   0.036   0.650  13.920  1.3054 -0.7485 -1.4596
11607TIP3    H256313   0.170   0.670  13.988  0.7169  1.9345 -0.9624
11608TIP3   OH256314   6.675   4.594   4.000  0.0114 -0.3593  0.5586
11608TIP3    H156315   6.582   4.600   4.024 -0.4944 -2.2375 -0.6834
11608TIP3    H256316   6.720   4.574   4.082 -0.4914  1.6509  1.3784
11609TIP3   OH256317   6.691   4.759   6.163 -0.0089 -0.3868 -0.0214
11609TIP3    H156318   6.762   4.694   6.162  0.4069 -0.0227  1.6196
11609TIP3    H256319   6.732   4.839   6.196 -1.0454  0.0164  0.3397
11610TIP3   OH256320   4.363   3.928  13.277  0.0418  0.7241  0.3214
11610TIP3    H156321   4.312   3.986  13.333 -1.6074  0.8577 -1.2268
11610TIP3    H256322   4.298   3.884  13.223  1.2835 -2.1151  0.9718
11611TIP3   OH256323   5.125   4.017   1.235 -0.4652 -0.0464 -0.1028
11611TIP3    H156324   5.101   4.107   1.258 -2.0439 -0.4749  0.0696
11611TIP3    H256325   5.186   4.026   1.162  1.6412  1.2341  1.7131
11612TIP3   OH256326   2.729   6.400  14.827  0.4834  0.2559 -0.4133
11612TIP3    H156327   2.659   6.364  14.771  0.8269  1.7270 -1.8729
11612TIP3    H256328   2.791   6.328  14.836 -0.7841 -0.8139  0.2161
11613TIP3   OH256329   4.792   4.483   3.449  0.3030 -0.1453  0.4830
11613TIP3    H156330   4.867   4.437   3.486 -0.4619 -0.9349  1.1019
11613TIP3    H256331   4.722   4.418   3.450  0.1460 -0.0951 -2.0653
11614TIP3   OH256332   1.616   1.666   0.317  0.0601 -0.0562  0.4729
11614TIP3    H156333   1.589   1.672   0.225  0.2398 -1.1528  0.3449
11614TIP3    H256334   1.571   1.740   0.359 -2.8285 -1.5261  0.1992
11615TIP3   OH256335   3.576   1.765   4.586 -0.6597  0.6767  0.4715
11615TIP3    H156336   3.668   1.790   4.573 -0.9674  0.8556 -1.8016
11615TIP3    H256337   3.531   1.847   4.606 -0.5197  0.7679  0.4132
11616TIP3   OH256338   1.826   1.224  15.633 -0.4878  0.0077 -0.3018
11616TIP3    H156339   1.838   1.296  15.572  0.2302 -0.0165 -0.1943
11616TIP3    H256340   1.830   1.145  15.579 -2.3452  0.0578 -0.5884
11617TIP3   OH256341   5.607   0.245  13.632 -0.0940  0.0512 -0.6127
11617TIP3    H156342   5.575   0.313  13.572  0.4332  0.1984 -0.7365
11617TIP3    H256343   5.530   0.192  13.652 -0.7215  1.1921  0.1723
11618TIP3   OH256344   6.281   5.165  16.970 -0.2820  0.5418  0.1714
11618TIP3    H156345   6.187   5.149  16.970 -0.2790  0.4922  1.2183
11618TIP3    H256346   6.318   5.091  17.019  0.1904  1.1762  0.7838
11619TIP3   OH256347   6.167   5.649   1.931  0.3056 -0.7829 -0.0293
11619TIP3    H156348   6.200   5.585   1.993  0.2504 -0.1093  0.7152
11619TIP3    H256349   6.226   5.724   1.939 -0.3418 -0.2643  0.0117
11620TIP3   OH256350   2.818   1.790   5.309 -0.5099 -0.4088  0.1346
11620TIP3    H156351   2.849   1.843   5.236  1.3083  0.8259  1.7189
11620TIP3    H256352   2.861   1.705   5.297  0.5440  0.0980  0.2996
11621TIP3   OH256353   2.787   1.481  11.957  0.2864 -0.1270 -0.2920
11621TIP3    H156354   2.733   1.501  12.034 -0.4036 -0.7973 -0.5964
11621TIP3    H256355   2.809   1.389  11.967  1.5015  0.1617 -0.1069
11622TIP3   OH256356   6.153   3.548  14.677 -0.0418 -0.2820 -0.3202
11622TIP3    H156357   6.156   3.633  14.632 -0.3379 -0.0803  0.0387
11622TIP3    H256358   6.238   3.509  14.659  0.7631  0.8034  0.9113
11623TIP3   OH256359   0.411   2.011   5.577  0.0609  0.2704  0.4859
11623TIP3    H156360   0.430   2.028   5.669  0.1586  0.4835  0.4263
11623TIP3    H256361   0.429   2.094   5.533  0.5680  0.0042  0.1909
11624TIP3   OH256362   6.062   5.650   3.893  0.3878 -0.7129 -0.9370
11624TIP3    H156363   6.138   5.616   3.940 -0.5809 -0.7693  0.6466
11624TIP3    H256364   5.996   5.581   3.901 -1.4884  1.1985  2.0041
11625TIP3   OH256365   4.228   4.863  16.865  0.1044 -0.3461  0.3911
11625TIP3    H156366   4.206   4.910  16.784 -0.3328  1.4697  1.5070
11625TIP3    H256367   4.165   4.791  16.868  0.1762 -0.4966 -0.8965
11626TIP3   OH256368   0.828   1.898  11.331 -0.0437  0.0835 -0.5592
11626TIP3    H156369   0.880   1.907  11.411 -0.6588 -1.5946  0.0633
11626TIP3    H256370   0.778   1.980  11.325  1.5457  1.1084 -0.3943
11627TIP3   OH256371   5.004   4.737  15.566  0.6569  0.1754 -0.2729
11627TIP3    H156372   4.951   4.657  15.575  0.8611  0.1977  1.5162
11627TIP3    H256373   4.944   4.808  15.592  0.1420  0.7868 -2.8805
11628TIP3   OH256374   4.873   3.720   6.037 -0.2028 -0.3301 -0.3637
11628TIP3    H156375   4.848   3.806   6.004  1.2668  1.3767  2.5847
11628TIP3    H256376   4.797   3.690   6.086 -1.0417 -1.2102 -2.1046
11629TIP3   OH256377   3.997   2.470  13.776 -0.1025  0.4482 -0.1530
11629TIP3    H156378   4.004   2.422  13.694  1.0381  0.3390 -0.0105
11629TIP3    H256379   3.981   2.560  13.750  1.2744  0.6050 -0.5566
11630TIP3   OH256380   3.755   3.973  11.716  0.5918  0.6357 -0.1397
11630TIP3    H156381   3.665   4.000  11.700  0.1014 -0.4488  0.6556
11630TIP3    H256382   3.788   3.947  11.630 -0.6928 -1.3609 -0.0814
11631TIP3   OH256383   3.094   0.881  10.313  0.1400 -0.0038 -0.1325
11631TIP3    H156384   3.129   0.970  10.317 -0.8064  0.3733  0.1256
11631TIP3    H256385   3.010   0.890  10.269 -0.0296 -0.7511  0.0184
11632TIP3   OH256386   5.224   1.494   2.206  0.6786  0.0945  0.0764
11632TIP3    H156387   5.210   1.401   2.187  0.8749  0.4302 -1.9338
11632TIP3    H256388   5.292   1.494   2.274  0.4618 -1.2215  0.3319
11633TIP3   OH256389   4.134   3.876   3.118  0.8065  0.4643 -0.1941
11633TIP3    H156390   4.120   3.875   3.023  2.8358  0.0067 -0.5411
11633TIP3    H256391   4.079   3.948   3.149 -1.8213 -0.9134 -1.3310
11634TIP3   OH256392   4.182   4.371   5.274 -0.2032  0.3870 -0.2090
11634TIP3    H156393   4.184   4.419   5.191  0.3370 -0.2756 -0.5957
11634TIP3    H256394   4.092   4.378   5.303 -0.3263  0.9232 -0.6746
11635TIP3   OH256395   6.364   4.408  16.759 -0.0011 -0.6761 -0.7464
11635TIP3    H156396   6.440   4.458  16.727 -0.2633  2.7544  3.0801
11635TIP3    H256397   6.289   4.455  16.724 -0.3861 -1.9522 -1.6900
11636TIP3   OH256398   4.183   0.660   1.393  0.0256 -0.3064  0.0534
11636TIP3    H156399   4.246   0.600   1.433 -0.2745 -0.8286 -0.2545
11636TIP3    H256400   4.209   0.665   1.301 -0.2164 -0.3097 -0.0159
11637TIP3   OH256401   3.870   6.202  14.253 -0.2931 -0.4815 -0.6835
11637TIP3    H156402   3.900   6.188  14.343  0.1671 -2.1868 -1.0607
11637TIP3    H256403   3.899   6.291  14.231  1.5952 -0.8540  0.1113
11638TIP3   OH256404   2.815   5.526  12.712 -0.0657 -0.6538  0.0438
11638TIP3    H156405   2.820   5.448  12.657  0.9802  0.1342 -1.0478
11638TIP3    H256406   2.769   5.590  12.659 -0.6790 -0.4294  0.8246
11639TIP3   OH256407   0.677   5.927  16.809 -0.5009 -0.1261 -0.7056
11639TIP3    H156408   0.734   5.989  16.765 -0.9325  0.5739 -0.2926
11639TIP3    H256409   0.728   5.846  16.815  0.9458  0.8385  0.7804
11640TIP3   OH256410   6.185   4.272   5.144  0.4417  0.5372 -0.2903
11640TIP3    H156411   6.187   4.227   5.228  1.1147 -0.1550 -0.6622
11640TIP3    H256412   6.224   4.210   5.082  1.7990  1.7715 -0.7455
11641TIP3   OH256413   3.475   0.518  11.483 -0.3252  0.4767  0.4556
11641TIP3    H156414   3.556   0.545  11.527 -1.1901  1.2449  1.6350
11641TIP3    H256415   3.486   0.424  11.468  0.4675  0.4211  1.2958
11642TIP3   OH256416   6.807   2.712  15.162  0.1326  0.9212 -0.2932
11642TIP3    H156417   6.820   2.802  15.134  0.8598  0.3586 -1.8308
11642TIP3    H256418   6.742   2.677  15.101 -0.1893  0.3970  0.3337
11643TIP3   OH256419   3.671   6.739  14.309  0.3235 -0.3018 -0.5065
11643TIP3    H156420   3.608   6.752  14.238 -0.8413  1.1555  0.7225
11643TIP3    H256421   3.732   6.812  14.301  0.9473 -0.8367 -0.7367
11644TIP3   OH256422   3.396   6.806   5.625  0.0240  0.3921 -0.1160
11644TIP3    H156423   3.477   6.848   5.597 -0.7089  0.9570 -1.4964
11644TIP3    H256424   3.328   6.846   5.571 -1.0273 -0.9327  0.1630
11645TIP3   OH256425   6.220   4.326   3.588  0.5004 -0.1557 -0.0442
11645TIP3    H156426   6.161   4.369   3.526  0.3620 -2.2498 -1.4760
11645TIP3    H256427   6.161   4.289   3.654  0.7475  3.7614  2.6744
11646TIP3   OH256428   2.105   2.775  14.150 -0.4369 -0.1841  0.1164
11646TIP3    H156429   2.020   2.731  14.145 -0.1241 -1.1497  2.1144
11646TIP3    H256430   2.086   2.866  14.130 -1.7526 -0.5773 -0.5451
11647TIP3   OH256431   0.412   4.188   2.117  0.0758  0.1289 -0.2473
11647TIP3    H156432   0.336   4.145   2.156  0.1483 -0.2727 -0.5376
11647TIP3    H256433   0.485   4.130   2.139  0.0321 -0.4365 -1.4948
11648TIP3   OH256434   3.549   2.926  14.215  0.1129 -0.6921 -0.5545
11648TIP3    H156435   3.482   2.859  14.231  1.0996 -1.7119 -0.5437
11648TIP3    H256436   3.574   2.955  14.303 -1.0953  0.5389 -0.5764
11649TIP3   OH256437   2.675   4.693  13.460  0.5836 -0.1325 -0.6687
11649TIP3    H156438   2.626   4.629  13.409 -0.6229  0.7197 -0.6098
11649TIP3    H256439   2.767   4.666  13.450  0.0989 -1.9773 -0.4495
11650TIP3   OH256440   4.787   3.749   1.567 -0.1775  0.0255 -0.0280
11650TIP3    H156441   4.727   3.813   1.530  0.0571  0.5088  0.4258
11650TIP3    H256442   4.848   3.800   1.620 -0.4891 -0.6465  1.0118
11651TIP3   OH256443   5.449   2.954   1.272  0.2543 -0.0825 -0.5794
11651TIP3    H156444   5.488   2.895   1.208  0.5383  0.5209 -0.9727
11651TIP3    H256445   5.490   2.930   1.355  0.1572 -0.6237 -0.6848
11652TIP3   OH256446   6.839   0.181   4.421 -0.0682  0.2970  0.5782
11652TIP3    H156447   6.880   0.240   4.485 -0.7325 -0.9087  2.2037
11652TIP3    H256448   6.751   0.165   4.458 -0.6299 -0.1054 -0.8793
11653TIP3   OH256449   4.632   6.036  11.444 -0.1921 -0.8074 -0.1236
11653TIP3    H156450   4.685   6.059  11.520 -1.2657  1.9723 -0.0871
11653TIP3    H256451   4.595   5.951  11.465 -1.4881  0.4122  3.1396
11654TIP3   OH256452   3.277   4.052   5.566 -0.3708  0.3556  0.9003
11654TIP3    H156453   3.359   4.035   5.614 -0.8262 -0.8676  1.2721
11654TIP3    H256454   3.297   4.128   5.511  1.4427 -0.7780 -0.0635
11655TIP3   OH256455   3.883   5.537   1.197 -0.3742  0.0251 -0.0870
11655TIP3    H156456   3.793   5.514   1.174 -0.3910  1.9420 -2.2671
11655TIP3    H256457   3.937   5.478   1.143 -0.3425 -0.1637  0.1519
11656TIP3   OH256458   6.452   5.343  15.457 -0.8093 -0.0991 -0.0230
11656TIP3    H156459   6.469   5.339  15.363 -0.9508  2.2948 -0.2198
11656TIP3    H256460   6.535   5.375  15.494 -1.6769  2.1051  0.2020
11657TIP3   OH256461   2.168   3.681   3.570 -0.1869  0.9910 -0.4880
11657TIP3    H156462   2.081   3.721   3.578  0.0639  1.4172  0.2530
11657TIP3    H256463   2.159   3.596   3.611  0.3346  1.9905  1.8259
11658TIP3   OH256464   2.032   4.664  11.838 -0.1306  0.1691  0.1905
11658TIP3    H156465   2.114   4.685  11.792 -0.5326 -0.5817 -0.8896
11658TIP3    H256466   2.050   4.689  11.929  0.6206  1.8491 -0.3688
11659TIP3   OH256467   6.855   3.429   4.730  0.7840 -0.0967  0.0446
11659TIP3    H156468   6.761   3.431   4.715  0.7408  0.4173  0.3568
11659TIP3    H256469   6.877   3.336   4.730  0.3774 -0.1980 -0.6196
11660TIP3   OH256470   0.190   1.866   6.199 -0.3640  0.4204  0.2330
11660TIP3    H156471   0.199   1.895   6.109 -1.5546  1.6692  0.4886
11660TIP3    H256472   0.136   1.932   6.241 -0.8380 -0.7516  1.5716
11661TIP3   OH256473   5.086   2.574   2.118 -0.4286  0.5417  0.1832
11661TIP3    H156474   5.158   2.539   2.064  1.1516  0.4034  2.2680
11661TIP3    H256475   5.080   2.666   2.091  1.4082  0.8913  0.8006
11662TIP3   OH256476   6.555   3.320   3.973  0.1708 -0.7804  0.4047
11662TIP3    H156477   6.531   3.263   3.899  2.5981  0.0406 -1.1191
11662TIP3    H256478   6.495   3.394   3.967  1.0510 -0.1509 -1.5451
11663TIP3   OH256479   1.292   3.487  14.964  0.4149 -0.6063  0.1994
11663TIP3    H156480   1.262   3.577  14.974  1.5845 -0.2629  0.6960
11663TIP3    H256481   1.227   3.435  15.011 -0.7867 -0.1433 -0.8645
11664TIP3   OH256482   1.139   5.191  14.681  0.3070  0.3940  0.0201
11664TIP3    H156483   1.139   5.165  14.589  2.0980  1.7261 -0.3992
11664TIP3    H256484   1.051   5.227  14.695  0.2891  0.9906 -1.4219
11665TIP3   OH256485   5.039   4.607  15.023 -0.0668  0.0306  0.4679
11665TIP3    H156486   4.949   4.639  15.023 -0.8087 -1.7834 -1.6987
11665TIP3    H256487   5.088   4.671  14.973 -0.4251  0.3903  0.5741
11666TIP3   OH256488   3.797   2.616  16.015 -0.3933  0.0406 -0.0891
11666TIP3    H156489   3.875   2.670  16.002 -0.4473  0.5718  1.5308
11666TIP3    H256490   3.801   2.590  16.107 -1.6933 -0.6279 -0.1942
11667TIP3   OH256491   5.314   0.320  14.511 -0.4005 -0.3324  0.0975
11667TIP3    H156492   5.399   0.354  14.484 -0.8935 -0.9610 -2.5233
11667TIP3    H256493   5.315   0.326  14.606  1.1258  3.0677  0.0093
11668TIP3   OH256494   5.280   0.160   4.173  0.6277 -0.0905  0.5435
11668TIP3    H156495   5.362   0.167   4.222  1.5720 -0.6996 -0.8836
11668TIP3    H256496   5.256   0.251   4.156  0.7028  0.1096  1.4392
11669TIP3   OH256497   1.343   5.665  15.180 -0.2649  0.3138  0.1940
11669TIP3    H156498   1.353   5.584  15.131  1.0225 -0.2520  1.3264
11669TIP3    H256499   1.272   5.647  15.243 -0.3821  0.2780  0.0510
11670TIP3   OH256500   0.003   5.723  11.540 -0.3035 -0.2086 -0.3982
11670TIP3    H156501   0.088   5.680  11.551 -0.0426  0.2168 -0.7310
11670TIP3    H256502  -0.005   5.735  11.446 -0.2579  0.6976 -0.2930
11671TIP3   OH256503   5.013   1.911  12.704 -0.0013 -0.2430  0.4882
11671TIP3    H156504   5.054   1.870  12.627 -1.2009 -0.2656 -0.1585
11671TIP3    H256505   5.073   1.982  12.728  1.9143 -2.0437  1.3833
11672TIP3   OH256506   6.613   2.215   6.522  0.0477 -0.1107 -0.1231
11672TIP3    H156507   6.594   2.150   6.454  1.2262 -0.8563  0.2399
11672TIP3    H256508   6.638   2.294   6.474  0.2620 -0.4448 -0.5650
11673TIP3   OH256509   4.750   3.416  15.578 -0.2846 -0.0532 -0.2186
11673TIP3    H156510   4.667   3.463  15.574 -0.0625  0.3435 -0.2847
11673TIP3    H256511   4.795   3.439  15.496  0.2963  0.5232  0.2431
11674TIP3   OH256512   4.567   6.501  13.421 -0.1596 -0.5216  0.0330
11674TIP3    H156513   4.614   6.467  13.345  0.4404 -0.3893  0.3383
11674TIP3    H256514   4.484   6.453  13.421  0.3155 -1.3698 -0.0376
11675TIP3   OH256515   3.810   0.702  14.159  0.1858 -0.3935 -0.7145
11675TIP3    H156516   3.817   0.607  14.167  1.3244 -0.2100  1.1372
11675TIP3    H256517   3.897   0.734  14.183  0.5436  1.0601 -3.5260
11676TIP3   OH256518   2.168   0.997  14.990 -0.2388  0.4363 -0.0586
11676TIP3    H156519   2.093   1.030  15.039  0.6463 -0.4072  1.9563
11676TIP3    H256520   2.240   0.998  15.053  0.9180 -0.8389 -1.3017
11677TIP3   OH256521   4.171   1.464   0.819 -0.1871  0.4936 -0.5112
11677TIP3    H156522   4.212   1.379   0.836 -1.4805 -0.2731 -1.1331
11677TIP3    H256523   4.242   1.527   0.833  0.5068 -0.5764  1.0910
11678TIP3   OH256524   4.175   2.134   1.811  0.1972 -0.5021 -0.2021
11678TIP3    H156525   4.180   2.062   1.874  1.4806  0.4807  0.8988
11678TIP3    H256526   4.263   2.172   1.812 -0.6394  1.5527 -0.1316
11679TIP3   OH256527   0.862   4.408  16.194  1.0363 -0.1650 -0.5921
11679TIP3    H156528   0.823   4.387  16.110  0.5577  0.7653 -0.6146
11679TIP3    H256529   0.789   4.404  16.256  1.0875  0.6232 -0.4736
11680TIP3   OH256530   2.994   4.217  16.876  0.0269  0.0566  0.0389
11680TIP3    H156531   3.000   4.268  16.795 -3.2044 -0.8140 -0.8737
11680TIP3    H256532   2.967   4.281  16.942 -1.5276  0.0683 -0.5603
11681TIP3   OH256533   4.595   3.641   6.103 -0.0590  0.4569 -0.1667
11681TIP3    H156534   4.603   3.600   6.190 -0.0242 -1.7121 -1.1203
11681TIP3    H256535   4.500   3.644   6.088 -0.0328 -0.0667 -0.4445
11682TIP3   OH256536   4.551   4.371   5.850 -0.0618 -0.3366 -0.0452
11682TIP3    H156537   4.510   4.442   5.900 -2.9758 -0.1746 -2.3466
11682TIP3    H256538   4.586   4.414   5.772  4.0581 -0.6307  1.4421
11683TIP3   OH256539   1.225   5.913   2.076 -0.0024  0.5985 -0.1223
11683TIP3    H156540   1.136   5.879   2.074  0.4549 -0.9062  1.8362
11683TIP3    H256541   1.224   5.979   2.145 -0.0036  1.8941 -1.3425
11684TIP3   OH256542   6.066   2.060  17.074 -0.1361 -0.3188 -0.5107
11684TIP3    H156543   6.089   2.151  17.053  0.9094  0.1312  2.2045
11684TIP3    H256544   6.144   2.010  17.050  0.2423 -0.1172  0.2693
11685TIP3   OH256545   0.410   3.228  16.529  0.9691 -0.1784  0.6403
11685TIP3    H156546   0.431   3.135  16.522  2.0678  0.1723 -2.6240
11685TIP3    H256547   0.495   3.270  16.546  0.5102  0.2708  1.9041
11686TIP3   OH256548   6.704   5.458  16.532  0.3811  0.3559 -0.3275
11686TIP3    H156549   6.795   5.440  16.552  0.6483 -1.0311 -2.4987
11686TIP3    H256550   6.664   5.477  16.617  2.4107 -0.1596  0.8064
11687TIP3   OH256551   6.730   3.298  13.903  0.6667  0.3796 -0.0033
11687TIP3    H156552   6.712   3.323  13.812 -0.3826 -1.5744 -0.3945
11687TIP3    H256553   6.644   3.294  13.944  0.7210 -2.2661  0.0354
11688TIP3   OH256554   0.282   0.446  14.183  0.4335  0.3722 -0.3152
11688TIP3    H156555   0.319   0.399  14.109  1.3430  0.8058 -0.1547
11688TIP3    H256556   0.202   0.398  14.205  1.8835 -1.7848  0.5603
11689TIP3   OH256557   5.091   1.103   4.029 -0.5035 -1.1297  0.2486
11689TIP3    H156558   5.097   1.174   4.092 -1.7993 -1.2297  0.5143
11689TIP3    H256559   5.177   1.061   4.032  0.3224  0.4618  0.0039
11690TIP3   OH256560   2.379   5.685  11.280 -0.4330 -0.0931 -0.0698
11690TIP3    H156561   2.454   5.710  11.227 -0.8307 -1.8811 -1.5878
11690TIP3    H256562   2.329   5.766  11.291  0.1332  0.5184 -1.6976
11691TIP3   OH256563   3.649   1.816   5.566 -0.1842  0.2316  0.2515
11691TIP3    H156564   3.703   1.742   5.594  0.6566 -0.0448 -1.9042
11691TIP3    H256565   3.574   1.775   5.523  0.4077  0.6088 -1.1689
11692TIP3   OH256566   1.332   1.372   2.773  0.3917  0.5115  0.1080
11692TIP3    H156567   1.245   1.350   2.738  0.3926  0.9193 -0.1672
11692TIP3    H256568   1.347   1.462   2.743  0.1556  1.0897  1.6233
11693TIP3   OH256569   4.096   3.732   0.955  0.5813  0.1606  0.2258
11693TIP3    H156570   4.047   3.812   0.936 -0.8923 -1.0174 -1.3051
11693TIP3    H256571   4.052   3.665   0.903  2.1523 -1.5319  0.9809
11694TIP3   OH256572   4.941   4.202   4.892  0.5744 -0.1090 -0.0116
11694TIP3    H156573   4.906   4.287   4.865  0.1672  0.1635  1.3050
11694TIP3    H256574   4.893   4.180   4.972  0.0257 -2.0240 -0.8035
11695TIP3   OH256575   3.852   0.251  12.588 -0.2263  0.4301  0.1334
11695TIP3    H156576   3.762   0.281  12.576 -0.8998 -1.2152  0.7447
11695TIP3    H256577   3.905   0.331  12.583 -1.7310  1.4658  0.0200
11696TIP3   OH256578   6.400   3.222   5.834  0.0967 -0.2834  0.0631
11696TIP3    H156579   6.431   3.167   5.905  0.0305  1.9484  1.9185
11696TIP3    H256580   6.313   3.188   5.814  0.1310 -0.9702  1.0126
11697TIP3   OH256581   6.230   4.180   0.864  0.1941  0.1914  0.4516
11697TIP3    H156582   6.230   4.092   0.903  1.1862  0.7067  1.6707
11697TIP3    H256583   6.166   4.174   0.792 -0.8265 -1.1220  1.4150
11698TIP3   OH256584   3.652   1.484  15.015  0.3388  0.2351 -0.2430
11698TIP3    H156585   3.664   1.408  15.073  0.4578 -0.2180 -0.8583
11698TIP3    H256586   3.597   1.452  14.944  0.3392  0.7439 -0.4756
11699TIP3   OH256587   1.706   1.135   3.671 -0.2962  0.4275  0.5717
11699TIP3    H156588   1.656   1.209   3.705 -0.4266 -0.2605  1.9373
11699TIP3    H256589   1.642   1.082   3.624 -0.1692  1.2518 -0.5598
11700TIP3   OH256590   2.471   3.106  10.959 -0.0836 -0.0639 -0.0271
11700TIP3    H156591   2.544   3.052  10.929  1.1799  1.2043  0.6687
11700TIP3    H256592   2.453   3.165  10.885  1.8540  1.8602  0.9333
11701TIP3   OH256593   5.939   5.626   0.355 -0.4762 -0.1407 -0.0560
11701TIP3    H156594   5.937   5.581   0.439 -0.7898 -0.1089 -0.0469
11701TIP3    H256595   5.916   5.559   0.291 -0.0875 -0.2024 -0.1361
11702TIP3   OH256596   6.016   4.841  14.175  0.0855  0.0059 -0.6562
11702TIP3    H156597   6.011   4.841  14.271  0.6010 -4.1101 -0.4427
11702TIP3    H256598   5.925   4.831  14.147  0.1216 -1.4552 -0.3712
11703TIP3   OH256599   2.709   0.392  14.800 -0.1605 -0.2193  0.3335
11703TIP3    H156600   2.621   0.429  14.804  0.3371  0.9713  1.1005
11703TIP3    H256601   2.765   0.461  14.837  1.3574 -0.1272 -1.9581
11704TIP3   OH256602   4.617   0.589   1.957  0.4206 -0.5866 -0.4154
11704TIP3    H156603   4.617   0.643   1.878  0.4685 -0.5277 -0.3753
11704TIP3    H256604   4.594   0.650   2.028  1.9913 -0.2784 -0.1409
11705TIP3   OH256605   3.764   0.630  13.583 -0.1459 -0.0492 -0.0647
11705TIP3    H156606   3.835   0.635  13.518 -0.5326  0.2831 -0.4653
11705TIP3    H256607   3.684   0.625  13.531 -0.3618 -1.5527  0.3731
11706TIP3   OH256608   1.357   6.844  12.070 -0.2747 -0.0207  0.1167
11706TIP3    H156609   1.323   6.773  12.015 -0.1268 -0.3876  0.4983
11706TIP3    H256610   1.287   6.909  12.070 -0.4871 -0.2467 -0.0821
11707TIP3   OH256611   3.841   4.905   5.842  0.0492  0.3188  0.0631
11707TIP3    H156612   3.914   4.843   5.838  1.1598  1.6295 -1.1161
11707TIP3    H256613   3.785   4.883   5.768 -0.4985 -0.3436  0.6557
11708TIP3   OH256614   5.599   5.406  14.366  0.0590 -0.6432  0.0028
11708TIP3    H156615   5.569   5.468  14.299  2.4914 -1.7466 -2.2962
11708TIP3    H256616   5.520   5.361  14.395 -1.1251  0.1193 -1.8896
11709TIP3   OH256617   6.763   4.985  13.193 -0.2456 -0.4213 -0.5709
11709TIP3    H156618   6.724   5.056  13.244 -0.6989 -0.7525 -0.4409
11709TIP3    H256619   6.703   4.911  13.206  0.2855 -0.8653 -0.5975
11710TIP3   OH256620   2.001   6.422  16.824  0.3417 -0.5246  0.9033
11710TIP3    H156621   1.969   6.460  16.906  0.8633 -2.1875  1.9270
11710TIP3    H256622   2.093   6.447  16.820  0.1120  0.2944  0.3424
11711TIP3   OH256623   3.112   6.316  16.200  0.1560 -0.0432 -0.0672
11711TIP3    H156624   3.201   6.315  16.234 -0.2151  1.1550  1.0068
11711TIP3    H256625   3.093   6.409  16.185 -1.1023 -0.2315  0.2632
11712TIP3   OH256626   0.365   3.962  15.342  0.6137 -0.2553 -0.4838
11712TIP3    H156627   0.394   3.890  15.285  0.5666  0.0429 -0.8830
11712TIP3    H256628   0.323   3.917  15.416  3.1368 -0.7758  0.7572
11713TIP3   OH256629   5.994   4.007   4.641  0.8144 -0.4184  0.7019
11713TIP3    H156630   6.004   4.085   4.586  0.8557  0.0911  1.4200
11713TIP3    H256631   6.033   3.937   4.590  1.1535  0.1108  0.2192
11714TIP3   OH256632   1.387   5.911   5.043 -0.0451  0.1067  0.2215
11714TIP3    H156633   1.311   5.866   5.006 -1.5309 -0.0093  3.1241
11714TIP3    H256634   1.369   6.004   5.030 -0.2199  0.0537  0.0851
11715TIP3   OH256635   0.391   2.588   3.644  0.2527 -0.0867 -0.0780
11715TIP3    H156636   0.338   2.509   3.660  0.6192 -0.5567 -1.1056
11715TIP3    H256637   0.335   2.645   3.592  0.3671 -0.1167 -0.2333
11716TIP3   OH256638   5.915   5.433   1.982  0.6630  0.6869  0.3567
11716TIP3    H156639   5.923   5.514   1.933  0.0597 -0.1883 -1.2478
11716TIP3    H256640   5.856   5.455   2.055 -2.0134  1.0196 -1.7537
11717TIP3   OH256641   3.320   2.507  14.290 -0.3835 -0.0870  0.2574
11717TIP3    H156642   3.318   2.411  14.288 -0.4610 -0.0658 -0.7265
11717TIP3    H256643   3.231   2.534  14.268  0.0695  0.2274 -1.2706
11718TIP3   OH256644   3.671   5.790   0.063 -0.0559  0.2355 -0.0258
11718TIP3    H156645   3.726   5.756   0.134 -0.5118 -1.1616 -0.3278
11718TIP3    H256646   3.714   5.759  -0.017  0.6581  2.0980 -0.4110
11719TIP3   OH256647   2.291   5.144  16.789  0.4327 -0.0622  0.1705
11719TIP3    H156648   2.294   5.214  16.724 -1.7400  1.2887  1.4049
11719TIP3    H256649   2.371   5.093  16.774  2.1606  2.7156 -0.7274
11720TIP3   OH256650   2.336   1.792  17.124 -0.7886 -0.3306  0.2707
11720TIP3    H156651   2.321   1.790  17.218 -1.1756 -1.4561  0.1883
11720TIP3    H256652   2.391   1.716  17.106 -2.7425 -1.5825 -0.7426
11721TIP3   OH256653   3.707   1.323   0.628 -0.4014  0.6034  0.0774
11721TIP3    H156654   3.790   1.276   0.628 -0.3755  0.6492  0.5337
11721TIP3    H256655   3.702   1.364   0.714 -1.1869  0.0899  0.2789
11722TIP3   OH256656   4.979   6.283  15.308  0.3540  0.0750 -0.0453
11722TIP3    H156657   4.962   6.265  15.401 -0.8287 -0.5662 -0.3714
11722TIP3    H256658   5.073   6.266  15.297  0.2909 -0.8978  0.7983
11723TIP3   OH256659   1.953   1.410   6.330 -0.2419 -0.1847  0.1477
11723TIP3    H156660   1.945   1.495   6.286 -0.4369 -0.4135 -0.2739
11723TIP3    H256661   2.028   1.368   6.288 -1.7879 -1.3527 -1.6514
11724TIP3   OH256662   1.951   1.602   0.392  0.3684  0.2489 -0.0884
11724TIP3    H156663   1.900   1.527   0.423  1.5934 -0.3435  0.5770
11724TIP3    H256664   1.908   1.628   0.311 -0.4525 -0.7894 -0.0160
11725TIP3   OH256665   3.540   1.896   2.129  0.2906 -0.1406  0.3253
11725TIP3    H156666   3.582   1.929   2.208  0.0163 -0.0531  0.4347
11725TIP3    H256667   3.506   1.810   2.154  0.5570 -0.2880  0.1866
11726TIP3   OH256668   5.261   0.928  12.349 -0.4049 -0.3900  0.3388
11726TIP3    H156669   5.307   0.877  12.282 -2.9180 -1.1440 -0.9138
11726TIP3    H256670   5.176   0.886  12.358 -1.3792  1.6975  1.6152
11727TIP3   OH256671   6.730   4.240  10.999  0.5223 -0.4880 -0.0308
11727TIP3    H156672   6.705   4.233  10.907  2.2186 -2.1354 -0.4255
11727TIP3    H256673   6.721   4.150  11.033 -2.4957  0.4827  2.1519
11728TIP3   OH256674   6.434   3.758  15.694  0.3859  0.2430 -0.0149
11728TIP3    H156675   6.342   3.782  15.680  0.1681 -1.0086 -0.9270
11728TIP3    H256676   6.484   3.817  15.639 -0.0626 -0.6067 -1.3766
11729TIP3   OH256677   1.634   4.309   6.718 -0.5056  0.5372  0.2867
11729TIP3    H156678   1.640   4.228   6.769  0.4448  1.2819  1.4254
11729TIP3    H256679   1.572   4.363   6.767  2.0985  2.1545  2.0818
11730TIP3   OH256680   3.099   3.166  12.506  0.1659  0.4443 -0.3825
11730TIP3    H156681   3.030   3.100  12.519 -1.9780  2.5691 -0.3268
11730TIP3    H256682   3.150   3.163  12.587 -1.9451  1.0559  1.0646
11731TIP3   OH256683   1.015   2.567   5.853 -0.1459  0.2861 -0.2629
11731TIP3    H156684   0.983   2.586   5.941 -0.2598  1.0058 -0.4546
11731TIP3    H256685   1.110   2.558   5.864 -0.2585 -0.6464  0.0972
11732TIP3   OH256686   3.841   6.592  13.496  1.0915 -0.2600 -0.4112
11732TIP3    H156687   3.802   6.624  13.578 -0.1977 -2.1724 -0.1995
11732TIP3    H256688   3.933   6.617  13.502  1.0839 -0.5110  1.7399
11733TIP3   OH256689   4.715   3.658   3.303 -0.2413  0.6008 -0.2823
11733TIP3    H156690   4.803   3.692   3.295 -0.0369  0.6759  1.6442
11733TIP3    H256691   4.705   3.597   3.230  0.7418  1.8951 -1.5508
11734TIP3   OH256692   5.986   5.072  12.520 -0.0251 -0.1125  0.5307
11734TIP3    H156693   5.976   5.166  12.538  1.4055  0.2455 -0.3400
11734TIP3    H256694   5.931   5.056  12.444 -0.2920  0.0214  0.6954
11735TIP3   OH256695   2.070   1.992  10.893  0.1832  0.1921 -0.4181
11735TIP3    H156696   2.034   1.943  10.966  0.6265  0.2687 -0.1430
11735TIP3    H256697   1.995   2.041  10.857 -0.0195  0.2112  0.0295
11736TIP3   OH256698   1.672   3.533  11.087  0.2369 -0.4933  0.0614
11736TIP3    H156699   1.583   3.563  11.103  0.0971 -0.3981 -0.8529
11736TIP3    H256700   1.672   3.503  10.996  0.6983 -2.0991  0.5532
11737TIP3   OH256701   5.760   5.334  14.025  0.3483  0.8588  0.3740
11737TIP3    H156702   5.824   5.308  14.091 -0.6057  1.1397  1.4429
11737TIP3    H256703   5.694   5.383  14.073 -0.5685  0.7594 -0.7285
11738TIP3   OH256704   6.438   3.011  16.063  0.0551  0.2387  0.1692
11738TIP3    H156705   6.479   2.995  15.978 -1.3724  1.1185 -0.7216
11738TIP3    H256706   6.434   2.925  16.104  1.4538 -0.0874 -0.3109
11739TIP3   OH256707   0.264   1.034  16.239 -0.8707  0.1272 -0.5313
11739TIP3    H156708   0.340   1.055  16.293 -0.9774 -1.8583  0.4715
11739TIP3    H256709   0.280   1.079  16.156  1.8810 -0.9225 -0.6722
11740TIP3   OH256710   4.747   4.148  16.028  0.3956 -0.3035  0.4711
11740TIP3    H156711   4.842   4.146  16.032  0.3832 -1.2734  0.5311
11740TIP3    H256712   4.724   4.241  16.030  1.4012  0.0138 -0.9649
11741TIP3   OH256713   0.541   6.349  15.419  0.4460 -0.5584  0.1147
11741TIP3    H156714   0.593   6.274  15.450  0.8148 -0.9041 -1.2763
11741TIP3    H256715   0.591   6.426  15.447  1.2936 -0.8778 -0.4791
11742TIP3   OH256716   0.866   6.092  15.169  0.1827  0.3426  0.5755
11742TIP3    H156717   0.941   6.148  15.189  0.7746 -0.4343  0.5857
11742TIP3    H256718   0.790   6.150  15.175  0.7472  1.0569  0.9381
11743TIP3   OH256719   5.162   2.872  15.543 -0.2777 -0.1609 -0.5815
11743TIP3    H156720   5.083   2.883  15.490 -0.7218 -1.2126 -0.1849
11743TIP3    H256721   5.226   2.833  15.484 -0.8474 -1.5542 -0.3228
11744TIP3   OH256722   4.556   1.565  15.973 -0.0142  0.3152  0.4106
11744TIP3    H156723   4.551   1.655  15.941  0.6430  0.7021  1.3710
11744TIP3    H256724   4.577   1.513  15.895 -2.6608  0.6543 -0.6284
11745TIP3   OH256725   6.321   1.150   2.563  0.0055 -0.0850  0.0506
11745TIP3    H156726   6.237   1.130   2.522  0.4016 -0.4255 -0.6239
11745TIP3    H256727   6.376   1.074   2.542  0.3740 -0.0349  0.7951
11746TIP3   OH256728   0.542   0.537  17.015 -0.0475 -0.3811 -0.5667
11746TIP3    H156729   0.612   0.576  17.067 -1.2081  0.7101  0.2527
11746TIP3    H256730   0.511   0.608  16.959 -3.6518  0.8390  2.4652
11747TIP3   OH256731   5.474   2.335  16.138 -0.1342 -0.4626 -0.2205
11747TIP3    H156732   5.538   2.374  16.079 -0.3206 -0.4750 -0.4313
11747TIP3    H256733   5.520   2.327  16.222 -0.0610  0.1218 -0.1988
11748TIP3   OH256734   4.587   0.440   4.933  0.3799 -0.4566 -0.5067
11748TIP3    H156735   4.607   0.395   5.015  0.0922  0.0493 -0.1546
11748TIP3    H256736   4.593   0.371   4.866 -1.7852 -1.4611  0.2081
11749TIP3   OH256737   5.274   0.358   2.468 -0.2805  0.3115  0.0044
11749TIP3    H156738   5.319   0.441   2.479  0.6604  0.1175 -1.8486
11749TIP3    H256739   5.245   0.359   2.376 -2.6148 -0.2961  0.6693
11750TIP3   OH256740   1.584   0.429   3.768 -0.5523 -0.0368  0.5752
11750TIP3    H156741   1.679   0.441   3.768 -0.4577 -0.6620 -0.5307
11750TIP3    H256742   1.571   0.338   3.795 -0.8958  0.3010  1.6048
11751TIP3   OH256743   1.932   0.545   1.017  0.5560  0.3669 -0.4426
11751TIP3    H156744   1.843   0.575   1.035  1.2109  1.6962  0.7016
11751TIP3    H256745   1.987   0.591   1.080  1.9210 -1.4762 -0.2004
11752TIP3   OH256746   2.750   6.274   4.337 -0.2756  0.5721 -0.1916
11752TIP3    H156747   2.695   6.273   4.415  1.9268 -0.5416  1.4333
11752TIP3    H256748   2.738   6.188   4.298 -1.0713  0.9915 -0.9166
11753TIP3   OH256749   2.773   3.591   2.117  0.8257  0.3167  0.8003
11753TIP3    H156750   2.792   3.499   2.102 -1.0112 -0.4192  2.5995
11753TIP3    H256751   2.754   3.626   2.030 -0.9532 -1.6514  0.3146
11754TIP3   OH256752   5.368   2.444  16.774  0.0845  0.2102 -0.2577
11754TIP3    H156753   5.324   2.410  16.695  0.3040  0.8494 -0.6601
11754TIP3    H256754   5.362   2.372  16.837  1.1038 -0.8478 -1.2968
11755TIP3   OH256755   3.865   5.265   4.670  0.2356 -0.4127  0.0388
11755TIP3    H156756   3.771   5.249   4.679 -0.5943  2.8934 -1.2217
11755TIP3    H256757   3.892   5.206   4.600 -0.9420 -1.2516  0.2505
11756TIP3   OH256758   1.729   2.316  10.974 -0.0407 -0.1300  0.0416
11756TIP3    H156759   1.670   2.367  10.918 -1.5485 -2.5174 -0.7298
11756TIP3    H256760   1.687   2.317  11.060 -0.8058 -1.0901 -0.2945
11757TIP3   OH256761   5.825   4.484   1.223  0.4381 -0.5572  0.2280
11757TIP3    H156762   5.734   4.463   1.243  0.0882 -0.9279 -1.5858
11757TIP3    H256763   5.842   4.565   1.272 -1.9019  1.3157 -1.8187
11758TIP3   OH256764   1.126   4.506  14.969 -0.1489  0.3044  0.3651
11758TIP3    H156765   1.161   4.511  14.880 -0.3953  3.0353  0.3120
11758TIP3    H256766   1.032   4.498  14.958 -0.2087  0.9520  0.3379
11759TIP3   OH256767   3.909   1.940  11.475 -0.6664  0.0327 -0.0465
11759TIP3    H156768   3.814   1.953  11.476 -0.6556  0.1574  1.0902
11759TIP3    H256769   3.945   2.027  11.494 -0.3133  0.0597 -0.8231
11760TIP3   OH256770   0.531   5.875  11.345  0.0904  0.1157  0.2318
11760TIP3    H156771   0.449   5.915  11.375 -0.7770 -0.3010 -1.4747
11760TIP3    H256772   0.578   5.946  11.301 -0.0304 -0.0015 -0.0860
11761TIP3   OH256773   3.778   5.153  13.684  0.0215  0.0694  0.4417
11761TIP3    H156774   3.754   5.111  13.601  1.6021 -3.3787  1.5102
11761TIP3    H256775   3.862   5.194  13.666 -0.2746  0.5074  0.0265
11762TIP3   OH256776   4.881   5.972   0.565  0.4881  0.3604  0.3075
11762TIP3    H156777   4.908   5.921   0.641 -0.0057  0.7420  0.7444
11762TIP3    H256778   4.787   5.958   0.559  0.5423  0.2454 -0.3027
11763TIP3   OH256779   6.057   1.953   3.223 -0.1317  0.4448 -0.0807
11763TIP3    H156780   6.063   1.892   3.149 -1.0804  0.2252  0.0043
11763TIP3    H256781   6.097   1.906   3.296 -2.4075 -0.8483  0.4258
11764TIP3   OH256782   6.652   1.448   6.184 -0.0542 -0.6498  0.3721
11764TIP3    H156783   6.656   1.536   6.148 -3.2787 -0.5810 -0.1210
11764TIP3    H256784   6.672   1.459   6.277 -0.0705  0.5447  0.2435
11765TIP3   OH256785   3.221   2.619   2.680 -0.3517 -0.2496 -0.8370
11765TIP3    H156786   3.190   2.530   2.695  0.6070 -0.5016 -0.3121
11765TIP3    H256787   3.298   2.610   2.624 -1.5782  0.4302 -2.7297
11766TIP3   OH256788   0.706   6.587  11.850  0.1366 -0.3778  0.0389
11766TIP3    H156789   0.664   6.639  11.781  0.4318 -0.3941 -0.1522
11766TIP3    H256790   0.645   6.514  11.864 -0.7610  0.5230  0.9975
11767TIP3   OH256791   0.920   5.439   0.134  0.1255  0.3437  0.2987
11767TIP3    H156792   0.903   5.506   0.068  0.7699  0.1624 -0.0585
11767TIP3    H256793   1.011   5.454   0.161 -0.3371  0.8487  1.6464
11768TIP3   OH256794   1.802   6.140   6.124 -0.6296  0.4063  0.5869
11768TIP3    H156795   1.813   6.055   6.166 -0.7569 -0.8341 -1.7392
11768TIP3    H256796   1.882   6.152   6.073 -0.8355  1.4623  0.4807
11769TIP3   OH256797   3.388   6.370  11.162 -0.3610  0.5495  0.2754
11769TIP3    H156798   3.413   6.462  11.164  1.4427  0.0729  1.3142
11769TIP3    H256799   3.293   6.371  11.145 -0.1534  2.5193 -1.0206
11770TIP3   OH256800   5.000   3.100   0.740  0.0238 -0.8684  0.0870
11770TIP3    H156801   5.084   3.053   0.731 -0.1630 -1.4033  0.9519
11770TIP3    H256802   4.953   3.050   0.807 -1.2783 -0.9846 -0.8708
11771TIP3   OH256803   1.555   1.956   2.841 -0.2440 -0.3180 -0.6896
11771TIP3    H156804   1.515   1.921   2.921 -0.3994 -0.4196 -0.8131
11771TIP3    H256805   1.485   1.955   2.776  0.4779 -2.5593 -1.5466
11772TIP3   OH256806   0.933   0.799   0.735 -0.5934 -0.4506  0.0719
11772TIP3    H156807   0.907   0.888   0.709 -3.6690 -0.2734  2.9758
11772TIP3    H256808   1.027   0.805   0.751 -0.7368  2.3401  0.3573
11773TIP3   OH256809   2.435   1.839   4.502  0.3369  0.6363  0.8123
11773TIP3    H156810   2.437   1.780   4.578 -2.4317 -0.4554  0.1646
11773TIP3    H256811   2.373   1.907   4.526  0.7468  1.2445  0.1667
11774TIP3   OH256812   4.234   4.902  10.795 -0.3276  0.0844 -0.4793
11774TIP3    H156813   4.195   4.989  10.800 -2.6709 -0.9210  3.8493
11774TIP3    H256814   4.203   4.866  10.712  1.3096  3.4536 -2.7456
11775TIP3   OH256815   5.281   4.694  11.585 -0.1002  0.3355  0.5584
11775TIP3    H156816   5.204   4.675  11.639 -1.9211 -0.3882 -2.1369
11775TIP3    H256817   5.301   4.612  11.541  0.2350  1.2940 -1.1653
11776TIP3   OH256818   0.026   3.905   1.211 -0.2557 -0.3112 -0.2418
11776TIP3    H156819   0.002   3.958   1.135  2.0268  1.6446  0.2851
11776TIP3    H256820   0.121   3.895   1.204 -0.1524 -1.1347  1.7115
11777TIP3   OH256821   4.191   5.035   4.668  0.6879  0.5334  0.2792
11777TIP3    H156822   4.202   5.123   4.705  1.1941  0.1174  1.1432
11777TIP3    H256823   4.267   4.986   4.699  1.4294  0.2914 -1.7527
11778TIP3   OH256824   5.094   6.220   5.032 -0.0088  0.4751  0.2503
11778TIP3    H156825   5.041   6.237   5.110  0.5093 -0.9233  0.9629
11778TIP3    H256826   5.033   6.183   4.969  0.1471 -1.7179  1.2884
11779TIP3   OH256827   1.280   0.572  13.518  0.8879  0.3650 -0.0054
11779TIP3    H156828   1.249   0.600  13.432 -0.0208 -0.9590 -0.1420
11779TIP3    H256829   1.374   0.563  13.508  0.8501  0.7112 -0.7226
11780TIP3   OH256830   1.497   2.638  14.812  0.1182  0.1153  0.6465
11780TIP3    H156831   1.545   2.599  14.885  0.0110  0.3665  0.8539
11780TIP3    H256832   1.412   2.593  14.813  0.4645 -0.5792  0.0596
11781TIP3   OH256833   3.299   6.361   2.013 -0.0085  0.7827 -0.0601
11781TIP3    H156834   3.364   6.394   2.075 -0.6617 -0.8383  1.5701
11781TIP3    H256835   3.351   6.336   1.936  1.4193 -0.7694  1.3134
11782TIP3   OH256836   5.705   4.843  11.680 -0.0781 -0.1783 -0.2989
11782TIP3    H156837   5.765   4.800  11.741  0.0622 -0.4797 -0.6415
11782TIP3    H256838   5.758   4.912  11.640 -0.4447  0.6508  0.6116
11783TIP3   OH256839   4.279   1.680   0.009  0.0349  0.1027 -0.0657
11783TIP3    H156840   4.321   1.767   0.013  1.6246 -0.6049 -0.5637
11783TIP3    H256841   4.293   1.643   0.097 -0.6451  0.3357  0.1471
11784TIP3   OH256842   4.695   3.475  15.871 -0.0313  0.0298 -0.4604
11784TIP3    H156843   4.720   3.559  15.909  1.4652  0.1802 -1.6767
11784TIP3    H256844   4.719   3.482  15.779 -2.8530 -0.5793 -1.3498
11785TIP3   OH256845   1.314   4.669   0.031 -0.2117  0.3913 -0.2922
11785TIP3    H156846   1.373   4.686  -0.043 -0.7165  1.7621 -0.3990
11785TIP3    H256847   1.241   4.621  -0.007 -0.8437  1.7548 -0.8720
11786TIP3   OH256848   4.061   2.859  12.586 -0.5988  0.1314  0.3013
11786TIP3    H156849   4.105   2.845  12.670  1.6205 -0.6402 -0.9162
11786TIP3    H256850   4.084   2.949  12.563  2.2405 -0.8690 -1.2676
11787TIP3   OH256851   2.142   0.506  16.367 -0.0759 -0.1798  0.4427
11787TIP3    H156852   2.073   0.536  16.309  0.2281 -0.4770 -0.0732
11787TIP3    H256853   2.102   0.507  16.454  0.0505  2.2405  0.5605
11788TIP3   OH256854   3.679   4.264   1.957  0.3345 -0.5220  0.2983
11788TIP3    H156855   3.620   4.293   2.026 -3.9309 -1.5667 -2.5403
11788TIP3    H256856   3.667   4.169   1.954  1.6819 -0.6939 -0.8102
11789TIP3   OH256857   5.172   5.461   3.579 -0.0649  0.3371 -0.5392
11789TIP3    H156858   5.081   5.435   3.566 -0.1033  0.6473 -0.8864
11789TIP3    H256859   5.207   5.394   3.638 -0.5101  0.2049 -0.4177
11790TIP3   OH256860   0.083   2.743   4.371 -0.2479 -0.1306  0.6664
11790TIP3    H156861   0.135   2.785   4.303  0.0625  1.6247  1.9054
11790TIP3    H256862   0.039   2.670   4.327  2.6452 -1.2624 -0.6058
11791TIP3   OH256863   3.713   5.245  14.347 -0.0035  0.6462  0.1110
11791TIP3    H156864   3.662   5.167  14.367 -3.6399  2.5693 -0.7813
11791TIP3    H256865   3.713   5.251  14.252  0.2846  1.6836  0.1589
11792TIP3   OH256866   0.832   6.743  15.550 -0.2702  0.3561  0.0742
11792TIP3    H156867   0.904   6.758  15.489  0.1822 -2.2576 -0.1311
11792TIP3    H256868   0.753   6.759  15.498  0.1321  0.4635 -0.5116
11793TIP3   OH256869   5.938   2.658  15.695  0.1861  0.0265 -0.4540
11793TIP3    H156870   5.887   2.738  15.706 -0.5486 -0.4637 -0.2007
11793TIP3    H256871   5.980   2.668  15.610 -1.8570 -0.3688 -1.5855
11794TIP3   OH256872   5.885   4.123  12.001 -0.6192 -0.0838 -0.2627
11794TIP3    H156873   5.906   4.184  12.071 -2.4248 -0.5949  0.7872
11794TIP3    H256874   5.934   4.043  12.022 -0.2238  0.1614 -0.2554
11795TIP3   OH256875   0.239   1.118   4.481 -0.4376 -0.8037 -0.1352
11795TIP3    H156876   0.324   1.162   4.485 -0.0673 -1.6067  1.5986
11795TIP3    H256877   0.176   1.188   4.497 -0.1148 -0.2456 -1.2013
11796TIP3   OH256878   5.659   2.012   4.877 -0.6686 -0.3686  0.3625
11796TIP3    H156879   5.640   1.919   4.890  1.2962 -1.3146 -2.3947
11796TIP3    H256880   5.593   2.041   4.814 -1.0652  0.0405  0.9548
11797TIP3   OH256881   4.654   2.457  12.538 -0.0053  0.1745  0.0519
11797TIP3    H156882   4.721   2.512  12.497 -0.2627  0.4038 -0.0600
11797TIP3    H256883   4.646   2.491  12.627 -0.6764  0.7856 -0.2321
11798TIP3   OH256884   2.699   6.596  13.852  0.2093  0.0371  0.2207
11798TIP3    H156885   2.752   6.619  13.927 -0.1436 -0.0627  0.5044
11798TIP3    H256886   2.759   6.600  13.777  0.4868  0.4293  0.4653
11799TIP3   OH256887   1.898   2.899  17.029 -0.4995  0.6738 -0.4044
11799TIP3    H156888   1.808   2.875  17.009 -0.3704  1.5573 -2.1768
11799TIP3    H256889   1.951   2.843  16.974 -0.0057  0.9459 -0.2140
11800TIP3   OH256890   5.565   3.675   5.371 -0.2751 -0.1743 -0.1600
11800TIP3    H156891   5.603   3.684   5.458  0.3804  1.9003 -0.6213
11800TIP3    H256892   5.577   3.582   5.350  0.5420 -0.4834  1.5029
11801TIP3   OH256893   3.043   0.360  14.486 -0.1429 -0.7600  0.0734
11801TIP3    H156894   3.023   0.420  14.558  0.2934  1.2917 -1.4385
11801TIP3    H256895   3.125   0.317  14.511  0.2463  0.2732  0.5927
11802TIP3   OH256896   4.130   0.733  10.809 -0.2023  0.1231  0.1275
11802TIP3    H156897   4.085   0.649  10.814  1.5215 -0.8031  0.9291
11802TIP3    H256898   4.185   0.726  10.731 -1.1249  1.0969 -0.6361
11803TIP3   OH256899   3.026   5.628  15.827  0.2915 -0.4492  0.0989
11803TIP3    H156900   3.077   5.644  15.906  1.9667 -1.6075 -0.6940
11803TIP3    H256901   2.956   5.569  15.856 -1.3952  1.9849  1.4191
11804TIP3   OH256902   0.481   5.167   3.210 -0.3245 -0.3976  1.1327
11804TIP3    H156903   0.529   5.105   3.264 -0.7914 -0.4138  1.5393
11804TIP3    H256904   0.447   5.114   3.138  0.3919 -0.3537  0.7596
11805TIP3   OH256905   2.742   3.508  12.094  0.6814 -0.1434  0.5013
11805TIP3    H156906   2.741   3.490  12.188  0.8706  0.5302  0.6332
11805TIP3    H256907   2.834   3.508  12.070  1.0215  3.7117  1.1289
11806TIP3   OH256908   3.979   1.326   4.845 -0.1256 -0.6872 -0.6362
11806TIP3    H156909   4.058   1.341   4.898  0.4486 -1.5580 -1.2315
11806TIP3    H256910   4.005   1.349   4.756 -0.7989 -0.1841 -0.7130
11807TIP3   OH256911   6.473   6.241  14.582  0.3055 -0.2767  0.0614
11807TIP3    H156912   6.528   6.318  14.598  0.3898 -0.4352  0.5493
11807TIP3    H256913   6.463   6.200  14.668 -1.8263  0.5940  0.3139
11808TIP3   OH256914   3.995   2.208  14.652 -0.6652 -0.1296 -0.1797
11808TIP3    H156915   4.064   2.254  14.700 -0.3639  0.2470 -0.9664
11808TIP3    H256916   3.973   2.266  14.579  0.7557 -1.8284 -2.0615
11809TIP3   OH256917   2.873   4.465  15.807  0.2846 -0.2876 -0.4157
11809TIP3    H156918   2.837   4.532  15.865  0.2366  0.3731 -1.1831
11809TIP3    H256919   2.809   4.394  15.809  0.6219 -0.5860  0.8712
11810TIP3   OH256920   4.738   1.274   2.811  0.3159 -0.0355  0.1532
11810TIP3    H156921   4.697   1.188   2.820 -1.3154  0.7958  1.0532
11810TIP3    H256922   4.831   1.255   2.800  0.2420 -1.8804  2.0768
11811TIP3   OH256923   1.244   5.242  11.898 -0.1484 -0.3765  0.1211
11811TIP3    H156924   1.320   5.204  11.943  0.7968  1.7153  0.4166
11811TIP3    H256925   1.177   5.246  11.966 -0.1424 -1.1181  0.1843
11812TIP3   OH256926   1.942   1.369  14.073 -0.5592  0.9827 -0.6403
11812TIP3    H156927   1.858   1.392  14.033 -1.2912  1.2994  1.0212
11812TIP3    H256928   2.007   1.412  14.017 -1.5629  1.6411 -1.3329
11813TIP3   OH256929   5.979   5.587  13.420  0.0127 -0.0114  0.2585
11813TIP3    H156930   6.016   5.666  13.461  2.4084 -1.2359  0.6341
11813TIP3    H256931   5.903   5.619  13.371 -0.6940  2.1124  2.5186
11814TIP3   OH256932   1.421   2.595  10.678 -0.3213  0.6752 -0.3675
11814TIP3    H156933   1.405   2.549  10.596  2.9557  1.3303 -1.5290
11814TIP3    H256934   1.352   2.660  10.683 -1.1192  0.0209 -2.1523
11815TIP3   OH256935   6.783   3.438  16.663 -0.0112 -0.5167  0.3478
11815TIP3    H156936   6.866   3.396  16.687 -0.2230 -0.2909  1.5134
11815TIP3    H256937   6.770   3.413  16.572  1.5828 -0.1730 -0.0164
11816TIP3   OH256938   1.021   4.226  10.926  0.3080  0.3740 -0.2321
11816TIP3    H156939   0.991   4.171  10.854  0.6437  0.2641 -0.2895
11816TIP3    H256940   1.006   4.316  10.896 -0.0585  0.3209 -0.2179
11817TIP3   OH256941   6.202   0.566  13.093  0.5800 -0.0237 -0.0277
11817TIP3    H156942   6.147   0.578  13.170  0.3161 -1.3294  0.0120
11817TIP3    H256943   6.201   0.651  13.049 -1.0165  0.1375  0.2726
11818TIP3   OH256944   0.151   0.565   0.263  0.1301  0.2025 -0.2329
11818TIP3    H156945   0.069   0.549   0.310  0.7221  1.6976  1.4580
11818TIP3    H256946   0.154   0.660   0.251  0.2992 -0.0607 -2.8768
11819TIP3   OH256947   2.869   5.650  17.055  0.1373 -0.1192 -0.8209
11819TIP3    H156948   2.797   5.677  17.113  1.1284  0.1287  0.3217
11819TIP3    H256949   2.924   5.728  17.047  1.0174 -0.7074 -0.5656
11820TIP3   OH256950   2.472   6.756  11.819 -0.1922 -0.0609 -0.2692
11820TIP3    H156951   2.515   6.751  11.734 -0.7893  0.4958 -0.6092
11820TIP3    H256952   2.523   6.821  11.868  0.4742 -0.7723 -0.0026
11821TIP3   OH256953   3.491   5.848  16.160  0.1107 -0.0362  0.3969
11821TIP3    H156954   3.462   5.823  16.072  0.9643 -0.1894  0.1508
11821TIP3    H256955   3.585   5.828  16.161  0.2027  0.3992  1.1918
11822TIP3   OH256956   3.920   4.208  12.469 -0.2584  0.3135  0.0326
11822TIP3    H156957   3.982   4.270  12.508 -0.6792  0.8797 -0.1868
11822TIP3    H256958   3.926   4.131  12.524  0.3171  0.5242  0.2796
11823TIP3   OH256959   1.016   5.827   4.557  0.0399  0.0761  0.1698
11823TIP3    H156960   1.018   5.788   4.470  1.8647 -0.1797  0.2824
11823TIP3    H256961   1.108   5.830   4.584 -0.4511  0.5009  1.9338
11824TIP3   OH256962   3.559   4.127  13.159 -0.2278  0.0290 -0.5242
11824TIP3    H156963   3.612   4.203  13.135 -0.2331  0.1511 -0.1631
11824TIP3    H256964   3.485   4.129  13.099  1.0467 -1.1490 -2.2309
11825TIP3   OH256965   1.356   0.902   2.253 -0.0309 -0.1704  0.3031
11825TIP3    H156966   1.292   0.929   2.187 -1.3273  1.3517  2.0570
11825TIP3    H256967   1.413   0.978   2.264 -0.3594 -0.0646  1.4731
11826TIP3   OH256968   5.908   5.929  11.094  0.3333 -0.1354 -0.7802
11826TIP3    H156969   5.897   5.860  11.029 -0.6591 -0.2330 -0.5237
11826TIP3    H256970   5.922   6.009  11.042  0.6605 -0.3902 -1.0896
11827TIP3   OH256971   4.963   0.496  11.748  0.2470 -0.5080 -0.0164
11827TIP3    H156972   4.908   0.560  11.702  0.2743  0.0127  0.6497
11827TIP3    H256973   4.903   0.447  11.803  0.4951  0.4882  1.1980
11828TIP3   OH256974   4.794   5.534   0.799 -0.2405  0.3448 -0.0474
11828TIP3    H156975   4.843   5.508   0.721 -0.9396 -3.3634  0.5827
11828TIP3    H256976   4.723   5.589   0.765  0.2935 -0.0003 -1.8582
11829TIP3   OH256977   5.746   2.661  11.465  0.3719  0.0414 -0.4814
11829TIP3    H156978   5.679   2.703  11.411  0.3519 -1.5106 -1.7619
11829TIP3    H256979   5.706   2.578  11.492  1.2998 -0.3206 -0.1674
11830TIP3   OH256980   4.299   2.473   3.016  0.2729 -0.3205 -0.4308
11830TIP3    H156981   4.269   2.426   2.938 -1.0889 -0.5751  0.2081
11830TIP3    H256982   4.343   2.406   3.068 -2.6433 -1.2948  1.0011
11831TIP3   OH256983   0.443   0.698  16.347  0.4686  0.5744 -0.4249
11831TIP3    H156984   0.504   0.732  16.281 -1.1458  1.4320 -1.5501
11831TIP3    H256985   0.356   0.714  16.310 -0.4614 -1.3162  0.7660
11832TIP3   OH256986   2.616   4.858   1.935  0.4754  0.2378  0.1791
11832TIP3    H156987   2.615   4.874   2.030 -2.7706  1.0124  0.1404
11832TIP3    H256988   2.604   4.764   1.926  2.3879 -0.0710  0.4734
11833TIP3   OH256989   4.260   1.505  11.289  0.2531  0.7873  0.1047
11833TIP3    H156990   4.182   1.501  11.344  0.3062  0.5518  0.1636
11833TIP3    H256991   4.328   1.463  11.341 -0.3901 -2.2777 -1.3011
11834TIP3   OH256992   2.162   0.448  15.986 -0.0036  0.2766 -0.6013
11834TIP3    H156993   2.111   0.491  16.054 -0.8902  0.2874 -1.2549
11834TIP3    H256994   2.230   0.511  15.962  2.1257 -0.7668  2.2002
11835TIP3   OH256995   6.170   2.587  15.843  0.1559 -0.3074 -0.1150
11835TIP3    H156996   6.100   2.597  15.778  1.2898 -1.3631 -1.5766
11835TIP3    H256997   6.144   2.645  15.915 -0.7322  1.6080 -1.8593
11836TIP3   OH256998   0.407   4.284   6.558  0.0707 -0.4489  0.0549
11836TIP3    H156999   0.317   4.299   6.588  0.0936 -1.8756  0.9357
11836TIP3    H257000   0.461   4.299   6.636  0.5995  0.2310 -0.4282
11837TIP3   OH257001   1.435   2.276   1.538 -0.1136 -0.0710 -0.0097
11837TIP3    H157002   1.415   2.182   1.541 -0.0043 -0.1014 -0.2200
11837TIP3    H257003   1.463   2.297   1.627 -0.7285 -0.1041  0.1928
11838TIP3   OH257004   6.250   3.697   0.416  0.0360  0.0265 -0.1660
11838TIP3    H157005   6.161   3.725   0.439  0.7919  1.4515  1.2466
11838TIP3    H257006   6.291   3.775   0.379  0.7016 -0.6199 -0.8179
11839TIP3   OH257007   1.879   5.296   0.990  0.8991 -0.3187 -0.2454
11839TIP3    H157008   1.792   5.281   1.028  1.6419 -0.4472  1.4849
11839TIP3    H257009   1.870   5.266   0.899 -1.0343  0.2949 -0.3200
11840TIP3   OH257010   2.460   4.662   4.154  0.3185 -0.6055 -0.4965
11840TIP3    H157011   2.514   4.736   4.182  0.1797 -0.5480 -0.3821
11840TIP3    H257012   2.453   4.607   4.231  2.1416 -1.7931 -1.1150
11841TIP3   OH257013   0.346   3.569  14.424 -0.3586  0.0497  0.2856
11841TIP3    H157014   0.418   3.531  14.473 -0.2970 -0.3326 -0.0979
11841TIP3    H257015   0.277   3.503  14.426 -1.0060  0.7250  1.3214
11842TIP3   OH257016   5.499   6.377   5.874 -0.2726  0.1030  0.2146
11842TIP3    H157017   5.585   6.355   5.910 -0.4193 -0.1532  0.4127
11842TIP3    H257018   5.464   6.443   5.935  0.0603  0.7153 -0.2374
11843TIP3   OH257019   2.973   3.714   3.005  0.0519 -0.0964  0.9001
11843TIP3    H157020   3.023   3.731   3.084  1.5584 -0.3220  0.0269
11843TIP3    H257021   2.909   3.647   3.031  1.3977 -1.1461  1.6049
11844TIP3   OH257022   1.741   0.242   2.953  0.0251  0.1025 -0.2635
11844TIP3    H157023   1.749   0.147   2.963  0.1720  0.2269  0.8970
11844TIP3    H257024   1.669   0.266   3.012 -1.1534  0.5139 -1.7945
11845TIP3   OH257025   6.480   6.246  16.044 -0.6367  0.3279  0.3378
11845TIP3    H157026   6.546   6.210  16.103 -1.5094 -0.5610  0.7942
11845TIP3    H257027   6.441   6.319  16.093  0.8169  1.6897 -0.4153
11846TIP3   OH257028   1.458   0.081  14.291 -0.2130  0.1564 -0.3876
11846TIP3    H157029   1.525   0.025  14.331  0.1558  0.9561  0.1337
11846TIP3    H257030   1.381   0.070  14.347  0.2600  1.1695  0.4926
11847TIP3   OH257031   4.782   6.373  14.508  0.1778  0.2513  0.6258
11847TIP3    H157032   4.740   6.298  14.465  1.4537 -1.2147  1.8300
11847TIP3    H257033   4.728   6.390  14.585  0.5248 -0.2068  0.9786
11848TIP3   OH257034   1.974   3.874  15.159  0.1179 -0.2237  0.2280
11848TIP3    H157035   2.036   3.820  15.110 -0.0626 -0.5020  0.3099
11848TIP3    H257036   1.889   3.835  15.142 -0.1288  0.5774 -0.4684
11849TIP3   OH257037   2.521   5.140  17.065  0.1683 -0.3878 -0.1477
11849TIP3    H157038   2.438   5.139  17.113  0.1046  1.1037 -0.1848
11849TIP3    H257039   2.581   5.187  17.122  0.7077 -0.5650 -0.5633
11850TIP3   OH257040   4.884   1.743  15.675  0.1148 -0.5045 -0.3436
11850TIP3    H157041   4.937   1.703  15.606  1.3601 -0.1112  0.3501
11850TIP3    H257042   4.845   1.670  15.722  0.3974 -0.8203 -0.5978
11851TIP3   OH257043   5.130   2.594   6.162 -0.2582 -0.1322 -0.4546
11851TIP3    H157044   5.096   2.638   6.240 -1.1564 -0.1466 -0.8291
11851TIP3    H257045   5.176   2.517   6.196 -0.4203  0.0007  0.0706
11852TIP3   OH257046   0.328   3.169   5.186  0.0253 -0.2318 -0.4988
11852TIP3    H157047   0.287   3.101   5.238  1.0657 -0.1149  0.5191
11852TIP3    H257048   0.330   3.246   5.244  0.1920  0.2347 -1.1073
11853TIP3   OH257049   6.305   5.724  12.354  0.1769 -0.4265 -0.3685
11853TIP3    H157050   6.304   5.770  12.270 -0.6378 -0.5637 -0.4448
11853TIP3    H257051   6.398   5.718  12.377  0.4575 -0.9665 -1.5737
11854TIP3   OH257052   6.100   0.855  14.335 -0.1926  0.0780 -0.1682
11854TIP3    H157053   6.185   0.844  14.377  0.1042 -1.4599 -1.0947
11854TIP3    H257054   6.068   0.939  14.368  1.4266  0.4339  0.6177
11855TIP3   OH257055   6.511   3.330  14.922 -0.3551  0.0665 -0.6011
11855TIP3    H157056   6.462   3.383  14.985  2.6821  1.3132  0.9463
11855TIP3    H257057   6.497   3.374  14.838 -1.9005  0.2797 -0.2681
11856TIP3   OH257058   5.459   1.342   1.402 -0.2240  0.0119 -0.1618
11856TIP3    H157059   5.517   1.404   1.446 -0.9437  0.8694 -0.4035
11856TIP3    H257060   5.436   1.384   1.319 -0.0515 -0.9491 -0.7187
11857TIP3   OH257061   3.093   2.634  12.353  0.7167  0.3870 -0.0371
11857TIP3    H157062   3.073   2.569  12.286  1.0989  0.2990 -0.0704
11857TIP3    H257063   3.033   2.707  12.335 -1.4562 -0.9092  1.4992
11858TIP3   OH257064   4.931   4.297   3.942  0.0740  0.0033 -0.5173
11858TIP3    H157065   4.972   4.224   3.989  0.1143  0.4441  0.1485
11858TIP3    H257066   4.924   4.367   4.007  2.9572  1.7757 -1.9027
11859TIP3   OH257067   4.272   3.164  14.468  0.0992 -0.1152 -0.2832
11859TIP3    H157068   4.293   3.149  14.375 -2.2307 -1.7632 -0.6484
11859TIP3    H257069   4.176   3.165  14.470  0.1080  1.0335  1.9823
11860TIP3   OH257070   3.258   5.201   4.733  0.3970  0.3166 -0.3019
11860TIP3    H157071   3.347   5.236   4.726  1.1309 -0.8497  2.0929
11860TIP3    H257072   3.265   5.112   4.698  0.3855 -0.0342  0.5603
11861TIP3   OH257073   1.778   5.932   4.848 -0.3023 -0.0535  0.3020
11861TIP3    H157074   1.803   5.976   4.767 -0.4627  1.8008  1.2142
11861TIP3    H257075   1.747   5.846   4.820  2.9566 -0.8734 -1.2760
11862TIP3   OH257076   4.444   0.468  16.058 -0.1273 -0.1032  0.0789
11862TIP3    H157077   4.403   0.395  16.011 -1.3400  1.2324 -1.0121
11862TIP3    H257078   4.412   0.459  16.148  2.0103 -2.5310  0.7417
11863TIP3   OH257079   2.998   1.136  13.190  0.9394  0.4061  0.8118
11863TIP3    H157080   2.957   1.105  13.109  0.9059  0.4580  0.8085
11863TIP3    H257081   2.945   1.211  13.216  0.4293 -0.1260  1.3489
11864TIP3   OH257082   3.863   3.298   5.627 -0.1380 -0.6276  0.3509
11864TIP3    H157083   3.859   3.393   5.640  2.1007 -0.4129 -0.1321
11864TIP3    H257084   3.788   3.264   5.676 -0.4593  1.3131  1.3031
11865TIP3   OH257085   6.386   6.432   4.053 -0.3453  0.5552  0.3098
11865TIP3    H157086   6.410   6.341   4.039  0.0086  0.5331  1.0392
11865TIP3    H257087   6.461   6.470   4.098 -1.1439  0.8129  1.4514
11866TIP3   OH257088   2.697   3.617   3.167 -0.5063 -0.4108 -0.6000
11866TIP3    H157089   2.711   3.532   3.208 -0.5934 -0.6098 -0.9798
11866TIP3    H257090   2.642   3.599   3.091 -2.5131  0.2762  0.5876
11867TIP3   OH257091   5.813   4.394  13.829 -0.7631 -0.5726 -0.6694
11867TIP3    H157092   5.829   4.470  13.773 -1.1911  0.4188  0.5286
11867TIP3    H257093   5.724   4.366  13.806 -0.9538 -0.1454 -0.4565
11868TIP3   OH257094   1.869   0.618   0.494  0.5544  0.2700 -0.7591
11868TIP3    H157095   1.906   0.539   0.534  2.1803  1.0381 -0.6774
11868TIP3    H257096   1.821   0.660   0.565  1.9741  0.7327 -0.0388
11869TIP3   OH257097   6.645   6.527   4.666  0.3422 -0.3315 -0.2775
11869TIP3    H157098   6.669   6.524   4.759  0.5091 -1.0573 -0.3435
11869TIP3    H257099   6.719   6.570   4.623  1.2979 -2.0107 -0.3933
11870TIP3   OH257100   4.052   5.204  15.501 -0.0264  0.1001  0.0185
11870TIP3    H157101   3.984   5.236  15.442  0.5263  1.6116  0.1478
11870TIP3    H257102   4.022   5.117  15.529 -0.6157 -0.3747 -1.9570
11871TIP3   OH257103   0.772   0.054  13.891 -0.1906 -0.7938  0.4632
11871TIP3    H157104   0.802  -0.014  13.951 -1.2017 -0.7422  1.0443
11871TIP3    H257105   0.755   0.129  13.946 -1.4480 -0.8464  0.1691
11872TIP3   OH257106   1.970   2.597   0.746  0.0482  0.0226 -0.3097
11872TIP3    H157107   1.985   2.678   0.697 -1.8820  1.6408  1.5562
11872TIP3    H257108   1.879   2.575   0.728 -0.2197 -0.2326  1.2509
11873TIP3   OH257109   4.096   2.227  13.103 -0.0064  0.1041 -0.0363
11873TIP3    H157110   4.022   2.184  13.146  1.2278  0.0847  2.1891
11873TIP3    H257111   4.158   2.156  13.087  1.1623  0.6703  1.7510
11874TIP3   OH257112   6.805   5.735   1.252 -0.2773  0.0622 -0.3825
11874TIP3    H157113   6.760   5.759   1.172 -0.2391 -1.9030 -1.0617
11874TIP3    H257114   6.773   5.647   1.272  1.0202 -0.1980  0.7707
11875TIP3   OH257115   1.053   4.631  16.033  0.1833  0.1611  0.8634
11875TIP3    H157116   1.076   4.618  16.125  0.6989 -1.8810  0.5116
11875TIP3    H257117   0.960   4.651  16.033 -0.3794 -2.1922  1.7429
11876TIP3   OH257118   3.108   5.364  12.580 -0.8763 -0.2287  0.0787
11876TIP3    H157119   3.159   5.305  12.524  0.5258 -1.0214  2.0595
11876TIP3    H257120   3.018   5.353  12.550 -0.3217 -1.4336 -1.2979
11877TIP3   OH257121   4.797   5.729  16.742  0.4420  0.1162  0.1599
11877TIP3    H157122   4.846   5.730  16.660  1.1541  1.9397  0.5527
11877TIP3    H257123   4.769   5.820  16.754 -0.5289 -0.3211  1.4348
11878TIP3   OH257124   0.575   3.946  16.969  0.1546  0.4799 -0.2384
11878TIP3    H157125   0.501   3.914  17.021  1.6777 -1.6070  0.7839
11878TIP3    H257126   0.536   3.972  16.885 -2.0344  1.7223  1.0573
11879TIP3   OH257127   3.526   0.167  15.645 -0.1570  0.5778  0.6198
11879TIP3    H157128   3.478   0.222  15.583 -0.8961 -0.2078  0.4808
11879TIP3    H257129   3.553   0.228  15.714  0.1252  1.3466 -0.1386
11880TIP3   OH257130   6.180   5.850   3.350  0.2700 -0.0076  0.6383
11880TIP3    H157131   6.251   5.911   3.368 -0.4507  0.6595  1.2783
11880TIP3    H257132   6.101   5.894   3.381 -0.5291 -0.4478 -0.6386
11881TIP3   OH257133   0.409   0.518  14.422  0.2680  0.0722 -0.4703
11881TIP3    H157134   0.394   0.606  14.457 -1.0964 -0.5948  0.7278
11881TIP3    H257135   0.355   0.513  14.344  1.5795  0.8050 -1.4619
11882TIP3   OH257136   1.912   3.412  16.616 -0.5604  0.1873 -0.1373
11882TIP3    H157137   1.952   3.471  16.680 -2.2689  0.4074  0.7661
11882TIP3    H257138   1.987   3.376  16.567  0.9561 -1.0292  2.8150
11883TIP3   OH257139   6.832   1.642  15.166 -0.2740  0.4341 -0.2178
11883TIP3    H157140   6.740   1.669  15.159  0.4170  3.3622  0.6875
11883TIP3    H257141   6.881   1.714  15.128  1.7192 -0.5508  0.3769
11884TIP3   OH257142   5.901   0.173  11.077 -0.1670  0.5965  0.2076
11884TIP3    H157143   5.929   0.255  11.036 -0.8012  1.3447  1.2363
11884TIP3    H257144   5.813   0.158  11.043  0.0555  0.1711 -0.2011
11885TIP3   OH257145   5.691   3.664  14.436  0.0140 -0.3907 -0.7918
11885TIP3    H157146   5.782   3.658  14.463 -0.5604  1.2576  2.0005
11885TIP3    H257147   5.693   3.712  14.353  1.6808 -0.3538 -0.7598
11886TIP3   OH257148   0.460   0.987  12.179  0.7593  0.4618  0.2443
11886TIP3    H157149   0.455   1.066  12.232  0.0896 -0.2391  1.2626
11886TIP3    H257150   0.550   0.956  12.189  0.2221 -0.5734  2.3790
11887TIP3   OH257151   2.470   3.256   2.548 -0.2243 -0.1821 -0.1787
11887TIP3    H157152   2.515   3.187   2.499 -0.2985 -0.6512  0.3934
11887TIP3    H257153   2.539   3.299   2.598 -0.3924 -0.9808  0.7930
11888TIP3   OH257154   0.656   1.890   4.368 -0.6403 -0.8809 -1.0368
11888TIP3    H157155   0.708   1.966   4.343  1.0337 -0.8289  2.1256
11888TIP3    H257156   0.565   1.920   4.364  0.0105  1.9624  1.7441
11889TIP3   OH257157   1.949   0.333  11.874  0.1833 -0.1163  0.6594
11889TIP3    H157158   1.963   0.268  11.943 -0.7647  0.3774  1.3253
11889TIP3    H257159   1.956   0.282  11.793  1.4918 -0.6660  1.0863
11890TIP3   OH257160   4.275   1.517   2.045 -0.1374  0.4358  0.1925
11890TIP3    H157161   4.334   1.562   1.985  0.1955 -0.0353  0.1642
11890TIP3    H257162   4.247   1.439   1.997 -2.4884  1.6942 -0.6804
11891TIP3   OH257163   5.221   0.592  13.618 -0.0820  0.4774  0.3599
11891TIP3    H157164   5.261   0.644  13.687 -1.4826  1.0094  0.8182
11891TIP3    H257165   5.134   0.631  13.606 -0.0654  0.0554 -1.3393
11892TIP3   OH257166   2.541   1.173   1.995 -0.5158 -0.0724 -0.0612
11892TIP3    H157167   2.620   1.165   2.048 -0.6544 -0.3326  0.1108
11892TIP3    H257168   2.569   1.148   1.907 -0.9751 -2.9131  0.4940
11893TIP3   OH257169   2.188   5.226  14.431 -0.1085  0.6432 -0.2570
11893TIP3    H157170   2.187   5.133  14.456  0.6687  0.7919  0.3524
11893TIP3    H257171   2.237   5.228  14.348 -0.9410  0.4008 -0.7666
11894TIP3   OH257172   2.332   0.513   5.400  0.2383 -0.2785 -0.0502
11894TIP3    H157173   2.315   0.502   5.307 -0.2045 -1.5485  0.1581
11894TIP3    H257174   2.251   0.548   5.436  0.0748 -0.6842 -0.0094
11895TIP3   OH257175   5.662   5.633  14.516 -0.2089 -0.3108  0.3780
11895TIP3    H157176   5.596   5.608  14.581 -0.4178  0.0404  0.3036
11895TIP3    H257177   5.669   5.557  14.459 -1.2903  0.0138 -0.2119
11896TIP3   OH257178   5.388   3.218   6.418 -0.2067  0.2004 -0.5161
11896TIP3    H157179   5.434   3.185   6.496  2.0236  1.3090 -1.2787
11896TIP3    H257180   5.336   3.292   6.450 -3.4359 -2.3624  0.7765
11897TIP3   OH257181   2.831   6.036   0.312  0.7342  0.5538  0.0369
11897TIP3    H157182   2.903   6.096   0.294  0.2129  1.4145  0.7270
11897TIP3    H257183   2.835   6.021   0.406  1.9241 -1.9239 -0.3160
11898TIP3   OH257184   0.682   3.766   3.550  0.5081  0.3140  0.5660
11898TIP3    H157185   0.669   3.846   3.498 -0.0765 -0.1485 -0.0218
11898TIP3    H257186   0.772   3.771   3.581  0.7674  0.7555 -0.2380
11899TIP3   OH257187   6.821   2.862   3.416 -0.6270 -0.0900  0.3361
11899TIP3    H157188   6.860   2.811   3.345  0.4060  2.2211 -0.8341
11899TIP3    H257189   6.742   2.900   3.378  0.6792  2.3399 -0.1457
11900TIP3   OH257190   2.398   2.568   0.877 -0.1114 -0.2990 -0.0978
11900TIP3    H157191   2.424   2.643   0.824 -0.7050  1.3051  1.7669
11900TIP3    H257192   2.457   2.498   0.850  1.2796  1.1776 -1.0461
11901TIP3   OH257193   0.314   0.349  16.616  0.1996 -0.7965  0.4704
11901TIP3    H157194   0.318   0.334  16.522 -0.0749 -0.4074  0.3922
11901TIP3    H257195   0.326   0.444  16.625 -0.7359 -0.6924  0.7596
11902TIP3   OH257196   6.431   2.079   5.844  0.3293 -0.5460 -0.2189
11902TIP3    H157197   6.355   2.099   5.898  0.2546 -0.3333 -0.4011
11902TIP3    H257198   6.394   2.056   5.759  0.4751 -0.3669 -0.3290
11903TIP3   OH257199   4.193   1.104   3.820  0.4035 -0.8113  0.2770
11903TIP3    H157200   4.192   1.146   3.906  1.2840 -1.7298  0.7571
11903TIP3    H257201   4.101   1.088   3.799 -0.4258  4.3446 -1.4905
11904TIP3   OH257202   5.215   0.550   4.399  0.3254  0.0082 -0.3507
11904TIP3    H157203   5.295   0.540   4.451  0.3176 -1.7670 -0.6345
11904TIP3    H257204   5.233   0.624   4.341  1.8538 -0.5055 -0.5669
11905TIP3   OH257205   0.912   1.572  14.541  0.0455 -0.7402  0.1502
11905TIP3    H157206   0.826   1.539  14.516 -0.1406  1.1155 -1.8952
11905TIP3    H257207   0.896   1.661  14.572  1.2355 -0.2568 -0.5415
11906TIP3   OH257208   6.374   6.096  16.870 -0.2782  0.0456  0.0690
11906TIP3    H157209   6.420   6.155  16.929  2.4270 -2.0147  0.2302
11906TIP3    H257210   6.440   6.068  16.807 -1.8549 -1.5031 -1.0114
11907TIP3   OH257211   5.040   2.858   4.682 -0.1066  0.1953 -0.2927
11907TIP3    H157212   5.086   2.776   4.700 -0.9860 -0.4532 -0.9295
11907TIP3    H257213   5.103   2.911   4.633 -0.2557 -0.9619 -1.7887
11908TIP3   OH257214   2.248   4.715  13.472 -0.0462  0.8549 -0.2160
11908TIP3    H157215   2.282   4.737  13.385  1.9860 -0.9091  0.0425
11908TIP3    H257216   2.312   4.752  13.533 -1.0506  1.4253  0.5193
11909TIP3   OH257217   6.176   5.074   1.940 -0.2466 -0.2768  0.1040
11909TIP3    H157218   6.234   5.001   1.914 -1.0782 -0.6349 -0.8291
11909TIP3    H257219   6.235   5.137   1.982  0.7083 -0.9284 -0.2025
11910TIP3   OH257220   3.179   3.038   5.924  0.5989  0.5428 -0.4753
11910TIP3    H157221   3.214   2.969   5.981 -1.0856  0.3941  0.4518
11910TIP3    H257222   3.152   3.108   5.985 -0.0325  0.9407 -1.1943
11911TIP3   OH257223   3.264   5.746  15.160 -0.2527 -0.0823  0.4017
11911TIP3    H157224   3.260   5.730  15.254  1.3443  0.9267  0.6838
11911TIP3    H257225   3.331   5.687  15.127 -1.0641 -0.6988 -0.1897
11912TIP3   OH257226   6.586   2.081  16.881  0.1695 -0.1619 -0.2899
11912TIP3    H157227   6.611   2.135  16.955 -0.4360  0.4816 -0.5438
11912TIP3    H257228   6.665   2.030  16.861  0.5589  0.1862  0.3287
11913TIP3   OH257229   3.942   6.650  16.939  0.0365 -0.5824 -0.4335
11913TIP3    H157230   3.961   6.730  16.889 -1.0063  0.6768  1.0704
11913TIP3    H257231   3.893   6.595  16.879 -2.2102  1.3652 -0.5188
11914TIP3   OH257232   6.183   0.758  11.640 -0.3086  0.3470 -0.0732
11914TIP3    H157233   6.111   0.787  11.697  1.2466 -0.1142  2.2510
11914TIP3    H257234   6.256   0.816  11.662  1.0379 -1.3541  0.2020
11915TIP3   OH257235   4.898   0.388   5.856  0.1375 -0.0070 -0.0454
11915TIP3    H157236   4.890   0.483   5.852 -1.3431 -0.1147 -0.2280
11915TIP3    H257237   4.941   0.370   5.940 -2.8232  0.6964  1.7499
11916TIP3   OH257238   6.811   4.728   1.598 -0.0825 -0.3072 -0.5645
11916TIP3    H157239   6.866   4.786   1.545 -1.5026  1.5645 -0.0727
11916TIP3    H257240   6.773   4.785   1.665 -2.1958 -1.6116 -0.5550
11917TIP3   OH257241   3.916   4.151   2.819  0.0544 -0.2981 -0.3154
11917TIP3    H157242   3.883   4.234   2.784  1.0532 -0.2385 -1.1888
11917TIP3    H257243   3.941   4.101   2.741 -0.1017 -1.2404  0.2229
11918TIP3   OH257244   3.346   2.760  12.408  0.4945  0.2529 -0.5994
11918TIP3    H157245   3.360   2.845  12.367  2.4940 -0.4456 -1.4992
11918TIP3    H257246   3.277   2.719  12.355 -0.5698  1.3078 -0.0873
11919TIP3   OH257247   2.604   5.693  12.681 -0.4071 -0.1929 -0.4600
11919TIP3    H157248   2.532   5.714  12.623 -0.9164 -1.9592 -0.5284
11919TIP3    H257249   2.599   5.758  12.751 -2.9625 -1.1071  0.2935
11920TIP3   OH257250   6.285   3.205  14.204 -0.4162  0.6640  0.2628
11920TIP3    H157251   6.193   3.206  14.176 -0.2794 -1.4968 -0.4429
11920TIP3    H257252   6.285   3.252  14.288 -2.7821 -1.9683  1.9180
11921TIP3   OH257253   5.380   3.948  11.501 -0.8054  0.3881  0.0782
11921TIP3    H157254   5.303   3.957  11.557 -1.0074  1.9518 -0.3965
11921TIP3    H257255   5.454   3.969  11.558 -0.9411  1.1436 -0.0061
11922TIP3   OH257256   2.883   6.790  15.356 -0.4891  0.7523  0.9005
11922TIP3    H157257   2.793   6.756  15.353 -0.5020  0.7077  1.4997
11922TIP3    H257258   2.930   6.726  15.410  0.4429 -0.4115 -1.1952
11923TIP3   OH257259   4.027   0.568  11.838 -0.3241  0.4543  0.1604
11923TIP3    H157260   3.957   0.597  11.897 -0.3336  0.6322  0.0600
11923TIP3    H257261   4.064   0.491  11.882 -1.0989 -0.1187 -0.1499
11924TIP3   OH257262   5.689   6.654  12.427 -0.3548 -0.3053  0.6558
11924TIP3    H157263   5.652   6.728  12.379  3.4187  1.4139  0.0099
11924TIP3    H257264   5.679   6.678  12.519 -1.1912 -0.1247  0.5264
11925TIP3   OH257265   6.426   6.187   3.982 -0.1370  0.1738 -0.5286
11925TIP3    H157266   6.512   6.171   3.944  0.3733 -0.3503  0.7690
11925TIP3    H257267   6.394   6.100   4.007 -0.1215  0.5402  0.8748
11926TIP3   OH257268   6.730   3.196  14.360  0.2174  0.0850  0.0823
11926TIP3    H157269   6.811   3.153  14.389  0.8357  0.6480 -0.7637
11926TIP3    H257270   6.666   3.125  14.356  1.1166 -0.7188 -0.8690
11927TIP3   OH257271   3.748   4.576  13.514  0.6278 -0.3634 -0.0620
11927TIP3    H157272   3.665   4.604  13.476 -0.5010 -1.5789  1.3510
11927TIP3    H257273   3.755   4.483  13.491  1.0870 -0.5203  0.6523
11928TIP3   OH257274   2.221   0.533   6.556 -0.1584 -0.7733 -0.1093
11928TIP3    H157275   2.309   0.529   6.519 -0.2857  0.0130 -0.5315
11928TIP3    H257276   2.224   0.608   6.616 -0.4036 -1.0493  0.2521
11929TIP3   OH257277   0.059   0.419   3.348  0.0222 -0.4107 -0.1488
11929TIP3    H157278   0.067   0.490   3.283  4.2675  0.9392  1.5098
11929TIP3    H257279   0.051   0.340   3.295 -3.4980  0.9890 -2.0920
11930TIP3   OH257280   5.254   0.770  16.305 -0.3021  1.0800 -0.1855
11930TIP3    H157281   5.188   0.826  16.264  0.8473  0.8447 -2.5771
11930TIP3    H257282   5.308   0.740  16.231  0.1335 -1.8444  1.1841
11931TIP3   OH257283   5.816   3.941   2.795  0.0168  0.1376 -0.4016
11931TIP3    H157284   5.896   3.892   2.812 -1.5420 -2.0033  1.2666
11931TIP3    H257285   5.804   3.935   2.700  1.5969  0.2074 -0.6316
11932TIP3   OH257286   5.075   2.594   4.844 -0.0541  0.2833  0.0270
11932TIP3    H157287   5.076   2.561   4.934  0.9193  0.3667  0.0569
11932TIP3    H257288   5.045   2.520   4.792 -0.9186  0.3256  0.4480
11933TIP3   OH257289   0.139   6.066  14.196  0.1022  0.8252  0.4000
11933TIP3    H157290   0.114   5.983  14.237  0.0999  2.1206  3.2791
11933TIP3    H257291   0.056   6.106  14.171  0.0830  0.1676 -0.6586
11934TIP3   OH257292   1.429   6.326  11.499 -0.3204  0.0261 -0.8144
11934TIP3    H157293   1.388   6.241  11.515 -0.9043  0.3920 -0.3405
11934TIP3    H257294   1.437   6.366  11.585  1.0125 -0.0190 -0.9019
11935TIP3   OH257295   5.516   2.795   0.014 -0.2337  0.1349 -0.2984
11935TIP3    H157296   5.461   2.866  -0.018  1.4235  1.5676 -0.1071
11935TIP3    H257297   5.510   2.727  -0.053  1.0859  1.9970 -2.4627
11936TIP3   OH257298   1.443   0.880   1.070  0.5712 -0.4824  0.0775
11936TIP3    H157299   1.429   0.941   1.142 -0.0748 -0.3656 -0.1367
11936TIP3    H257300   1.365   0.825   1.070 -0.4346  0.8119 -1.7698
11937TIP3   OH257301   4.836   4.950  14.560  0.2076 -0.7759 -0.0303
11937TIP3    H157302   4.742   4.937  14.550 -0.1889  1.2814  0.4635
11937TIP3    H257303   4.843   5.026  14.619  2.1600 -0.5288 -0.5107
11938TIP3   OH257304   2.109   5.016  16.345  0.0451 -0.2781 -0.2571
11938TIP3    H157305   2.104   4.936  16.294 -0.0973 -0.8044  0.5616
11938TIP3    H257306   2.086   4.989  16.434 -1.6719  0.9887 -0.2788
11939TIP3   OH257307   0.909   5.233  14.975 -0.6021 -0.0712 -0.2345
11939TIP3    H157308   0.889   5.294  15.046 -1.2408 -0.4200 -0.0991
11939TIP3    H257309   0.933   5.152  15.020  2.6542  0.7211 -0.3592
11940TIP3   OH257310   4.216   0.330   1.776 -0.0453 -0.0918 -0.7568
11940TIP3    H157311   4.230   0.272   1.700 -0.5967 -1.0459 -0.1520
11940TIP3    H257312   4.122   0.322   1.795  0.0854  0.1554  0.0131
11941TIP3   OH257313   5.456   1.231   1.901  0.3137  0.4241 -0.9156
11941TIP3    H157314   5.501   1.163   1.951  0.1604  1.4906  0.7374
11941TIP3    H257315   5.472   1.208   1.809  2.6243 -0.2766 -0.3912
11942TIP3   OH257316   1.851   4.250  12.590 -0.3509 -0.0788 -0.4326
11942TIP3    H157317   1.774   4.283  12.543 -1.6496  0.3392  1.8427
11942TIP3    H257318   1.883   4.326  12.639  1.0060 -0.4892 -0.6291
11943TIP3   OH257319   1.151   6.566  16.254  0.2938  0.1128  0.2225
11943TIP3    H157320   1.224   6.558  16.192 -0.7286 -1.7986 -0.8429
11943TIP3    H257321   1.187   6.532  16.336  0.0364 -3.3071 -0.8969
11944TIP3   OH257322   2.929   0.587  13.505 -0.5834  0.0153 -0.1684
11944TIP3    H157323   2.889   0.513  13.550 -0.4687  0.6149  0.9731
11944TIP3    H257324   3.003   0.612  13.561 -0.7511  1.1231 -0.4132
11945TIP3   OH257325   3.844   2.029  15.895  0.3794  0.5404  0.0571
11945TIP3    H157326   3.786   2.051  15.968 -1.7121 -1.5178 -0.8585
11945TIP3    H257327   3.931   2.050  15.927 -0.7166  2.8369  1.8991
11946TIP3   OH257328   2.355   6.629   2.754  0.3180 -0.2856 -0.5510
11946TIP3    H157329   2.289   6.698   2.744 -1.3444 -1.4694  1.3467
11946TIP3    H257330   2.350   6.579   2.672  0.6142  1.0240 -1.4062
11947TIP3   OH257331   1.730   6.669   5.228 -0.4011  0.0084  0.1002
11947TIP3    H157332   1.635   6.661   5.232 -0.4521  0.5750  0.0921
11947TIP3    H257333   1.763   6.580   5.246 -0.8805  0.1697  1.9847
11948TIP3   OH257334   3.427   4.306  16.267  0.5179  0.5039  0.1335
11948TIP3    H157335   3.384   4.282  16.184 -1.3523 -1.5585  1.5913
11948TIP3    H257336   3.491   4.236  16.281  2.4451  2.0291 -0.5745
11949TIP3   OH257337   3.701   1.396   4.422  0.3055  0.0241 -0.2634
11949TIP3    H157338   3.667   1.439   4.344  0.5640  0.4987 -0.1196
11949TIP3    H257339   3.713   1.305   4.396  1.4450  0.4018 -1.1241
11950TIP3   OH257340   6.459   3.763   2.474  0.2751  0.6791 -0.3076
11950TIP3    H157341   6.489   3.789   2.387  0.8943  1.1139  0.0351
11950TIP3    H257342   6.489   3.672   2.483 -0.1253  0.5002 -0.6900
11951TIP3   OH257343   5.305   5.302   5.082  0.7074  0.3649  0.0949
11951TIP3    H157344   5.210   5.289   5.083  0.8692 -0.9328  0.3257
11951TIP3    H257345   5.319   5.370   5.016 -0.1724 -1.6190 -2.3094
11952TIP3   OH257346   3.731   6.601  15.410  0.1351 -0.4558  0.3860
11952TIP3    H157347   3.699   6.593  15.500 -0.3896 -2.6944  0.0470
11952TIP3    H257348   3.670   6.663  15.369  1.1720  1.6635  1.8534
11953TIP3   OH257349   6.082   5.591  11.625 -0.4157 -0.3241 -0.2031
11953TIP3    H157350   6.039   5.667  11.586  0.3402 -0.0798 -0.5920
11953TIP3    H257351   6.065   5.599  11.719  2.2253  2.1183  0.2176
11954TIP3   OH257352   5.628   5.021   2.081  0.0012 -0.0503 -0.0578
11954TIP3    H157353   5.540   4.983   2.079 -0.4673  0.4889  3.4046
11954TIP3    H257354   5.621   5.095   2.141  2.0536  2.4039 -2.5788
11955TIP3   OH257355   3.744   3.595   2.709 -0.3848  0.1567 -0.0425
11955TIP3    H157356   3.779   3.681   2.689  0.6384 -0.1763  0.2602
11955TIP3    H257357   3.673   3.583   2.646  0.2184  0.7393 -0.8541
11956TIP3   OH257358   4.117   3.037   2.196 -0.2694 -0.6537  0.4317
11956TIP3    H157359   4.159   3.037   2.282 -1.7242 -1.3632  1.1807
11956TIP3    H257360   4.092   3.128   2.180 -0.3051 -0.5752  0.9276
11957TIP3   OH257361   4.496   6.214   1.027 -0.4502  0.0363 -0.0326
11957TIP3    H157362   4.553   6.193   0.953 -1.9925 -1.1340 -0.9215
11957TIP3    H257363   4.539   6.172   1.102  0.4242  0.0956 -0.4852
11958TIP3   OH257364   1.140   1.692  13.941 -0.6360 -0.4966  0.2987
11958TIP3    H157365   1.153   1.777  13.900  0.2937 -0.4528  0.6647
11958TIP3    H257366   1.168   1.629  13.874 -0.2940 -0.4701  0.4146
11959TIP3   OH257367   3.815   4.664  16.047 -0.5538 -0.3417 -0.5642
11959TIP3    H157368   3.796   4.586  15.995 -2.6095  0.2542 -0.8074
11959TIP3    H257369   3.787   4.642  16.135 -1.9760  0.3552 -0.8038
11960TIP3   OH257370   2.194   5.087   2.495  0.3904  0.5514 -0.3805
11960TIP3    H157371   2.112   5.048   2.525  0.2825  0.8067 -0.3365
11960TIP3    H257372   2.232   5.022   2.436 -0.3071  0.8112 -1.1341
11961TIP3   OH257373   0.517   1.389   5.124  0.3352  0.0824  0.6221
11961TIP3    H157374   0.584   1.452   5.099 -0.4650  0.8498  0.3602
11961TIP3    H257375   0.439   1.442   5.139 -0.6005 -0.9203 -0.4910
11962TIP3   OH257376   4.316   0.547   3.496  0.3737  0.4388  0.1100
11962TIP3    H157377   4.344   0.457   3.486  0.5179  0.4446  0.4809
11962TIP3    H257378   4.231   0.542   3.540  0.4119  0.4891  0.1898
11963TIP3   OH257379   0.745   6.748  12.590  0.3694  0.7034  0.2662
11963TIP3    H157380   0.778   6.706  12.510 -0.2396  0.6175  0.0542
11963TIP3    H257381   0.725   6.837  12.563  0.8732  0.8956  0.5130
11964TIP3   OH257382   4.709   2.779  12.801 -0.0709 -0.1819  0.4038
11964TIP3    H157383   4.750   2.699  12.834 -0.4432  0.4115  2.4601
11964TIP3    H257384   4.626   2.750  12.764 -0.9918 -0.6474  2.6398
11965TIP3   OH257385   0.207   3.376   2.476  0.6627 -0.4531 -0.0984
11965TIP3    H157386   0.282   3.380   2.535  0.3987  0.8626  0.1743
11965TIP3    H257387   0.245   3.382   2.389  0.8519  1.0958  0.0603
11966TIP3   OH257388   6.244   3.032   2.797 -0.2576  0.1073 -0.0106
11966TIP3    H157389   6.165   3.085   2.801 -0.9818 -0.8022 -1.5272
11966TIP3    H257390   6.312   3.094   2.768  0.0227  1.2754  2.8467
11967TIP3   OH257391   0.949   3.034   4.499 -0.3028  0.6959 -0.1634
11967TIP3    H157392   0.977   2.993   4.581 -0.0796  1.0988 -0.0387
11967TIP3    H257393   1.022   3.090   4.473 -0.2508  0.3396 -0.7980
11968TIP3   OH257394   3.997   3.765  11.919  0.8717 -0.0931 -0.4361
11968TIP3    H157395   3.953   3.793  11.999  0.8970  0.1267 -0.4971
11968TIP3    H257396   3.927   3.738  11.860  0.7541  1.0438 -0.8357
11969TIP3   OH257397   5.964   6.183  16.654  0.4223 -1.0255 -0.3053
11969TIP3    H157398   5.942   6.248  16.588  0.3894  1.4562  1.9675
11969TIP3    H257399   5.880   6.145  16.679  0.3902 -1.6657 -1.3401
11970TIP3   OH257400   4.284   0.123  11.928  0.2319 -0.2713 -0.0355
11970TIP3    H157401   4.301   0.174  11.849 -0.0996  0.8462  0.5893
11970TIP3    H257402   4.340   0.046  11.920 -0.1492 -0.4220 -1.5771
11971TIP3   OH257403   3.713   4.708  16.626  0.1462  0.1504 -0.2632
11971TIP3    H157404   3.806   4.699  16.605  0.2641 -1.8110  0.8858
11971TIP3    H257405   3.673   4.629  16.589 -0.7323  0.0295  0.8864
11972TIP3   OH257406   4.847   2.322  11.418 -0.1336 -0.0662 -0.0434
11972TIP3    H157407   4.795   2.312  11.338 -0.7365 -2.0472  0.5490
11972TIP3    H257408   4.891   2.238  11.428  0.1941  0.2770  1.5177
11973TIP3   OH257409   3.233   5.394   6.562  0.0684  0.4912  0.8746
11973TIP3    H157410   3.321   5.400   6.598  0.5844 -1.4313  0.0698
11973TIP3    H257411   3.184   5.342   6.626 -0.5172  1.6215  1.3585
11974TIP3   OH257412   5.500   1.069  11.859  0.0712  0.0523  0.1944
11974TIP3    H157413   5.502   1.047  11.952 -0.8356 -0.0330  0.2026
11974TIP3    H257414   5.458   1.155  11.855  1.6629  0.8546 -0.0126
11975TIP3   OH257415   2.488   1.169   2.517 -0.1632  0.1981 -0.4335
11975TIP3    H157416   2.576   1.131   2.519  0.2701  1.1508 -0.8918
11975TIP3    H257417   2.435   1.104   2.470 -0.5926 -2.1034  2.8118
11976TIP3   OH257418   2.109   6.755   1.132 -0.8014 -0.4736  0.1625
11976TIP3    H157419   2.123   6.674   1.083  1.6493  0.9447 -1.7312
11976TIP3    H257420   2.033   6.796   1.092 -0.3389 -0.5348 -0.8010
11977TIP3   OH257421   2.174   4.478   0.421  0.3342 -0.0998 -0.0748
11977TIP3    H157422   2.154   4.472   0.328 -0.7299  0.3060  0.1047
11977TIP3    H257423   2.168   4.388   0.453 -0.4233 -0.1000 -0.1952
11978TIP3   OH257424   5.179   0.913   2.273  0.1843  0.0805 -0.2867
11978TIP3    H157425   5.108   0.977   2.280 -1.1257 -1.3052 -0.3627
11978TIP3    H257426   5.247   0.959   2.225 -0.4615  1.6190  0.1996
11979TIP3   OH257427   0.915   4.688   6.901  0.0466  0.3188  0.3236
11979TIP3    H157428   0.988   4.665   6.843  0.7606 -0.8874  1.6261
11979TIP3    H257429   0.944   4.767   6.945  0.2048  0.3119  0.2335
11980TIP3   OH257430   6.608   4.188  13.514 -0.8458  0.0970  0.1766
11980TIP3    H157431   6.541   4.222  13.455 -1.6115 -0.5837  0.6277
11980TIP3    H257432   6.611   4.094  13.495  0.2405  0.1748 -0.0835
11981TIP3   OH257433   1.060   0.059  14.183  0.2713  0.1268 -0.1646
11981TIP3    H157434   1.120   0.034  14.254 -1.2589  0.1548  1.1939
11981TIP3    H257435   1.097   0.140  14.148  1.0913  0.0769  0.5423
11982TIP3   OH257436   4.468   4.680  16.754 -1.1241 -0.1291  0.2220
11982TIP3    H157437   4.423   4.662  16.837 -1.0345  0.3389  0.3762
11982TIP3    H257438   4.550   4.720  16.780 -1.9572  1.9333 -0.1182
11983TIP3   OH257439   0.280   4.713  12.461  0.5058 -0.5880  0.6370
11983TIP3    H157440   0.275   4.703  12.366  0.6340 -1.5659  0.7221
11983TIP3    H257441   0.211   4.774  12.483 -0.2005 -1.1524  0.0243
11984TIP3   OH257442   0.243   6.527   4.355 -0.2595  0.1459 -0.2155
11984TIP3    H157443   0.234   6.502   4.263 -0.3115  0.0454 -0.1835
11984TIP3    H257444   0.282   6.450   4.396  2.0553  1.0499 -0.6057
11985TIP3   OH257445   3.957   5.915   3.517 -0.4851  0.4119  0.5754
11985TIP3    H157446   3.961   5.926   3.422  1.5504 -2.8650  0.1015
11985TIP3    H257447   3.955   6.004   3.552 -0.1503  1.7556 -2.5087
11986TIP3   OH257448   1.999   3.280   6.527 -0.2497 -0.1430  0.0100
11986TIP3    H157449   2.000   3.298   6.620  1.1023  0.0376 -0.0146
11986TIP3    H257450   2.027   3.189   6.520  2.7955  0.6945 -0.3073
11987TIP3   OH257451   4.214   6.626   1.515 -0.1995  0.4464 -0.0406
11987TIP3    H157452   4.167   6.682   1.577 -1.4190 -0.9130  0.2972
11987TIP3    H257453   4.275   6.576   1.569  0.1656  0.7113 -0.2061
11988TIP3   OH257454   4.465   1.397   0.690 -0.6599 -0.1152 -0.4096
11988TIP3    H157455   4.469   1.486   0.656  0.8551 -0.7557 -2.1206
11988TIP3    H257456   4.454   1.343   0.611  1.9400 -1.6350  0.1554
11989TIP3   OH257457   0.180   1.827   1.642 -0.0512  0.1391  0.0725
11989TIP3    H157458   0.244   1.832   1.713 -0.4805  2.4278  0.3843
11989TIP3    H257459   0.227   1.862   1.566 -0.1373 -0.6549 -0.3509
11990TIP3   OH257460   6.806   4.261  16.404 -0.3059 -0.3737 -0.1111
11990TIP3    H157461   6.858   4.228  16.330 -1.6078 -0.1925 -1.1468
11990TIP3    H257462   6.833   4.353  16.412  1.9693 -1.0916  1.5859
11991TIP3   OH257463   4.385   2.310   1.516  0.1997 -0.2669  1.2174
11991TIP3    H157464   4.412   2.373   1.448  2.2763  0.1283  2.3376
11991TIP3    H257465   4.380   2.226   1.470  1.1646  0.0606  0.4905
11992TIP3   OH257466   2.253   0.479   1.149 -0.1744  0.6079 -0.2095
11992TIP3    H157467   2.186   0.547   1.154 -2.2339 -1.3203  0.2402
11992TIP3    H257468   2.230   0.428   1.071  2.8181  1.7934 -2.0089
11993TIP3   OH257469   3.064   6.816  16.214 -0.7199  0.0771 -0.0276
11993TIP3    H157470   3.009   6.865  16.275 -0.1736 -1.0493  1.4333
11993TIP3    H257471   3.148   6.807  16.260  0.0982  0.2164 -1.4606
11994TIP3   OH257472   0.081   3.028  14.446  1.0520 -0.5782 -0.8380
11994TIP3    H157473   0.104   2.936  14.428 -2.4092 -1.5587 -0.9852
11994TIP3    H257474   0.111   3.043  14.535  2.5357 -1.4999 -1.1457
11995TIP3   OH257475   3.715   4.756  14.105 -0.3248  0.1929 -0.4419
11995TIP3    H157476   3.779   4.759  14.034  0.1394  0.3196 -0.0177
11995TIP3    H257477   3.654   4.686  14.079 -0.5887  0.7348 -1.3252
11996TIP3   OH257478   0.333   0.044  15.595 -0.0711 -0.1104  0.2032
11996TIP3    H157479   0.372   0.131  15.591  0.4188 -0.1310  2.8125
11996TIP3    H257480   0.364   0.001  15.515  1.9718  1.2158  0.1922
11997TIP3   OH257481   3.141   4.635  15.031 -0.1350  0.3312 -0.1647
11997TIP3    H157482   3.211   4.642  15.095  0.6142 -0.8154 -0.8162
11997TIP3    H257483   3.061   4.626  15.084  0.5738 -1.7443  0.6845
11998TIP3   OH257484   4.862   2.334  10.976  0.6902  0.0821 -0.5153
11998TIP3    H157485   4.850   2.336  10.881 -1.4601 -0.6301 -0.2876
11998TIP3    H257486   4.908   2.252  10.993 -1.6768 -1.3783 -0.7265
11999TIP3   OH257487   5.894   2.092  14.696 -0.0429 -0.4219  0.3095
11999TIP3    H157488   5.924   2.028  14.632 -0.7811 -1.1959  0.6964
11999TIP3    H257489   5.881   2.173  14.647  1.6799 -0.3214 -0.0374
12000TIP3   OH257490   4.103   6.006  10.985 -0.0729  0.6263 -0.5812
12000TIP3    H157491   4.057   6.036  10.906 -0.8002 -0.8740 -0.7557
12000TIP3    H257492   4.196   6.018  10.965 -0.2837  1.1459 -1.2942
12001TIP3   OH257493   3.998   2.245   2.227 -0.1279 -0.4788  0.1978
12001TIP3    H157494   4.046   2.250   2.310 -3.3603 -2.2725  2.3933
12001TIP3    H257495   3.948   2.326   2.223 -0.0756 -0.4523  0.0923
12002TIP3   OH257496   0.264   2.600   4.864  0.1206 -0.3601 -0.0814
12002TIP3    H157497   0.222   2.636   4.786  0.5522 -0.8669 -0.5472
12002TIP3    H257498   0.343   2.557   4.832  0.6599  0.0115  0.7130
12003TIP3   OH257499   2.597   3.313  12.528 -0.1235 -0.2570 -0.2786
12003TIP3    H157500   2.657   3.243  12.503  2.5035  2.1703 -1.2381
12003TIP3    H257501   2.623   3.388  12.475 -1.2693  2.1395  2.2905
12004TIP3   OH257502   3.961   1.450   6.592  0.2501 -0.2996 -0.3084
12004TIP3    H157503   3.952   1.517   6.523  0.7645  0.4636  0.3519
12004TIP3    H257504   4.047   1.467   6.630 -0.3570 -0.1989  1.0559
12005TIP3   OH257505   4.556   3.455  10.583  0.4238  0.1924 -0.2556
12005TIP3    H157506   4.500   3.440  10.507  0.5224  0.1995 -0.3292
12005TIP3    H257507   4.602   3.373  10.596  0.1265  0.0683  0.0261
12006TIP3   OH257508   2.347   4.760   6.529 -0.0047  0.1484 -0.0650
12006TIP3    H157509   2.358   4.716   6.445  1.2297  1.9951 -0.9521
12006TIP3    H257510   2.255   4.786   6.531  0.0712  0.5332 -1.0841
12007TIP3   OH257511   3.770   6.801  16.775 -0.1300 -0.2051  0.3568
12007TIP3    H157512   3.700   6.758  16.823 -1.8309  1.8538 -0.1094
12007TIP3    H257513   3.792   6.879  16.827 -0.7277  1.0759 -1.2052
12008TIP3   OH257514   0.061   0.460   1.227  0.4656  0.3335  0.2302
12008TIP3    H157515   0.034   0.499   1.310  2.2174  0.2873  0.8569
12008TIP3    H257516   0.155   0.446   1.236  0.7825  0.6919 -1.9113
12009TIP3   OH257517   3.875   3.958   2.021 -0.1842 -0.8148 -0.1546
12009TIP3    H157518   3.921   4.000   1.948 -0.1891 -0.3957  0.0801
12009TIP3    H257519   3.783   3.963   1.997 -0.2543  0.1310  0.2929
12010TIP3   OH257520   0.799   0.704   4.607 -0.0144  0.3586 -0.1563
12010TIP3    H157521   0.704   0.704   4.614 -0.0001 -1.4098  0.5305
12010TIP3    H257522   0.830   0.721   4.697  0.3266  0.6581 -0.3255
12011TIP3   OH257523   6.472   4.111   1.952  0.3368 -0.1753 -0.2874
12011TIP3    H157524   6.550   4.108   2.007  1.3571  0.8451 -1.5922
12011TIP3    H257525   6.481   4.035   1.894 -0.4090 -0.8893  0.5155
12012TIP3   OH257526   3.823   1.745  16.391  0.2403  0.5603 -0.3022
12012TIP3    H157527   3.915   1.719  16.381 -0.0178 -0.1468 -0.9089
12012TIP3    H257528   3.814   1.821  16.333  0.3873  0.4866 -0.4240
12013TIP3   OH257529   5.770   5.019   0.676 -0.3247 -0.0877  0.2472
12013TIP3    H157530   5.773   5.086   0.744 -1.2001 -0.6801  0.8910
12013TIP3    H257531   5.678   4.992   0.673  0.0746 -1.5314  0.2757
12014TIP3   OH257532   4.179   6.347   4.499 -0.5895 -0.2863  0.0650
12014TIP3    H157533   4.164   6.274   4.440  0.8792  0.3255 -1.1383
12014TIP3    H257534   4.097   6.396   4.499 -1.2103 -1.2942  0.0151
12015TIP3   OH257535   5.782   2.934   1.574 -0.9631  0.1541  0.3420
12015TIP3    H157536   5.708   2.874   1.566 -0.9901  0.3872 -1.3456
12015TIP3    H257537   5.743   3.021   1.577 -0.7533  0.3841 -1.9912
12016TIP3   OH257538   0.002   0.274  16.219 -0.3813 -0.3268 -0.4883
12016TIP3    H157539   0.071   0.236  16.164 -0.5485 -1.2317 -0.0871
12016TIP3    H257540  -0.029   0.350  16.170  1.0448  0.2214 -0.5833
12017TIP3   OH257541   4.578   4.473   2.689 -0.2412 -0.2895  0.0595
12017TIP3    H157542   4.561   4.398   2.746  1.8368 -1.1570 -0.3915
12017TIP3    H257543   4.559   4.441   2.601  0.6271 -0.2976 -0.1305
12018TIP3   OH257544   6.351   4.453   5.016  0.3391 -0.3810 -0.0731
12018TIP3    H157545   6.305   4.453   4.932 -0.1605  1.2321  0.1783
12018TIP3    H257546   6.309   4.383   5.066 -1.9996  1.1137  0.2031
12019TIP3   OH257547   6.657   3.739  13.221 -0.0892 -0.2039  0.0717
12019TIP3    H157548   6.678   3.670  13.284  0.5783  0.0589  0.1357
12019TIP3    H257549   6.741   3.778  13.198 -0.1807 -0.9774 -1.7741
12020TIP3   OH257550   1.775   0.382  10.509 -0.0372  0.1536 -0.2016
12020TIP3    H157551   1.842   0.316  10.527  1.3732  1.5239 -0.1440
12020TIP3    H257552   1.713   0.374  10.581  0.6333 -0.4512  0.3176
12021TIP3   OH257553   2.257   0.720  16.994 -0.4296  0.0557  0.0835
12021TIP3    H157554   2.185   0.777  16.965 -0.6541 -0.4813 -0.4480
12021TIP3    H257555   2.321   0.780  17.031 -0.9708  0.5871  0.1821
12022TIP3   OH257556   2.513   5.610  14.014  0.1698 -0.1173  0.5924
12022TIP3    H157557   2.441   5.631  13.954  0.7109  0.0017 -0.0290
12022TIP3    H257558   2.500   5.669  14.088  1.4810  2.3396 -0.9755
12023TIP3   OH257559   0.871   4.515   4.759  0.9883  1.0274  0.1767
12023TIP3    H157560   0.807   4.551   4.697 -2.1660 -1.1729  1.8387
12023TIP3    H257561   0.841   4.545   4.845  0.8184 -1.7246  1.1955
12024TIP3   OH257562   5.342   5.617  11.142  0.7469 -0.4515  0.1982
12024TIP3    H157563   5.380   5.695  11.182  1.6962 -1.0047  0.4103
12024TIP3    H257564   5.361   5.626  11.049 -0.6349  0.3800 -0.0219
12025TIP3   OH257565   5.902   2.780   3.689  0.0750 -0.2837  0.5918
12025TIP3    H157566   5.895   2.870   3.722  0.9941 -0.0382  0.1538
12025TIP3    H257567   5.831   2.773   3.625 -0.1797  0.0389  0.8340
12026TIP3   OH257568   5.457   0.240  13.900 -0.3976  0.0496  0.2562
12026TIP3    H157569   5.498   0.323  13.922 -0.3533  0.1943 -0.3567
12026TIP3    H257570   5.399   0.260  13.827 -1.0415 -0.2891  0.6710
12027TIP3   OH257571   6.337   5.819   1.258 -0.1094 -0.1800 -0.4955
12027TIP3    H157572   6.415   5.875   1.254 -0.3965  0.3137  0.5959
12027TIP3    H257573   6.340   5.780   1.345 -1.6508  0.6648 -0.0394
12028TIP3   OH257574   2.990   5.613  13.221 -0.6979 -0.8732  0.0943
12028TIP3    H157575   2.927   5.599  13.150 -2.9664 -1.4933  2.1127
12028TIP3    H257576   2.961   5.693  13.263  0.2226 -0.8698  0.7452
12029TIP3   OH257577   1.395   4.940   3.435  0.0457 -0.1672  0.4108
12029TIP3    H157578   1.490   4.937   3.426 -0.0562 -0.7800 -0.5989
12029TIP3    H257579   1.374   5.033   3.438  0.5013  0.0593 -1.7117
12030TIP3   OH257580   4.565   2.418   2.078 -0.2867 -0.6078  0.5926
12030TIP3    H157581   4.516   2.451   2.003 -0.7937  0.0426  1.1982
12030TIP3    H257582   4.656   2.414   2.047 -0.1413  1.6469  0.5451
12031TIP3   OH257583   2.536   6.203  14.751  0.2114  0.1482  0.2388
12031TIP3    H157584   2.488   6.159  14.822  0.8516 -1.1379 -0.0960
12031TIP3    H257585   2.496   6.170  14.671  0.1811  0.8084 -0.0271
12032TIP3   OH257586   6.485   2.767  10.513 -0.0412 -0.6598  0.1442
12032TIP3    H157587   6.525   2.845  10.552 -0.5331 -0.2326 -0.1838
12032TIP3    H257588   6.553   2.729  10.457  0.6193 -1.1902  1.2842
12033TIP3   OH257589   4.401   1.587  13.793  0.0485 -0.3248  0.2261
12033TIP3    H157590   4.371   1.673  13.764  0.8843 -0.6135 -1.6551
12033TIP3    H257591   4.432   1.601  13.882 -0.8378  1.0696  0.3489
12034TIP3   OH257592   4.755   6.353   2.436  0.0465 -0.2356  0.2112
12034TIP3    H157593   4.756   6.348   2.341 -0.0095  0.9930  0.1235
12034TIP3    H257594   4.748   6.447   2.455  1.7726 -0.3157  1.4330
12035TIP3   OH257595   2.381   3.293  10.258 -0.5968 -0.2616 -0.0116
12035TIP3    H157596   2.390   3.367  10.319 -0.9251 -0.6766  0.5439
12035TIP3    H257597   2.289   3.269  10.263 -1.1219  1.0552 -2.2743
12036TIP3   OH257598   1.102   5.538  15.703 -0.2039  0.1563 -0.5418
12036TIP3    H157599   1.140   5.536  15.615  1.5019 -0.2108  0.1645
12036TIP3    H257600   1.110   5.447  15.733  2.0695  0.8112  1.0943
12037TIP3   OH257601   5.226   5.493   1.440 -0.1306 -0.3069  0.0607
12037TIP3    H157602   5.196   5.578   1.473 -0.2804  0.4329 -1.8760
12037TIP3    H257603   5.271   5.514   1.358  1.7405 -1.8870  0.6187
12038TIP3   OH257604   1.395   3.015  11.386  0.2296  0.1408 -0.3875
12038TIP3    H157605   1.475   3.041  11.431  0.8525 -0.3376 -1.2086
12038TIP3    H257606   1.394   3.067  11.306  0.1832 -0.5048 -0.8131
12039TIP3   OH257607   2.342   6.550  15.981  0.5230 -0.4591 -0.4733
12039TIP3    H157608   2.431   6.563  15.950  0.3024 -2.2363 -2.0279
12039TIP3    H257609   2.288   6.601  15.921  0.3653 -0.9421 -0.7486
12040TIP3   OH257610   0.701   2.742  14.140  0.0645 -0.0250 -0.2934
12040TIP3    H157611   0.696   2.679  14.068 -2.3463 -1.2052  0.7685
12040TIP3    H257612   0.641   2.812  14.114 -2.0803 -1.2212  1.1318
12041TIP3   OH257613   4.724   3.890   5.738  0.6539  0.3913 -0.1793
12041TIP3    H157614   4.703   3.983   5.743  0.9072  0.4042  2.6932
12041TIP3    H257615   4.640   3.846   5.751  0.6244  0.1985 -0.9620
12042TIP3   OH257616   2.989   6.474  16.765  0.1398 -0.6008 -0.0320
12042TIP3    H157617   2.979   6.447  16.856  0.6652 -0.3146  0.1159
12042TIP3    H257618   2.954   6.563  16.762 -0.7211 -0.9388 -0.3155
12043TIP3   OH257619   4.656   2.346   0.411  0.2066 -0.0577  0.1779
12043TIP3    H157620   4.588   2.278   0.407 -0.1783  0.3139  0.3106
12043TIP3    H257621   4.607   2.428   0.405  0.7926  0.2057 -2.1790
12044TIP3   OH257622   1.756   6.214   2.998 -0.2660 -0.4398 -0.2257
12044TIP3    H157623   1.847   6.204   2.973 -0.4416  0.0287 -1.0901
12044TIP3    H257624   1.758   6.276   3.071  0.0558  0.1681 -0.7359
12045TIP3   OH257625   4.162   5.141  11.580  0.5721 -0.4194  0.0346
12045TIP3    H157626   4.245   5.172  11.544 -0.5995  0.9000 -1.7112
12045TIP3    H257627   4.110   5.117  11.503 -0.7743 -0.9421  1.0600
12046TIP3   OH257628   5.503   0.872  14.073 -0.1956  0.0631 -0.3981
12046TIP3    H157629   5.527   0.856  13.981 -1.8013  3.1832 -1.4890
12046TIP3    H257630   5.568   0.935  14.104 -1.1011  0.9472 -0.2383
12047TIP3   OH257631   5.848   6.714   1.544  0.2930  0.1781  0.0638
12047TIP3    H157632   5.901   6.722   1.623  1.3924  1.5951 -0.7690
12047TIP3    H257633   5.849   6.621   1.523  0.6933 -0.0944  1.2334
12048TIP3   OH257634   4.178   2.552  10.718  0.6785  0.1712  0.3753
12048TIP3    H157635   4.141   2.543  10.630 -0.2483  3.0320  0.3409
12048TIP3    H257636   4.170   2.465  10.757 -1.5986 -0.5135 -1.3838
12049TIP3   OH257637   0.120   6.302  12.388  0.6841 -0.4001 -0.3251
12049TIP3    H157638   0.064   6.326  12.314  1.9551 -1.5207 -1.7252
12049TIP3    H257639   0.125   6.382  12.440 -1.1733  0.0923 -0.8067
12050TIP3   OH257640   4.884   3.634  15.378  0.1629 -0.0066 -0.1754
12050TIP3    H157641   4.922   3.629  15.466 -0.7756  2.2895  0.4495
12050TIP3    H257642   4.927   3.710  15.338 -1.0837  0.3895 -0.8092
12051TIP3   OH257643   1.482   4.668   4.701 -0.1009  0.3790 -0.3072
12051TIP3    H157644   1.414   4.626   4.753 -0.1692  0.3606 -0.4093
12051TIP3    H257645   1.435   4.733   4.649 -0.6590 -2.0339 -3.0867
12052TIP3   OH257646   6.272   2.144   6.480 -0.0530 -0.1245 -0.6879
12052TIP3    H157647   6.349   2.201   6.479 -0.5527  0.5988  0.2733
12052TIP3    H257648   6.300   2.066   6.527  0.1333  0.0878 -0.4465
12053TIP3   OH257649   2.105   0.574   4.062  0.6498 -0.2329  0.9380
12053TIP3    H157650   2.066   0.604   3.979  1.0447  1.7030  1.3904
12053TIP3    H257651   2.146   0.490   4.041  0.9569  0.3314 -0.9144
12054TIP3   OH257652   2.476   5.361   5.524 -0.0685  0.7027  0.1965
12054TIP3    H157653   2.475   5.337   5.616  2.8098  0.8254  0.3436
12054TIP3    H257654   2.443   5.284   5.478  2.1039 -0.8742  1.1224
12055TIP3   OH257655   3.970   1.779  12.171 -0.1808 -0.8522 -0.0636
12055TIP3    H157656   4.055   1.739  12.189 -1.2581 -3.1660  0.3332
12055TIP3    H257657   3.990   1.861  12.126  2.2978 -0.2823  1.8669
12056TIP3   OH257658   4.722   1.266  11.309 -0.1692  0.0492  0.4581
12056TIP3    H157659   4.632   1.258  11.278 -0.0507  1.5724 -0.3868
12056TIP3    H257660   4.749   1.177  11.330 -1.3177 -0.6297 -0.8396
12057TIP3   OH257661   6.579   2.318  16.107  0.2375 -0.4121  1.1816
12057TIP3    H157662   6.553   2.389  16.048 -0.3136 -0.9645  0.7448
12057TIP3    H257663   6.587   2.242  16.049 -0.7145 -1.0610  1.8755
12058TIP3   OH257664   4.279   1.738  11.186  0.4296  0.0930 -0.1466
12058TIP3    H157665   4.268   1.648  11.217 -1.5980 -0.1628 -1.4466
12058TIP3    H257666   4.285   1.730  11.091  1.7956  1.2337 -0.1860
12059TIP3   OH257667   0.776   4.380  16.660 -0.0669 -0.0542 -0.2222
12059TIP3    H157668   0.759   4.332  16.741 -0.7093  0.3612 -0.1054
12059TIP3    H257669   0.750   4.470  16.679  0.7933  0.2711 -0.5519
12060TIP3   OH257670   4.125   2.458  13.481 -0.2530 -0.0751 -0.2155
12060TIP3    H157671   4.141   2.381  13.534 -1.6718 -1.0151 -1.0679
12060TIP3    H257672   4.174   2.528  13.524 -0.3307 -1.0618  1.5862
12061TIP3   OH257673   1.574   0.613  15.831  0.0208  0.4886  0.1619
12061TIP3    H157674   1.489   0.636  15.868  0.3790 -2.0989  3.0119
12061TIP3    H257675   1.566   0.632  15.737 -3.0339  1.9976  0.6275
12062TIP3   OH257676   2.317   0.456  13.719  0.2625  0.3024 -0.1669
12062TIP3    H157677   2.339   0.547  13.738  1.3445 -0.2658  1.5309
12062TIP3    H257678   2.223   0.456  13.701  0.2295  1.7207 -0.0551
12063TIP3   OH257679   4.102   5.282  14.293  0.2506  0.2953  0.1302
12063TIP3    H157680   4.085   5.200  14.247 -2.2748 -0.7164  2.5605
12063TIP3    H257681   4.033   5.341  14.262  0.0998  0.4255  0.7065
12064TIP3   OH257682   6.092   6.779  16.108  0.6739 -0.3860 -0.0026
12064TIP3    H157683   6.160   6.773  16.176  0.9680  0.5582 -0.1987
12064TIP3    H257684   6.124   6.723  16.037  0.8282 -0.6267  0.2540
12065TIP3   OH257685   6.403   6.842  13.857  0.5419 -0.2491  0.2832
12065TIP3    H157686   6.385   6.891  13.777  1.9621  0.6467  0.4811
12065TIP3    H257687   6.320   6.842  13.905  0.3729  1.5734  0.0548
12066TIP3   OH257688   3.120   2.205   4.906 -0.3654 -0.1306  0.0272
12066TIP3    H157689   3.094   2.162   4.824  1.0097  1.5751 -1.3809
12066TIP3    H257690   3.095   2.297   4.894  0.5516  0.3032  1.1966
12067TIP3   OH257691   2.201   1.509  11.797  0.1111 -0.1327 -0.3023
12067TIP3    H157692   2.238   1.456  11.726 -2.3192 -1.1933 -0.9033
12067TIP3    H257693   2.108   1.486  11.797  0.1482 -1.1285  4.0670
12068TIP3   OH257694   1.123   0.670   2.952  0.1338  0.0834 -0.5635
12068TIP3    H157695   1.067   0.735   2.994  0.0307 -1.1970  1.4062
12068TIP3    H257696   1.103   0.677   2.859 -1.9946  0.8825 -0.0964
12069TIP3   OH257697   5.688   4.300  14.941  0.0091 -0.4451 -0.7233
12069TIP3    H157698   5.654   4.211  14.934 -0.7373 -0.0797 -2.0022
12069TIP3    H257699   5.639   4.351  14.876  0.1109  1.0050  0.2852
12070TIP3   OH257700   5.260   5.505   5.904 -0.1184 -0.3458  0.2142
12070TIP3    H157701   5.200   5.432   5.887 -0.9277  0.4275 -0.3265
12070TIP3    H257702   5.323   5.501   5.833 -0.4710 -0.2079 -0.1084
12071TIP3   OH257703   1.036   0.403  15.180  0.3598  0.1387 -0.0312
12071TIP3    H157704   1.052   0.355  15.261 -1.3593 -1.8090 -0.7689
12071TIP3    H257705   0.952   0.448  15.196  0.1913  0.0285 -0.5884
12072TIP3   OH257706   3.622   3.099  16.927 -1.0697 -0.0229  0.2411
12072TIP3    H157707   3.717   3.085  16.931 -0.9698  0.7463  0.9359
12072TIP3    H257708   3.597   3.067  16.841 -0.1894 -0.3074  0.0742
12073TIP3   OH257709   3.703   4.128   5.016 -0.3286 -0.4811  0.0604
12073TIP3    H157710   3.723   4.219   5.038 -1.1559 -0.2026 -0.2870
12073TIP3    H257711   3.782   4.096   4.972  0.0311  0.0163  0.3355
12074TIP3   OH257712   0.218   1.405  14.469  0.4251 -0.3816  0.3313
12074TIP3    H157713   0.273   1.399  14.547 -1.0823  0.2492  1.4886
12074TIP3    H257714   0.192   1.497  14.465 -1.1983 -0.8134  0.2973
12075TIP3   OH257715   2.275   5.436  15.822 -0.0860 -0.3265  0.1527
12075TIP3    H157716   2.269   5.471  15.733  1.4900 -1.8696 -0.6049
12075TIP3    H257717   2.362   5.461  15.852 -0.2078 -0.7362  0.8609
12076TIP3   OH257718   4.642   5.219   2.703  0.1490  0.1491  0.3843
12076TIP3    H157719   4.662   5.147   2.762  2.2535  1.5444  1.5170
12076TIP3    H257720   4.724   5.235   2.655 -0.7887  0.6457 -1.1451
12077TIP3   OH257721   0.853   1.763   5.600  0.0239 -0.2291 -0.0886
12077TIP3    H157722   0.886   1.737   5.514 -3.3791 -1.2563 -1.2455
12077TIP3    H257723   0.778   1.819   5.581 -0.8684 -0.5301  2.2026
12078TIP3   OH257724   1.294   6.497  17.010 -0.7020 -0.0290  0.0415
12078TIP3    H157725   1.259   6.490  16.922 -0.4626  3.0513 -0.4095
12078TIP3    H257726   1.218   6.515  17.065 -0.4226  2.3855 -0.2760
12079TIP3   OH257727   5.307   3.696   4.562 -0.5568 -0.0782 -0.5395
12079TIP3    H157728   5.319   3.780   4.607 -1.9698 -0.0772 -0.0917
12079TIP3    H257729   5.384   3.687   4.507  0.2345  0.9104  0.3591
12080TIP3   OH257730   1.226   4.675   4.124 -0.0758 -0.1062  0.0594
12080TIP3    H157731   1.237   4.660   4.217  0.0443 -2.4309 -0.2747
12080TIP3    H257732   1.185   4.595   4.091  0.3775  0.4343 -1.9620
12081TIP3   OH257733   5.915   1.843   4.896  0.0581 -0.6018 -0.3103
12081TIP3    H157734   5.872   1.928   4.902  0.7085 -0.3085  0.3358
12081TIP3    H257735   5.875   1.790   4.964  1.3018 -0.0496  0.8916
12082TIP3   OH257736   3.889   0.095   0.513  0.6827  0.1590  0.4877
12082TIP3    H157737   3.962   0.044   0.550  1.0535 -0.5469 -1.1186
12082TIP3    H257738   3.917   0.114   0.423 -0.3704  1.4090  0.4109
12083TIP3   OH257739   1.703   3.632  16.527 -0.2007  0.2957  0.3290
12083TIP3    H157740   1.785   3.594  16.497  0.0315  1.2669 -0.3410
12083TIP3    H257741   1.635   3.584  16.480  0.0197 -0.0996  0.4157
12084TIP3   OH257742   6.141   4.806  11.987 -0.0310 -0.1825 -0.1792
12084TIP3    H157743   6.155   4.900  11.982 -0.9395 -0.0688 -0.6595
12084TIP3    H257744   6.109   4.791  12.076  1.4237 -0.2347  0.3709
12085TIP3   OH257745   0.969   1.554   5.274 -0.0759  0.2755  0.6724
12085TIP3    H157746   0.897   1.495   5.295 -0.2185  0.1762 -0.0537
12085TIP3    H257747   0.929   1.641   5.274  0.3272  0.5169  2.6731
12086TIP3   OH257748   5.588   6.719  14.059 -0.0471 -0.1160  0.1977
12086TIP3    H157749   5.504   6.765  14.065  0.7263  1.2512  5.1635
12086TIP3    H257750   5.644   6.777  14.008 -1.3301  0.2559 -0.8549
12087TIP3   OH257751   3.598   5.434   2.806  0.1723 -0.0171  0.1863
12087TIP3    H157752   3.661   5.386   2.752  0.1876  0.3257 -0.1052
12087TIP3    H257753   3.550   5.488   2.744 -0.4895 -0.3620  0.3955
12088TIP3   OH257754   2.585   0.994   6.272 -0.1281  0.1542 -0.1548
12088TIP3    H157755   2.632   1.036   6.343  2.9890 -1.1713 -1.2677
12088TIP3    H257756   2.555   1.067   6.217  2.1838  1.1164 -0.2721
12089TIP3   OH257757   2.440   3.971   6.617  0.0911  0.5087  0.0810
12089TIP3    H157758   2.467   3.888   6.656 -1.1880 -0.4719 -1.0272
12089TIP3    H257759   2.358   3.993   6.660  0.4546  1.2456  0.4130
12090TIP3   OH257760   4.048   6.224   0.529  0.1998 -0.2952 -0.3401
12090TIP3    H157761   3.955   6.245   0.522  0.2238 -0.5627 -1.6982
12090TIP3    H257762   4.075   6.262   0.613 -0.8220  0.9629 -0.5545
12091TIP3   OH257763   4.775   6.837   1.067  0.2728 -0.7625  0.0248
12091TIP3    H157764   4.869   6.853   1.051  0.8103 -3.8809 -0.4579
12091TIP3    H257765   4.755   6.892   1.143  2.2244  0.6880 -0.3965
12092TIP3   OH257766   5.822   4.577   1.654  0.4890  0.0943 -0.0055
12092TIP3    H157767   5.732   4.598   1.631  0.3545  0.1854  0.5661
12092TIP3    H257768   5.832   4.484   1.632 -0.9630 -1.0422  3.3869
12093TIP3   OH257769   1.217   6.523  13.449  0.1941 -0.4767  0.3567
12093TIP3    H157770   1.226   6.595  13.387 -0.4879 -0.7971 -0.1311
12093TIP3    H257771   1.246   6.446  13.400  3.0903 -0.2720  1.5576
12094TIP3   OH257772   4.229   1.126   0.637 -0.4364  0.6059 -0.3949
12094TIP3    H157773   4.278   1.186   0.581 -0.7901  1.9933  0.7016
12094TIP3    H257774   4.275   1.128   0.721 -0.8848 -0.0887 -0.1216
12095TIP3   OH257775   3.309   5.533   2.089 -0.6544 -0.3042 -0.0080
12095TIP3    H157776   3.225   5.499   2.120 -1.1597  1.6290  0.8711
12095TIP3    H257777   3.333   5.600   2.153  1.8970 -1.2194  0.1248
12096TIP3   OH257778   4.192   0.227  16.256 -0.3778  0.1717  0.6970
12096TIP3    H157779   4.274   0.251  16.299 -1.0672  2.4628  0.8485
12096TIP3    H257780   4.183   0.288  16.183 -1.4292 -0.7473  0.0128
12097TIP3   OH257781   0.538   4.161  14.044  0.3468  0.3773 -0.3558
12097TIP3    H157782   0.467   4.185  14.102  0.3318 -0.9672  0.2309
12097TIP3    H257783   0.554   4.239  13.991 -1.8215  0.5947 -0.7895
12098TIP3   OH257784   6.459   5.285  14.537  0.6503 -0.4181  0.1305
12098TIP3    H157785   6.504   5.206  14.568  0.8599 -0.6085 -0.6515
12098TIP3    H257786   6.393   5.303  14.605  3.0189  0.9032  2.2420
12099TIP3   OH257787   2.158   5.787  13.992 -0.3264 -0.0223  0.4441
12099TIP3    H157788   2.104   5.848  14.043  0.2429  1.4796 -0.6618
12099TIP3    H257789   2.131   5.801  13.901  1.2142  0.0632 -0.0317
12100TIP3   OH257790   4.362   5.533  16.674 -0.0853 -0.4843 -0.0693
12100TIP3    H157791   4.421   5.531  16.748 -1.0403 -1.0065  0.7077
12100TIP3    H257792   4.411   5.494  16.602  1.0024  0.4260  0.1499
12101TIP3   OH257793   4.659   4.877   2.535 -0.0876 -0.1031  0.1444
12101TIP3    H157794   4.711   4.891   2.613  0.5712  1.4519 -0.5387
12101TIP3    H257795   4.588   4.941   2.541 -1.6439 -1.7919  0.7662
12102TIP3   OH257796   6.404   3.828   6.192 -0.3048 -0.1992  0.4622
12102TIP3    H157797   6.446   3.744   6.210 -0.0898 -0.1035  0.4119
12102TIP3    H257798   6.314   3.806   6.167  0.6930 -0.7405 -3.2830
12103TIP3   OH257799   5.744   5.904  14.156  0.3474 -0.4883 -0.1140
12103TIP3    H157800   5.672   5.938  14.209 -0.0488  1.2368 -1.6304
12103TIP3    H257801   5.703   5.840  14.098 -0.5222  1.9381 -2.3860
12104TIP3   OH257802   3.981   5.362  11.335 -0.2692 -0.2748 -0.0520
12104TIP3    H157803   3.989   5.270  11.357  1.0208 -0.0378  0.5455
12104TIP3    H257804   3.897   5.369  11.290 -0.7210 -1.6047  0.5521
12105TIP3   OH257805   0.488   3.814   2.145  0.8454 -0.7258 -0.1269
12105TIP3    H157806   0.519   3.804   2.235  2.5037 -3.1811 -0.8651
12105TIP3    H257807   0.394   3.834   2.154  0.6393 -2.3059  2.1384
12106TIP3   OH257808   6.498   4.685   0.227  0.0351 -0.1688  0.0861
12106TIP3    H157809   6.557   4.756   0.203  2.9835 -1.5489  2.5141
12106TIP3    H257810   6.422   4.729   0.266  1.4897  1.7297  0.9613
12107TIP3   OH257811   3.240   6.021  15.249  0.1850  0.0928 -0.1736
12107TIP3    H157812   3.306   6.062  15.305  0.3029 -0.5601  0.1770
12107TIP3    H257813   3.263   5.928  15.250  0.3507  0.1041 -1.5351
12108TIP3   OH257814   0.981   6.554   3.314 -0.2000  0.2462  0.3076
12108TIP3    H157815   0.908   6.573   3.254  0.1514  3.8595  0.8189
12108TIP3    H257816   1.058   6.550   3.258 -0.3506 -0.4448  0.1312
12109TIP3   OH257817   5.603   6.296  14.370  0.3797 -0.0047  0.2145
12109TIP3    H157818   5.621   6.365  14.306  0.7054  0.4436  0.7859
12109TIP3    H257819   5.645   6.218  14.333  0.2903  0.1729 -0.2720
12110TIP3   OH257820   2.277   0.539  13.253 -0.2038  0.0926  0.6685
12110TIP3    H157821   2.299   0.541  13.346 -0.4691 -1.9403  0.8227
12110TIP3    H257822   2.186   0.570  13.250  0.2259  1.4388  0.8985
12111TIP3   OH257823   2.177   0.562  14.937  0.0655 -0.2551  0.7611
12111TIP3    H157824   2.147   0.640  14.984  2.0852 -0.5584  2.7353
12111TIP3    H257825   2.156   0.580  14.845 -2.8266  0.9774  1.5422
12112TIP3   OH257826   3.120   3.844   2.204 -0.3034  0.0419 -0.0538
12112TIP3    H157827   3.067   3.817   2.279 -0.0942  3.2225  1.4161
12112TIP3    H257828   3.210   3.821   2.228 -0.2148  1.2191  0.8290
12113TIP3   OH257829   5.447   2.545  13.087 -0.0874  0.7661 -0.0244
12113TIP3    H157830   5.469   2.635  13.061  0.8114  1.2891  2.3257
12113TIP3    H257831   5.526   2.513  13.129  0.2506 -1.8388 -2.3460
12114TIP3   OH257832   3.794   3.401  15.037 -0.0379 -0.0151  0.0468
12114TIP3    H157833   3.750   3.318  15.052 -1.2356  0.8088  1.2990
12114TIP3    H257834   3.842   3.418  15.118  1.0322  0.0482 -0.5732
12115TIP3   OH257835   2.491   6.681   4.408  0.1986  0.3468  0.2029
12115TIP3    H157836   2.572   6.697   4.360 -0.2671 -1.1362 -1.1784
12115TIP3    H257837   2.503   6.725   4.492  2.2520  0.4812 -0.1210
12116TIP3   OH257838   4.983   2.708   5.910 -0.2108 -0.1885  0.5207
12116TIP3    H157839   4.930   2.680   5.985 -1.9128 -3.2709 -1.6053
12116TIP3    H257840   4.919   2.729   5.842  1.2241 -1.1492 -1.2213
12117TIP3   OH257841   5.910   5.904  15.251 -0.4975 -0.2830 -0.5849
12117TIP3    H157842   5.946   5.827  15.208 -1.5913 -1.1968  0.0653
12117TIP3    H257843   5.977   5.931  15.313 -1.1411 -2.4471  1.2127
12118TIP3   OH257844   5.552   5.766  11.926  0.0140  0.3112  0.7843
12118TIP3    H157845   5.553   5.679  11.966 -0.0669 -0.9442 -1.7419
12118TIP3    H257846   5.483   5.761  11.859  0.1054  2.2847  0.4669
12119TIP3   OH257847   2.957   2.427   2.538  0.2237 -0.2014  0.4336
12119TIP3    H157848   2.863   2.415   2.522  0.3050  0.2366 -0.4201
12119TIP3    H257849   2.983   2.493   2.474  1.1888 -0.5664  0.4462
12120TIP3   OH257850   3.236   4.063  16.941  0.3739  0.2600  0.0695
12120TIP3    H157851   3.302   4.125  16.972  0.1603 -0.8109  3.0423
12120TIP3    H257852   3.161   4.117  16.915  1.1104  1.3348  0.1291
12121TIP3   OH257853   3.392   2.774   5.753  0.1279  0.1717  0.4592
12121TIP3    H157854   3.481   2.769   5.788  0.5496  0.5431 -0.5285
12121TIP3    H257855   3.336   2.750   5.827  1.0152  0.4012  1.2263
12122TIP3   OH257856   1.418   4.822  10.942  0.0514  0.5487  0.1992
12122TIP3    H157857   1.417   4.784  10.854 -0.4032 -0.1214  0.4887
12122TIP3    H257858   1.504   4.798  10.977  0.1159  0.5542  0.0457
12123TIP3   OH257859   2.838   1.519  14.746 -0.5048  0.2164  0.3008
12123TIP3    H157860   2.914   1.489  14.695 -1.1479 -3.1362  1.0989
12123TIP3    H257861   2.774   1.545  14.680  0.5726  1.1945 -0.4130
12124TIP3   OH257862   1.275   1.155   2.408  0.0069 -0.7269  0.0602
12124TIP3    H157863   1.366   1.142   2.381 -0.1404 -0.4521 -0.5644
12124TIP3    H257864   1.226   1.158   2.327 -0.4566 -0.0396  0.3614
12125TIP3   OH257865   5.197   6.432  16.438 -0.1788  0.3781  0.5190
12125TIP3    H157866   5.274   6.444  16.382 -0.1804 -2.0067 -0.1126
12125TIP3    H257867   5.168   6.521  16.458  1.0605  1.3302 -1.5492
12126TIP3   OH257868   4.398   0.660   6.655  0.3451 -0.1529  0.1951
12126TIP3    H157869   4.364   0.724   6.593  1.7551  0.2183 -0.2271
12126TIP3    H257870   4.479   0.628   6.616  1.7739  0.7572  2.1999
12127TIP3   OH257871   4.523   0.720  16.425 -0.3056 -0.0944 -0.3180
12127TIP3    H157872   4.575   0.641  16.439 -1.3440 -0.5233  1.5212
12127TIP3    H257873   4.562   0.762  16.348  1.7707 -1.1566  0.0845
12128TIP3   OH257874   0.491   1.980  16.963 -0.5375  0.1429  0.4809
12128TIP3    H157875   0.573   2.021  16.989 -0.2198 -0.7306  0.9004
12128TIP3    H257876   0.511   1.936  16.880 -0.6993  0.2940  0.3620
12129TIP3   OH257877   2.978   1.188   0.271  0.2543 -0.2290 -0.1283
12129TIP3    H157878   3.025   1.114   0.308  1.0900  0.3033 -0.1041
12129TIP3    H257879   2.890   1.154   0.252  0.8549 -1.4371 -0.8514
12130TIP3   OH257880   6.710   1.133   1.588 -0.2266 -0.1834 -0.5402
12130TIP3    H157881   6.780   1.150   1.652  0.2288  1.5068 -1.4149
12130TIP3    H257882   6.726   1.197   1.518 -2.3195 -0.1310 -1.0317
12131TIP3   OH257883   0.613   6.163   2.765  0.7040 -0.2412 -0.3566
12131TIP3    H157884   0.526   6.130   2.742  0.5098 -0.9405  1.2348
12131TIP3    H257885   0.596   6.240   2.819  0.9898 -1.2477  1.2404
12132TIP3   OH257886   5.577   4.093   2.258  0.6125 -0.0978  0.4905
12132TIP3    H157887   5.501   4.120   2.309  0.2870  1.5089 -0.7950
12132TIP3    H257888   5.636   4.168   2.259  1.2720 -0.5810 -0.2493
12133TIP3   OH257889   0.944   4.996  15.476  0.1617  0.1033 -0.0681
12133TIP3    H157890   0.866   4.976  15.528  1.2900  0.3960  1.7975
12133TIP3    H257891   0.952   5.091  15.481  1.3055 -0.0232  0.7902
12134TIP3   OH257892   2.486   1.432   2.530 -0.5468 -0.1321 -0.5148
12134TIP3    H157893   2.470   1.340   2.508 -0.2526 -0.2462 -0.2452
12134TIP3    H257894   2.494   1.475   2.445  0.0748 -0.4885 -0.6425
12135TIP3   OH257895   0.691   4.583  15.075  0.0963  0.4972 -0.1354
12135TIP3    H157896   0.771   4.574  15.024 -0.0316  1.9733 -0.6395
12135TIP3    H257897   0.682   4.677  15.090 -0.6050  0.2123  1.4422
12136TIP3   OH257898   3.068   3.160  16.616 -0.0012  0.1958  0.2355
12136TIP3    H157899   2.993   3.115  16.654 -1.5640  1.7601 -0.8651
12136TIP3    H257900   3.080   3.119  16.530  1.5807 -1.2408  1.0790
12137TIP3   OH257901   6.164   4.559   0.595  0.9853  0.0666 -0.1006
12137TIP3    H157902   6.164   4.629   0.530 -0.3513 -0.4324 -0.6513
12137TIP3    H257903   6.227   4.495   0.561  1.3923  0.4774 -0.1419
12138TIP3   OH257904   6.255   2.895   3.249  0.5442 -0.2751 -0.5127
12138TIP3    H157905   6.202   2.908   3.170  1.1761  0.0165 -0.8969
12138TIP3    H257906   6.298   2.979   3.263  0.3783 -0.3043  0.1967
12139TIP3   OH257907   5.925   3.719  12.588  0.0105  0.1673  0.2148
12139TIP3    H157908   5.830   3.737  12.590 -0.0329  0.6476 -2.3601
12139TIP3    H257909   5.933   3.629  12.619 -1.0857  0.5991  1.9358
12140TIP3   OH257910   5.483   4.796   3.137 -0.3251  0.1875  0.2654
12140TIP3    H157911   5.511   4.810   3.047  1.1423  0.0710  0.6605
12140TIP3    H257912   5.419   4.725   3.133  0.9019 -0.9196 -0.5442
12141TIP3   OH257913   2.413   0.305  16.019 -0.1726 -0.6646  0.0480
12141TIP3    H157914   2.330   0.350  16.006 -0.4654 -0.9677  0.8372
12141TIP3    H257915   2.429   0.260  15.936 -1.9537 -2.4780  0.6040
12142TIP3   OH257916   6.640   0.550  16.766 -0.0755  0.3483  0.1566
12142TIP3    H157917   6.677   0.505  16.842  0.1067  1.2624  0.6273
12142TIP3    H257918   6.716   0.587  16.721 -0.3473  1.7604  0.8174
12143TIP3   OH257919   4.525   1.442   5.211 -0.5388 -0.6436 -0.1400
12143TIP3    H157920   4.567   1.414   5.292 -1.5905 -0.2128  0.5753
12143TIP3    H257921   4.433   1.416   5.221 -0.5170 -1.3798 -1.5794
12144TIP3   OH257922   5.306   4.393  13.210 -0.0544  0.5753 -0.3116
12144TIP3    H157923   5.336   4.472  13.165 -0.3726  0.7479 -0.2246
12144TIP3    H257924   5.233   4.361  13.157 -0.0403  0.4392 -0.2497
12145TIP3   OH257925   2.970   5.276   6.604 -0.3651 -0.2022 -0.0677
12145TIP3    H157926   3.044   5.232   6.646 -0.3050  0.2845  0.3556
12145TIP3    H257927   2.893   5.233   6.641 -0.4028  1.7044  2.3732
12146TIP3   OH257928   5.493   6.453   1.824  0.1468  0.6054 -0.6777
12146TIP3    H157929   5.554   6.481   1.892  0.3403 -0.1876 -0.5220
12146TIP3    H257930   5.410   6.495   1.847 -0.1606 -0.7400  0.8525
12147TIP3   OH257931   4.139   4.047  15.013 -0.2615  0.1655 -0.2803
12147TIP3    H157932   4.089   3.966  15.022  0.0128  0.1211  1.0545
12147TIP3    H257933   4.230   4.021  15.027 -0.2324  0.7825  0.7544
12148TIP3   OH257934   1.589   4.678  12.079 -0.2725  0.4585  0.3549
12148TIP3    H157935   1.574   4.750  12.018  0.2186  0.1879 -0.0932
12148TIP3    H257936   1.646   4.715  12.147  0.5773  0.3062 -0.2592
12149TIP3   OH257937   1.933   0.421  13.575 -0.7924  0.0101 -0.0228
12149TIP3    H157938   1.903   0.511  13.583  2.5686  1.2906 -0.1811
12149TIP3    H257939   1.938   0.389  13.665 -2.1455 -0.1335  0.0242
12150TIP3   OH257940   2.137   3.705  13.526  0.9620 -0.0808 -0.0552
12150TIP3    H157941   2.210   3.728  13.469  1.2485 -0.8178 -0.0087
12150TIP3    H257942   2.156   3.614  13.552  0.4754  0.0124  0.6465
12151TIP3   OH257943   4.761   5.462  15.793  0.1478  0.3169 -0.4281
12151TIP3    H157944   4.737   5.455  15.886 -1.3316 -0.4313 -0.8374
12151TIP3    H257945   4.751   5.556  15.773 -1.3193  0.2263 -0.2572
12152TIP3   OH257946   4.871   3.754   0.176 -0.1863  0.0525 -0.2855
12152TIP3    H157947   4.933   3.681   0.169  0.4674  0.5290  0.4049
12152TIP3    H257948   4.868   3.792   0.088  1.7454  1.0059  0.0090
12153TIP3   OH257949   2.369   6.595  10.637 -0.0136 -0.3472  0.3061
12153TIP3    H157950   2.462   6.592  10.661  1.4074  2.0597 -3.7874
12153TIP3    H257951   2.350   6.689  10.629 -2.6791 -0.8012  0.3808
12154TIP3   OH257952   6.684   2.309  15.760 -0.0819  0.0209  0.5623
12154TIP3    H157953   6.646   2.385  15.717  1.5814  1.1422  0.9508
12154TIP3    H257954   6.741   2.346  15.828  0.9793 -1.5558  0.6006
12155TIP3   OH257955   2.545   2.294  12.010  0.6663  0.8373  0.2161
12155TIP3    H157956   2.580   2.379  12.040  0.3684  1.4728 -1.1523
12155TIP3    H257957   2.455   2.314  11.984  0.6022  0.0951 -0.1355
12156TIP3   OH257958   5.966   4.386  16.313 -0.5138 -0.2445  0.3833
12156TIP3    H157959   5.956   4.350  16.225  1.4665  0.6247 -0.2612
12156TIP3    H257960   6.033   4.332  16.354 -0.2559  0.3408  0.7564
12157TIP3   OH257961   5.619   1.630   0.756  0.3667 -0.5496  0.1123
12157TIP3    H157962   5.680   1.632   0.829 -0.9552  3.2363  1.3396
12157TIP3    H257963   5.661   1.681   0.687 -0.5738  0.4240  0.2416
12158TIP3   OH257964   1.367   0.053   6.349 -0.2611  0.7306  0.0793
12158TIP3    H157965   1.368   0.103   6.431  1.3792 -0.7310  1.0225
12158TIP3    H257966   1.275   0.036   6.332 -0.6731  1.6562  1.2458
12159TIP3   OH257967   1.409   1.485  11.068  0.5061 -0.4408  0.0752
12159TIP3    H157968   1.416   1.580  11.075 -0.7903 -0.3247 -0.0167
12159TIP3    H257969   1.425   1.453  11.157 -0.1986 -0.0509  0.3514
12160TIP3   OH257970   0.258   1.208   4.148 -0.0527 -0.2884 -0.2443
12160TIP3    H157971   0.276   1.295   4.183 -0.1933 -0.5589  0.5408
12160TIP3    H257972   0.339   1.158   4.165  0.6159  0.0976 -2.1140
12161TIP3   OH257973   1.774   0.661  13.264 -1.0535 -0.3386  0.3785
12161TIP3    H157974   1.841   0.666  13.196 -1.0251 -1.0298  0.3513
12161TIP3    H257975   1.746   0.752  13.276  3.3218  0.8918  3.8610
12162TIP3   OH257976   6.588   1.955  16.303  0.9005  0.2601 -0.3362
12162TIP3    H157977   6.560   2.021  16.366 -0.3938  0.4894 -1.1371
12162TIP3    H257978   6.507   1.913  16.274  1.3779  0.6875 -2.4360
12163TIP3   OH257979   3.831   0.842  12.515 -0.4633 -0.3409  0.1292
12163TIP3    H157980   3.823   0.926  12.470 -0.8746 -1.0426 -1.1594
12163TIP3    H257981   3.925   0.833  12.531 -0.5753  1.2059  2.0202
12164TIP3   OH257982   0.402   1.911   3.597 -0.0201  0.3602 -0.4394
12164TIP3    H157983   0.428   1.864   3.676 -2.2724 -1.2345 -0.5541
12164TIP3    H257984   0.472   1.975   3.583  0.9855 -0.0393  2.1968
12165TIP3   OH257985   4.477   0.995   1.306  0.1752 -0.1518  0.4818
12165TIP3    H157986   4.444   0.915   1.266 -0.1493 -0.4118  1.2443
12165TIP3    H257987   4.461   0.982   1.400 -0.6669  1.1726  0.5359
12166TIP3   OH257988   3.511   3.521  16.476 -0.4338 -0.2148 -0.0607
12166TIP3    H157989   3.495   3.615  16.462 -0.3794 -0.1243  0.4755
12166TIP3    H257990   3.433   3.489  16.521  0.0808 -0.1525  0.9115
12167TIP3   OH257991   2.374   1.088   1.439 -0.2565 -0.2035 -0.2658
12167TIP3    H157992   2.368   1.128   1.352 -1.9171 -1.6309 -0.8746
12167TIP3    H257993   2.317   1.140   1.494 -0.9018 -0.5601 -0.5832
12168TIP3   OH257994   0.146   6.230   1.675 -0.5998  0.0364  0.1120
12168TIP3    H157995   0.077   6.290   1.701 -3.6757 -2.9005 -0.5473
12168TIP3    H257996   0.142   6.227   1.579 -1.4148 -1.9737  0.1402
12169TIP3   OH257997   2.264   3.596  13.204  0.4036 -0.2683 -0.3848
12169TIP3    H157998   2.293   3.506  13.218 -0.7368 -1.2258 -3.4065
12169TIP3    H257999   2.344   3.644  13.184  1.0422 -0.5107  1.3916
12170TIP3   OH258000   3.076   3.546  13.296  0.2544  0.3728  0.0950
12170TIP3    H158001   3.045   3.611  13.233 -1.1629 -1.2261 -0.9305
12170TIP3    H258002   3.166   3.527  13.268 -0.6293 -0.9864 -2.1269
12171TIP3   OH258003   5.940   0.839  15.943  0.3705 -0.1519 -0.3042
12171TIP3    H158004   5.946   0.915  15.885 -1.0577  1.1864  1.2068
12171TIP3    H258005   5.889   0.775  15.892 -1.6519  1.3327 -0.2997
12172TIP3   OH258006   4.998   1.897   3.114  0.1051  0.3832 -0.0130
12172TIP3    H158007   5.078   1.845   3.114  1.0692  1.7645  1.7539
12172TIP3    H258008   4.939   1.849   3.173  0.2900  0.2931  0.1013
12173TIP3   OH258009   5.081   1.893  10.048  0.0976 -0.3213 -0.2508
12173TIP3    H158010   5.050   1.968  10.098  1.2588 -0.7829  1.2589
12173TIP3    H258011   5.009   1.872   9.988 -1.4165  0.2139  1.2911
12174TIP3   OH258012   1.173   0.241  16.819 -0.1494  0.3077  0.2249
12174TIP3    H158013   1.080   0.265  16.827 -0.4311 -0.7550  0.2480
12174TIP3    H258014   1.213   0.274  16.899 -0.4637  0.9653  0.1180
12175TIP3   OH258015   0.932   0.173   5.824 -0.1457  0.0657  0.3852
12175TIP3    H158016   0.892   0.252   5.787 -0.7040 -0.3746  0.0277
12175TIP3    H258017   0.940   0.191   5.918 -1.6523 -0.0287  0.5440
12176TIP3   OH258018   4.839   5.499  13.333  0.5980  0.6793  0.1879
12176TIP3    H158019   4.869   5.492  13.424  0.8858  0.6576  0.0906
12176TIP3    H258020   4.876   5.581  13.302 -0.3812  1.2300  0.4185
12177TIP3   OH258021   3.043   1.721  17.007 -0.3425  0.6635 -0.8023
12177TIP3    H158022   3.111   1.709  17.074 -0.1056 -0.7797 -1.2625
12177TIP3    H258023   2.964   1.742  17.057 -0.2066 -0.5499 -0.0244
12178TIP3   OH258024   3.514   2.085  13.427 -0.3455 -0.2389 -0.5077
12178TIP3    H158025   3.419   2.079  13.436 -0.2253 -0.7981  0.6893
12178TIP3    H258026   3.544   1.995  13.438  0.4393  0.1762  1.0417
12179TIP3   OH258027   4.053   2.866   4.580  0.3497 -0.0176  0.0879
12179TIP3    H158028   4.138   2.845   4.617  0.1617 -2.9238 -0.9179
12179TIP3    H258029   3.993   2.864   4.655  1.1327  2.8046  0.9419
12180TIP3   OH258030   2.868   5.436   1.631 -0.1754 -0.5776 -0.5825
12180TIP3    H158031   2.940   5.378   1.607  1.2667  0.9073 -0.0387
12180TIP3    H258032   2.790   5.381   1.625  1.1826 -2.7991  0.6694
12181TIP3   OH258033   2.510   2.925  13.990  0.2967 -0.1672 -0.0777
12181TIP3    H158034   2.475   2.849  13.943 -1.9642 -0.5292  2.0026
12181TIP3    H258035   2.445   2.994  13.976  0.3431  0.1635  1.1853
12182TIP3   OH258036   5.750   2.494   3.467 -0.4448 -0.1900  0.0152
12182TIP3    H158037   5.671   2.476   3.416  0.3494 -2.2434 -0.5813
12182TIP3    H258038   5.725   2.566   3.525 -2.3421  0.0754 -1.0512
12183TIP3   OH258039   2.027   1.053   0.974 -0.3447 -0.0537  0.1736
12183TIP3    H158040   2.113   1.014   0.987  0.1673  0.9002 -0.2814
12183TIP3    H258041   2.041   1.121   0.909 -0.9626  1.7385  1.8146
12184TIP3   OH258042   6.521   6.084   0.487  0.0975  0.2163 -0.3320
12184TIP3    H158043   6.511   6.038   0.570 -0.6931  0.8537 -0.0650
12184TIP3    H258044   6.607   6.125   0.492 -0.9764  2.4443  1.3024
12185TIP3   OH258045   5.714   2.565  16.592 -0.2849  0.0582 -0.8329
12185TIP3    H158046   5.797   2.550  16.545 -0.0896  0.0303 -0.4838
12185TIP3    H258047   5.698   2.659  16.582  0.2398  0.2296 -0.1783
12186TIP3   OH258048   5.017   4.110  16.019 -0.7643  0.5498 -0.0174
12186TIP3    H158049   5.025   4.016  16.005  0.4469  0.5558  0.5156
12186TIP3    H258050   5.062   4.149  15.944  0.8945  0.6484  0.9815
12187TIP3   OH258051   4.111   3.480  15.966 -0.1667 -0.2094 -0.3921
12187TIP3    H158052   4.038   3.431  15.927 -1.7560  0.5077  1.4840
12187TIP3    H258053   4.115   3.562  15.917  0.4063 -0.8687 -1.4792
12188TIP3   OH258054   4.294   1.388  12.821  0.3667 -0.0684 -0.1405
12188TIP3    H158055   4.291   1.293  12.833 -0.8067 -0.5129 -3.1715
12188TIP3    H258056   4.224   1.421  12.878  1.1856 -0.8771  1.4256
12189TIP3   OH258057   1.712   4.421   3.254  0.0087  0.3373 -0.4941
12189TIP3    H158058   1.672   4.500   3.219 -0.0386  1.2865  1.5869
12189TIP3    H258059   1.641   4.356   3.254 -0.4978  0.8829 -0.3833
12190TIP3   OH258060   6.132   4.313  13.316 -0.6984 -0.1287 -0.3077
12190TIP3    H158061   6.139   4.372  13.241 -1.1410  0.5047  0.1312
12190TIP3    H258062   6.120   4.226  13.279 -2.3140  0.3444 -0.9747
12191TIP3   OH258063   3.376   3.477   2.562 -0.7466 -0.0962 -0.2636
12191TIP3    H158064   3.320   3.409   2.523  1.0388 -1.1255 -1.1698
12191TIP3    H258065   3.442   3.494   2.495 -0.2196  1.3944  0.5960
12192TIP3   OH258066   2.176   3.902   3.902  0.6426  0.2768  0.1459
12192TIP3    H158067   2.120   3.826   3.884  0.0857  1.2310 -2.7100
12192TIP3    H258068   2.222   3.880   3.983 -1.3655 -1.9938  0.7765
12193TIP3   OH258069   3.867   6.310   0.816  0.3477  0.0819 -0.2567
12193TIP3    H158070   3.955   6.338   0.793  1.4614 -4.2596 -2.2866
12193TIP3    H258071   3.831   6.275   0.735 -1.2582 -2.7907  1.5121
12194TIP3   OH258072   2.647   2.180  13.542 -0.0512  0.0161  0.1154
12194TIP3    H158073   2.655   2.274  13.525 -0.4753  0.0210 -0.0579
12194TIP3    H258074   2.570   2.153  13.492  0.1322 -0.4461  0.0755
12195TIP3   OH258075   6.731   3.281   2.900  0.1767 -0.3794  1.3606
12195TIP3    H158076   6.775   3.270   2.985  2.4134 -0.2187  0.2969
12195TIP3    H258077   6.779   3.352   2.857 -1.9972  0.7186  0.5805
12196TIP3   OH258078   5.976   4.786  13.808 -0.0817 -0.0497  0.3634
12196TIP3    H158079   5.910   4.782  13.877  0.0009 -1.1402  0.3856
12196TIP3    H258080   5.943   4.853  13.747 -0.4157  0.5357  1.1778
12197TIP3   OH258081   5.436   1.710   0.930 -0.0326 -0.0635  0.2579
12197TIP3    H158082   5.491   1.732   1.005 -0.2100 -0.0069  0.3753
12197TIP3    H258083   5.476   1.633   0.891  1.1814  1.0347 -0.7519
12198TIP3   OH258084   3.676   5.238   4.403  0.3376 -0.0230 -0.4433
12198TIP3    H158085   3.661   5.240   4.308 -0.9930 -0.5921 -0.2725
12198TIP3    H258086   3.760   5.193   4.413  0.7011  0.4252 -1.3697
12199TIP3   OH258087   5.708   4.105  13.247 -0.6161 -0.2269  0.0530
12199TIP3    H158088   5.616   4.091  13.271 -0.2958 -1.1843  0.7944
12199TIP3    H258089   5.749   4.139  13.327 -0.2976  0.0782 -0.2364
12200TIP3   OH258090   3.723   4.379   5.121  1.0365  0.7145  0.2811
12200TIP3    H158091   3.669   4.457   5.131  2.6369  2.2255 -1.8885
12200TIP3    H258092   3.720   4.337   5.207 -0.9274  2.4306  1.1455
12201TIP3   OH258093   3.993   3.654  14.349 -0.1152  0.0084 -0.2758
12201TIP3    H158094   4.022   3.627  14.436  0.4381  0.7744 -0.2065
12201TIP3    H258095   3.913   3.704  14.365 -0.1600 -0.0813 -0.2249
12202TIP3   OH258096   2.635   4.457  16.561 -0.0724  0.0961 -0.7466
12202TIP3    H158097   2.634   4.493  16.472  0.7689 -0.1490 -0.8682
12202TIP3    H258098   2.578   4.381  16.558 -1.0756  0.8317 -0.7412
12203TIP3   OH258099   6.257   2.344   6.096 -0.2895 -0.0397  0.3450
12203TIP3    H158100   6.236   2.260   6.056  2.7714 -0.1328 -1.4516
12203TIP3    H258101   6.266   2.326   6.189 -0.9030 -1.4242  0.1502
12204TIP3   OH258102   3.290   2.561   3.648  0.1033 -0.0436  0.4179
12204TIP3    H158103   3.274   2.579   3.741  0.1941  2.6573  0.0015
12204TIP3    H258104   3.381   2.534   3.644 -0.3703 -1.9040  1.2693
12205TIP3   OH258105   5.102   4.920  11.329  0.2622 -0.2463 -0.5338
12205TIP3    H158106   5.187   4.902  11.369 -0.5535 -0.4823  1.1776
12205TIP3    H258107   5.102   4.866  11.249  1.6507 -0.3346 -0.5106
12206TIP3   OH258108   5.330   3.725   1.745  0.4340  0.2541 -0.1118
12206TIP3    H158109   5.376   3.653   1.702  0.6072 -0.4007  1.1166
12206TIP3    H258110   5.297   3.779   1.673  2.5280  0.3820 -1.0532
12207TIP3   OH258111   2.077   6.584   5.415  0.8789  0.0792 -0.2278
12207TIP3    H158112   2.043   6.495   5.405 -1.3907  0.9644 -0.7733
12207TIP3    H258113   2.167   6.578   5.381  1.6665 -2.4805  1.8788
12208TIP3   OH258114   4.218   6.652   2.809 -0.1422 -0.1342  0.1762
12208TIP3    H158115   4.171   6.734   2.822  1.6942  1.4140 -2.3529
12208TIP3    H258116   4.149   6.585   2.814 -1.8428  1.5734  1.2357
12209TIP3   OH258117   2.835   1.180  15.215  0.6055 -0.2992 -0.5582
12209TIP3    H158118   2.817   1.154  15.124 -0.7526 -0.6242 -0.2214
12209TIP3    H258119   2.761   1.236  15.238  0.2460 -1.2641  0.7571
12210TIP3   OH258120   1.195   2.025  14.752  0.7675 -0.4036  0.2533
12210TIP3    H158121   1.126   2.068  14.802  1.3583  2.5132 -1.1738
12210TIP3    H258122   1.209   2.082  14.677  3.0678 -2.1624 -0.7917
12211TIP3   OH258123   0.653   6.297   0.889  0.2574  0.8198 -0.3748
12211TIP3    H158124   0.659   6.391   0.872 -1.4475  0.6295 -2.4830
12211TIP3    H258125   0.722   6.258   0.835  0.6064  0.8190  0.0702
12212TIP3   OH258126   3.183   2.928   3.781 -0.0630 -0.2693  0.2092
12212TIP3    H158127   3.088   2.944   3.782 -0.2885 -1.5112 -0.0004
12212TIP3    H258128   3.206   2.917   3.874 -0.0416  0.4363  0.2927
12213TIP3   OH258129   5.884   1.522   2.234  0.4127 -0.9533  0.4233
12213TIP3    H158130   5.919   1.445   2.278  1.5066 -1.0911 -0.6469
12213TIP3    H258131   5.928   1.524   2.149  0.2098  0.7108  0.3184
12214TIP3   OH258132   3.580   3.549   2.010  1.4423  0.0146 -0.1724
12214TIP3    H158133   3.534   3.465   2.009  0.4509  0.4968  1.1375
12214TIP3    H258134   3.555   3.592   1.928 -2.6875  1.3265  1.4729
12215TIP3   OH258135   2.742   5.456   0.978 -1.1610 -0.1488 -0.6350
12215TIP3    H158136   2.653   5.458   0.943 -1.2738 -0.7588 -0.3912
12215TIP3    H258137   2.796   5.497   0.910 -1.8234  1.5814 -0.1743
12216TIP3   OH258138   3.539   4.640   4.026 -0.5067 -0.0700 -0.4289
12216TIP3    H158139   3.496   4.709   3.976 -2.1685 -0.3443  0.5383
12216TIP3    H258140   3.473   4.612   4.089  1.5286  0.3804  2.0603
12217TIP3   OH258141   5.235   4.993   2.772 -0.3687 -0.0479  0.5388
12217TIP3    H158142   5.180   5.017   2.697 -0.1547  2.2493  1.0433
12217TIP3    H258143   5.174   4.985   2.845 -0.5485 -2.0646  0.2176
12218TIP3   OH258144   1.139   4.528  12.405 -0.2459  0.4908 -0.1329
12218TIP3    H158145   1.050   4.496  12.414 -0.4253  0.2492 -2.2175
12218TIP3    H258146   1.140   4.573  12.320  2.5514 -2.9903 -2.2680
12219TIP3   OH258147   1.414   3.869  13.166  0.0998  0.2433 -0.0857
12219TIP3    H158148   1.482   3.931  13.194 -0.1463  1.8846 -2.8032
12219TIP3    H258149   1.463   3.794  13.132  0.4745  0.2838  0.3500
12220TIP3   OH258150   3.003   5.193   6.204  0.4250 -0.6190  0.1442
12220TIP3    H158151   2.990   5.267   6.264 -0.6342 -0.7388  0.0848
12220TIP3    H258152   2.936   5.205   6.137  2.2361  0.0895 -1.6451
12221TIP3   OH258153   4.195   5.120  16.406  0.0576  0.4636 -0.7397
12221TIP3    H158154   4.246   5.163  16.475  0.1905 -0.2420 -0.3926
12221TIP3    H258155   4.234   5.034  16.397 -1.7278 -0.5211  0.3005
12222TIP3   OH258156   2.775   0.115  15.094  0.1625 -0.0001 -0.5664
12222TIP3    H158157   2.710   0.153  15.154  0.6870 -0.5701  0.3988
12222TIP3    H258158   2.763   0.020  15.104  0.9488 -0.1065 -0.5791
12223TIP3   OH258159   2.132   4.881   1.228  0.1781  0.5789 -0.1263
12223TIP3    H158160   2.195   4.928   1.174  0.4653  0.8787  0.4684
12223TIP3    H258161   2.048   4.925   1.212  0.1314  0.2609 -0.8152
12224TIP3   OH258162   5.887   6.306  16.414  0.2264 -0.4730  0.0694
12224TIP3    H158163   5.926   6.351  16.339  0.5023 -0.0726  0.4471
12224TIP3    H258164   5.808   6.266  16.379  0.4456 -0.4397 -0.4766
12225TIP3   OH258165   1.993   5.584   6.131  0.0801  0.7711 -0.1816
12225TIP3    H158166   1.934   5.530   6.184  0.7808  2.1811  2.1467
12225TIP3    H258167   2.053   5.623   6.194  0.8399  2.7246 -2.0103
12226TIP3   OH258168   0.473   0.994  15.710 -0.2897  0.0233  0.2241
12226TIP3    H158169   0.540   1.049  15.670 -1.1392  1.3765  0.5780
12226TIP3    H258170   0.497   0.905  15.686  1.1372  0.5432 -0.3726
12227TIP3   OH258171   3.749   1.465   4.832 -0.2984 -0.3262 -0.0035
12227TIP3    H158172   3.831   1.431   4.795 -0.6346 -3.4551  1.7902
12227TIP3    H258173   3.685   1.450   4.763 -0.1596 -2.2831  0.2271
12228TIP3   OH258174   5.573   1.538   5.284  0.4292 -0.2368 -0.8853
12228TIP3    H158175   5.646   1.485   5.316  0.5900  0.1847 -0.5436
12228TIP3    H258176   5.557   1.602   5.354 -0.0323 -0.0950 -1.1121
12229TIP3   OH258177   1.117   0.864  16.104  0.2840  0.1339  0.4052
12229TIP3    H158178   1.109   0.852  16.199  1.1579  1.5896  0.6961
12229TIP3    H258179   1.032   0.839  16.069 -0.1242 -0.2117  1.5901
12230TIP3   OH258180   2.248   3.808  16.651 -0.1535  0.4956 -0.1203
12230TIP3    H158181   2.297   3.729  16.677 -0.4399  0.0743 -0.8424
12230TIP3    H258182   2.307   3.854  16.592 -0.1324  0.6410  0.0118
12231TIP3   OH258183   4.602   0.383  13.928 -0.5554 -0.4868  0.0943
12231TIP3    H158184   4.603   0.317  13.997  0.9806 -1.8911 -1.1871
12231TIP3    H258185   4.691   0.383  13.892 -0.5461  2.1606 -0.1137
12232TIP3   OH258186   0.862   6.609  11.366  0.0244  0.0409 -0.0466
12232TIP3    H158187   0.906   6.527  11.389 -1.2997 -0.8728 -0.6671
12232TIP3    H258188   0.933   6.672  11.358  1.3498 -1.5795 -1.9688
12233TIP3   OH258189   1.001   6.299   3.450 -0.1379 -0.4649 -0.2002
12233TIP3    H158190   1.003   6.380   3.400  0.6825 -0.2826  0.1131
12233TIP3    H258191   1.060   6.240   3.403  1.1879 -0.0685  0.8927
12234TIP3   OH258192   4.390   4.206  13.917 -0.6745  0.2300 -0.0731
12234TIP3    H158193   4.383   4.116  13.950  0.0364  0.6934  1.4461
12234TIP3    H258194   4.375   4.198  13.823 -1.4609 -1.3605  0.1424
12235TIP3   OH258195   4.896   5.902   5.253 -0.3741 -0.6729  0.4309
12235TIP3    H158196   4.946   5.983   5.248 -0.5043 -0.6412 -0.5424
12235TIP3    H258197   4.853   5.895   5.168 -3.3579  0.1552  1.7422
12236TIP3   OH258198   6.290   4.000  16.739 -0.0139 -0.4951  0.0442
12236TIP3    H158199   6.345   4.063  16.692 -1.0303 -0.3230 -0.9860
12236TIP3    H258200   6.312   3.915  16.701 -2.6247 -0.1138 -2.7846
12237TIP3   OH258201   2.027   1.909   1.503  0.1962 -0.3383  0.2418
12237TIP3    H158202   1.960   1.866   1.555 -0.5441 -0.5136 -0.8110
12237TIP3    H258203   2.026   1.862   1.419  0.7815  0.4410 -0.2206
12238TIP3   OH258204   3.229   1.374  13.372 -0.2338  0.0205 -0.2480
12238TIP3    H158205   3.255   1.372  13.279  0.6698  0.0232 -0.0052
12238TIP3    H258206   3.135   1.359  13.371 -0.1353 -0.5865 -1.1320
12239TIP3   OH258207   3.407   2.158  12.538  0.2325 -0.0881 -0.0008
12239TIP3    H158208   3.494   2.140  12.574  0.0784 -0.2107  0.3178
12239TIP3    H258209   3.381   2.077  12.495 -1.2782 -1.4033  3.0917
12240TIP3   OH258210   6.073   6.679  15.841 -0.4895 -0.2046  0.0245
12240TIP3    H158211   5.980   6.658  15.833 -0.6318  0.5981 -0.4585
12240TIP3    H258212   6.117   6.605  15.799 -0.9429 -0.0781 -0.6839
12241TIP3   OH258213   5.129   3.860   3.566 -0.0432  0.1032 -0.4540
12241TIP3    H158214   5.139   3.954   3.548  0.0107  0.0602 -0.6577
12241TIP3    H258215   5.076   3.856   3.645  1.6676  0.3612  0.7814
12242TIP3   OH258216   1.742   2.884   0.840  0.8206 -0.2420 -0.6829
12242TIP3    H158217   1.822   2.936   0.836  1.4457 -1.2012 -1.0412
12242TIP3    H258218   1.709   2.897   0.929  2.1836 -0.9816 -0.0294
12243TIP3   OH258219   0.179   3.028  11.180  0.4220 -0.4033  0.2718
12243TIP3    H158220   0.137   2.942  11.177  0.3141 -0.3260 -0.5456
12243TIP3    H258221   0.239   3.028  11.105 -1.4641  1.1914 -1.3495
12244TIP3   OH258222   5.494   6.362   0.358 -0.5691 -0.4837  0.3182
12244TIP3    H158223   5.560   6.297   0.333  0.5550  0.0920  1.6564
12244TIP3    H258224   5.475   6.342   0.450 -0.4667  0.8413  0.6446
12245TIP3   OH258225   6.761   2.934  16.283  0.5275 -0.6462 -0.1123
12245TIP3    H158226   6.753   2.877  16.360 -2.0194  0.9514  0.9208
12245TIP3    H258227   6.692   2.905  16.224 -1.3940  1.8020  0.8094
12246TIP3   OH258228   0.851   5.716   3.678  0.0217  0.5313 -0.0349
12246TIP3    H158229   0.828   5.755   3.594 -0.6535 -1.6540 -0.9489
12246TIP3    H258230   0.815   5.627   3.673 -0.8070  0.6084  2.9351
12247TIP3   OH258231   1.819   3.466  12.487  0.8301 -0.3543 -0.3038
12247TIP3    H158232   1.758   3.538  12.505  1.9030  1.2363 -2.4798
12247TIP3    H258233   1.794   3.397  12.548 -1.1783  1.3380  0.9248
12248TIP3   OH258234   3.383   2.697   1.518 -0.1096  0.1415 -0.0186
12248TIP3    H158235   3.396   2.693   1.613 -0.8540  0.6674  0.1139
12248TIP3    H258236   3.446   2.763   1.488 -0.6818  0.8434  0.2792
12249TIP3   OH258237   2.608   5.824  16.885 -0.7065  0.2217 -0.1064
12249TIP3    H158238   2.703   5.817  16.879 -0.7229 -0.8220  0.5378
12249TIP3    H258239   2.578   5.824  16.794 -0.1367 -0.3699 -0.3016
12250TIP3   OH258240   2.756   2.856  15.130 -0.1079  0.2699 -0.0891
12250TIP3    H158241   2.667   2.870  15.163 -0.0367  0.8192 -0.1307
12250TIP3    H258242   2.759   2.762  15.111 -0.1752 -0.0427  1.3528
12251TIP3   OH258243   2.666   3.736  14.367 -0.6418 -0.2232 -0.0795
12251TIP3    H158244   2.649   3.830  14.360  0.9001  0.1732  1.0065
12251TIP3    H258245   2.752   3.725  14.326  0.2302 -0.7655  1.8216
12252TIP3   OH258246   4.944   2.462   4.586 -0.1246  0.2189  0.0686
12252TIP3    H158247   4.888   2.409   4.529  0.7453  0.7212 -1.2817
12252TIP3    H258248   5.021   2.481   4.533  0.6685  0.7934  1.3911
12253TIP3   OH258249   1.418   3.714  12.204  0.0807  0.3680  0.0606
12253TIP3    H158250   1.502   3.759  12.205 -0.9298  2.3624  0.9230
12253TIP3    H258251   1.382   3.729  12.292 -0.5232 -1.7973  0.2535
12254TIP3   OH258252   2.606   4.545   0.164  0.7171  0.2389  0.4406
12254TIP3    H158253   2.560   4.610   0.217  2.2010  1.5885  0.1773
12254TIP3    H258254   2.545   4.472   0.157 -1.0084  1.5589  0.8334
12255TIP3   OH258255   4.722   1.769  14.378 -0.1827 -0.2590 -0.5038
12255TIP3    H158256   4.695   1.845  14.429 -1.7012 -1.2745  0.2968
12255TIP3    H258257   4.678   1.781  14.293  1.0899  0.6524 -1.0656
12256TIP3   OH258258   4.497   6.767   0.441 -0.3436  0.1424 -0.3553
12256TIP3    H158259   4.426   6.785   0.503 -1.0689 -1.6180 -0.5811
12256TIP3    H258260   4.451   6.747   0.359  0.4455 -0.3305 -0.6904
12257TIP3   OH258261   2.905   5.857  12.540 -0.3996  0.0809  0.0699
12257TIP3    H158262   2.837   5.893  12.482  1.4997  0.7502 -1.8634
12257TIP3    H258263   2.894   5.762  12.534  0.7686  0.0473 -2.7994
12258TIP3   OH258264   4.685   2.702   2.461  0.2249  0.0284  0.1543
12258TIP3    H158265   4.742   2.734   2.391  1.4487 -0.8862  0.7040
12258TIP3    H258266   4.675   2.609   2.443 -0.8210  0.1068  0.2793
12259TIP3   OH258267   3.856   1.054   3.409  0.3814  0.2294  0.2695
12259TIP3    H158268   3.778   1.106   3.390  0.4025 -0.2284 -1.1630
12259TIP3    H258269   3.884   1.020   3.324  1.5462 -0.4626  0.9012
12260TIP3   OH258270   1.927   2.445   5.096 -0.0049 -0.3825  0.7312
12260TIP3    H158271   1.946   2.499   5.019 -0.9165 -0.1928  0.6345
12260TIP3    H258272   2.009   2.446   5.146  0.9896 -1.4231 -0.7653
12261TIP3   OH258273   3.100   0.538  12.235  0.2643 -0.3947  0.7841
12261TIP3    H158274   3.065   0.457  12.272  1.0358 -2.0935 -1.9590
12261TIP3    H258275   3.195   0.523  12.229  0.3832  0.5649 -0.0781
12262TIP3   OH258276   3.853   1.817  13.147  0.2113  0.5263  0.0298
12262TIP3    H158277   3.891   1.777  13.069 -1.6082 -2.5447  0.5297
12262TIP3    H258278   3.783   1.874  13.114 -1.4128 -1.7278 -0.7124
12263TIP3   OH258279   5.252   5.119  16.014 -0.3281  0.3643  0.5140
12263TIP3    H158280   5.216   5.200  15.981  1.2134  0.4027 -1.2560
12263TIP3    H258281   5.301   5.144  16.093  1.2939  1.4623 -0.7745
12264TIP3   OH258282   1.887   5.207  17.136  0.5746  0.5808 -0.2729
12264TIP3    H158283   1.911   5.255  17.215  2.3300 -0.2483 -0.2681
12264TIP3    H258284   1.920   5.261  17.064  3.4655 -0.9756 -0.2428
12265TIP3   OH258285   4.413   0.763   1.144 -0.2012  0.3850  0.4623
12265TIP3    H158286   4.400   0.669   1.159  3.2536 -0.2866  0.0140
12265TIP3    H258287   4.460   0.768   1.061  1.3691  2.3537  1.3921
12266TIP3   OH258288   6.553   1.452   0.361  0.0998 -0.0238 -0.0015
12266TIP3    H158289   6.542   1.503   0.282  2.9058  1.0808  0.1999
12266TIP3    H258290   6.467   1.414   0.378 -0.7088  0.0899 -3.2641
12267TIP3   OH258291   6.465   3.197   1.018  0.5771  0.4693 -0.0161
12267TIP3    H158292   6.443   3.226   0.930  0.6573  0.7863  0.0679
12267TIP3    H258293   6.528   3.261   1.049 -1.1308  1.6947  1.1229
12268TIP3   OH258294   4.810   0.814  14.055  0.0168  0.2734  0.5940
12268TIP3    H158295   4.822   0.866  13.976 -0.8162  0.4534  0.5737
12268TIP3    H258296   4.875   0.744  14.048 -0.1981  0.1521 -0.3646
12269TIP3   OH258297   5.670   0.964   1.630 -0.4814  0.2954 -0.1028
12269TIP3    H158298   5.614   1.041   1.626 -1.6691 -0.2464  3.1396
12269TIP3    H258299   5.746   0.992   1.681 -0.2963 -0.3081 -0.0405
12270TIP3   OH258300   6.468   4.206  13.288 -0.3908  0.0280 -0.3895
12270TIP3    H158301   6.378   4.237  13.277 -0.0704  0.8074 -0.9432
12270TIP3    H258302   6.467   4.115  13.258 -1.2753 -0.4011  0.8816
12271TIP3   OH258303   3.118   5.135   0.977  0.6426  0.0849  0.0818
12271TIP3    H158304   3.201   5.104   0.939  0.0455 -0.1055 -1.1234
12271TIP3    H258305   3.128   5.122   1.071  2.9585  2.3771  0.2813
12272TIP3   OH258306   1.789   6.832  15.804 -0.6952 -0.1745  0.0891
12272TIP3    H158307   1.755   6.874  15.883  0.8573 -0.2813  0.8453
12272TIP3    H258308   1.713   6.823  15.747 -1.6636  0.7761  1.1860
12273TIP3   OH258309   0.877   2.171  10.394 -0.0955 -0.0979  0.4462
12273TIP3    H158310   0.921   2.153  10.311 -1.9386 -3.9967  0.1054
12273TIP3    H258311   0.948   2.182  10.457  1.3197  0.4825 -1.1698
12274TIP3   OH258312   4.460   4.447   0.983 -0.4532  0.3746 -0.5057
12274TIP3    H158313   4.547   4.414   0.959 -0.0042  1.0729  0.1155
12274TIP3    H258314   4.411   4.370   1.010  0.6582  0.2108  1.1694
12275TIP3   OH258315   5.902   6.677  14.275  0.2002 -0.0430  0.2770
12275TIP3    H158316   5.862   6.764  14.272  1.5609  0.7290  2.3006
12275TIP3    H258317   5.976   6.683  14.215  0.8888  0.5519  1.1638
12276TIP3   OH258318   3.767   6.694  11.238  0.3424 -0.1140  0.0202
12276TIP3    H158319   3.787   6.679  11.146 -0.6141  1.3730 -0.4565
12276TIP3    H258320   3.816   6.626  11.284  1.6943 -0.2414 -1.5011
12277TIP3   OH258321   4.827   3.396  14.415 -0.6371 -0.0556 -0.2080
12277TIP3    H158322   4.787   3.332  14.356 -0.6875 -2.1942  2.0185
12277TIP3    H258323   4.758   3.461  14.431 -1.5903 -1.0451 -0.2266
12278TIP3   OH258324   0.523   2.011   5.848 -0.2479  0.3013 -0.3020
12278TIP3    H158325   0.461   2.075   5.885 -1.7115 -1.0108 -0.3954
12278TIP3    H258326   0.567   1.974   5.925 -0.1402  0.6727 -0.1808
12279TIP3   OH258327   0.049   5.677   2.359  0.2679  0.1668  1.0835
12279TIP3    H158328   0.038   5.710   2.269  1.2549 -2.6447 -0.1883
12279TIP3    H258329  -0.041   5.671   2.393 -0.3547 -0.9377 -0.6238
12280TIP3   OH258330   4.755   5.474   6.316  0.0859  0.2413 -0.1725
12280TIP3    H158331   4.724   5.424   6.391 -1.5137 -0.0686 -0.9964
12280TIP3    H258332   4.796   5.552   6.354 -2.0206  0.8522  1.0083
12281TIP3   OH258333   6.266   0.376  13.794  0.0976  0.3115 -0.1869
12281TIP3    H158334   6.342   0.346  13.845  0.2797  2.1879  0.7355
12281TIP3    H258335   6.251   0.465  13.825 -1.0476  0.8054 -2.0364
12282TIP3   OH258336   3.685   5.371   5.240 -0.1666  0.0273  0.1378
12282TIP3    H158337   3.592   5.364   5.262 -0.0761  2.4304  1.6930
12282TIP3    H258338   3.729   5.318   5.307 -0.3863 -0.9290 -0.4633
12283TIP3   OH258339   2.408   6.242   3.340  0.6745  0.4362 -0.3366
12283TIP3    H158340   2.473   6.296   3.295  0.8826  0.5182  0.0547
12283TIP3    H258341   2.417   6.267   3.432 -1.3803  2.0352 -0.5002
12284TIP3   OH258342   3.784   2.072   2.623  0.3004  0.0314  0.4407
12284TIP3    H158343   3.856   2.131   2.641 -0.0147  0.2677  0.9546
12284TIP3    H258344   3.821   2.005   2.565  1.6225 -1.2895  2.6801
12285TIP3   OH258345   0.880   2.347   3.389 -0.3819  0.4029  0.1472
12285TIP3    H158346   0.896   2.315   3.478  0.1925 -0.6806 -0.3258
12285TIP3    H258347   0.936   2.425   3.382  1.5113 -0.8990 -0.0518
12286TIP3   OH258348   1.670   2.065  13.444 -0.3569 -0.6210 -0.0900
12286TIP3    H158349   1.707   2.125  13.508  0.8541  2.0574 -3.0488
12286TIP3    H258350   1.577   2.087  13.440 -0.6043 -1.3380  1.1857
12287TIP3   OH258351   6.354   5.481  13.271  0.1941  0.1303 -0.8592
12287TIP3    H158352   6.317   5.563  13.239  1.1941  0.8503 -0.2440
12287TIP3    H258353   6.413   5.507  13.341 -0.6311 -1.2534  0.4220
12288TIP3   OH258354   2.268   0.699  13.526 -0.1962 -0.6292 -0.4077
12288TIP3    H158355   2.305   0.728  13.609 -0.2191 -1.5773 -0.0571
12288TIP3    H258356   2.192   0.755  13.513  0.2723  0.0639 -0.1929
12289TIP3   OH258357   5.282   4.823   0.461  0.3326  0.0119 -0.1564
12289TIP3    H158358   5.212   4.807   0.397 -0.2412 -2.0741  0.9057
12289TIP3    H258359   5.342   4.750   0.448  1.1727  0.5856  0.4498
12290TIP3   OH258360   1.008   3.968  11.782 -0.0680  0.5681 -0.1031
12290TIP3    H158361   0.922   3.993  11.748 -0.6846  0.7170  1.4757
12290TIP3    H258362   1.050   4.051  11.806 -0.8853  0.3746  2.2729
12291TIP3   OH258363   0.583   6.463   1.136  0.1152 -0.0342 -0.8496
12291TIP3    H158364   0.533   6.393   1.094  0.3926  0.5296 -2.1607
12291TIP3    H258365   0.525   6.539   1.134  0.3291  0.1364 -0.7047
12292TIP3   OH258366   4.355   3.504  16.914  0.0849 -0.2967 -0.1096
12292TIP3    H158367   4.346   3.599  16.912 -0.6693 -0.3540  0.2249
12292TIP3    H258368   4.291   3.472  16.851 -1.7523 -0.6858  1.8279
12293TIP3   OH258369   0.958   1.645  14.141 -0.8734  0.2261 -0.2569
12293TIP3    H158370   1.022   1.637  14.069 -1.7621 -0.5665 -0.9884
12293TIP3    H258371   0.996   1.710  14.200  1.2742 -1.2163  0.0406
12294TIP3   OH258372   1.378   3.973   6.492 -0.4008 -0.0947 -0.0945
12294TIP3    H158373   1.304   3.979   6.552  0.0318  1.9068  0.2951
12294TIP3    H258374   1.441   3.918   6.538  0.0604  1.6699  1.5076
12295TIP3   OH258375   3.693   4.605   0.797  0.5031  0.5011 -0.5649
12295TIP3    H158376   3.713   4.693   0.829  1.4580  0.2792 -0.5371
12295TIP3    H258377   3.725   4.547   0.866  0.6956  0.0941 -0.9951
12296TIP3   OH258378   2.096   5.193  14.128  0.1112 -0.1019 -0.3235
12296TIP3    H158379   2.150   5.179  14.050  2.4734  0.0471  1.1866
12296TIP3    H258380   2.072   5.286  14.125 -1.1132 -0.4267 -1.5994
12297TIP3   OH258381   3.684   2.730   2.349  0.6856  0.3422 -0.3892
12297TIP3    H158382   3.764   2.779   2.367  1.5486 -1.7449  2.0423
12297TIP3    H258383   3.704   2.640   2.377 -2.7967 -0.0588  1.3738
12298TIP3   OH258384   3.502   6.831   1.070  0.0739 -0.2401 -0.4060
12298TIP3    H158385   3.438   6.878   1.017 -0.7029  1.0201  1.5320
12298TIP3    H258386   3.587   6.853   1.031 -0.0677  4.1993  1.2505
12299TIP3   OH258387   4.394   4.358  16.343  1.1009 -0.0406  0.1278
12299TIP3    H158388   4.431   4.270  16.347 -1.1301 -1.3171 -2.9043
12299TIP3    H258389   4.469   4.416  16.332  2.4830 -1.9049 -0.7929
12300TIP3   OH258390   2.395   1.176  15.465  0.1846 -0.7999  0.0682
12300TIP3    H158391   2.481   1.148  15.434  0.3591  0.7250 -0.9535
12300TIP3    H258392   2.402   1.176  15.560  0.5431 -2.9017  0.0918
12301TIP3   OH258393   2.624   4.743   1.546  0.0594  0.5537  0.1589
12301TIP3    H158394   2.617   4.744   1.450  1.4721 -1.7637 -0.0568
12301TIP3    H258395   2.534   4.733   1.576 -0.2207 -1.1869 -1.0971
12302TIP3   OH258396   5.051   2.865   2.066  0.1007  0.7631 -0.6099
12302TIP3    H158397   5.096   2.894   1.987  0.0028  0.0932 -0.9223
12302TIP3    H258398   5.060   2.937   2.127  1.2552  0.8086 -0.8147
12303TIP3   OH258399   5.967   4.424   5.045 -0.2962  0.3380 -0.3144
12303TIP3    H158400   6.033   4.363   5.077 -1.1418 -0.0298  0.8019
12303TIP3    H258401   5.921   4.374   4.977 -0.1237  0.1988 -0.3296
12304TIP3   OH258402   2.281   6.854   1.602  0.8018 -0.3435 -0.2167
12304TIP3    H158403   2.352   6.892   1.654  0.9077 -0.1933 -0.4720
12304TIP3    H258404   2.325   6.802   1.535  0.8079  2.3364 -2.4398
12305TIP3   OH258405   0.119   1.152   5.177 -0.4951  0.8789  0.7650
12305TIP3    H158406   0.084   1.236   5.207 -1.2354  1.1235 -0.7129
12305TIP3    H258407   0.132   1.163   5.083 -2.2446 -1.2058  0.1967
12306TIP3   OH258408   5.097   2.115   3.252 -0.0471 -0.3014  0.7743
12306TIP3    H158409   5.027   2.067   3.208  0.7756 -1.3111  0.5255
12306TIP3    H258410   5.104   2.073   3.338 -0.6239  0.6668  1.3136
12307TIP3   OH258411   0.396   4.654  10.638 -0.2154  0.0179 -0.4239
12307TIP3    H158412   0.430   4.567  10.660  0.3102  0.1668 -0.6427
12307TIP3    H258413   0.352   4.641  10.553 -2.4713 -0.6132  0.7546
12308TIP3   OH258414   0.274   1.519   5.166  0.5513 -0.4758 -0.2276
12308TIP3    H158415   0.245   1.455   5.231  0.3825 -1.3049 -1.0989
12308TIP3    H258416   0.236   1.489   5.084  1.7134 -0.1099 -0.9259
12309TIP3   OH258417   4.421   5.131  10.844  0.1451  0.1433  0.1223
12309TIP3    H158418   4.449   5.174  10.925  0.1463 -0.4637  0.4455
12309TIP3    H258419   4.345   5.182  10.815  0.7044  0.9311 -0.0016
12310TIP3   OH258420   3.819   5.375   2.638 -0.1323 -0.9264 -0.8009
12310TIP3    H158421   3.887   5.368   2.705 -0.9663  0.4448  0.2415
12310TIP3    H258422   3.844   5.311   2.571  0.5509 -2.6087  0.9654
12311TIP3   OH258423   4.655   4.385   1.267  0.1077 -0.2996 -0.2684
12311TIP3    H158424   4.699   4.413   1.187  1.2237 -1.3929 -0.0650
12311TIP3    H258425   4.601   4.310   1.240 -1.6964  1.0153 -0.5137
12312TIP3   OH258426   1.580   2.582  16.385 -0.2257  0.1965 -0.0832
12312TIP3    H158427   1.631   2.606  16.463 -2.1123  0.0177  1.2813
12312TIP3    H258428   1.628   2.510  16.346  0.9264  0.4836  0.7564
12313TIP3   OH258429   1.430   1.538   3.681 -0.1453  0.2936 -0.1708
12313TIP3    H158430   1.506   1.566   3.630 -0.4919  0.0041 -0.8522
12313TIP3    H258431   1.356   1.544   3.621  0.0861 -4.8533 -1.4602
12314TIP3   OH258432   1.732   1.130   5.618  0.1351 -0.2244 -0.8598
12314TIP3    H158433   1.797   1.167   5.676 -0.1649  0.4904 -0.9755
12314TIP3    H258434   1.769   1.138   5.531  1.2972 -2.7534 -0.6801
12315TIP3   OH258435   1.072   5.765  14.154  0.6307 -0.5105  0.6739
12315TIP3    H158436   1.087   5.795  14.244  0.7548  0.8289  0.2280
12315TIP3    H258437   1.081   5.670  14.159  1.4539 -0.3903  1.9193
12316TIP3   OH258438   2.192   2.601   3.215  0.6987 -0.3120  0.1221
12316TIP3    H158439   2.240   2.530   3.258  1.1165  0.2103  0.5395
12316TIP3    H258440   2.200   2.675   3.275  1.0329  0.3469 -0.7153
12317TIP3   OH258441   1.170   6.127  14.725  0.1188  0.5500  0.3111
12317TIP3    H158442   1.238   6.090  14.781 -1.1851 -1.2323  0.8015
12317TIP3    H258443   1.089   6.087  14.756 -0.8870  0.9876 -1.6030
12318TIP3   OH258444   6.272   2.969  15.035 -0.0797 -0.1446 -0.1575
12318TIP3    H158445   6.363   2.998  15.031 -0.0484 -0.0789  0.7370
12318TIP3    H258446   6.273   2.898  15.099 -0.7194  0.1160  0.1458
12319TIP3   OH258447   1.139   5.644  13.086 -0.3398  0.0215  0.1970
12319TIP3    H158448   1.183   5.650  13.001  0.3878  0.8691  0.6157
12319TIP3    H258449   1.205   5.607  13.144 -0.2186  1.1456  0.7947
12320TIP3   OH258450   4.891   0.397   4.722 -0.0986 -0.5032  0.3452
12320TIP3    H158451   4.898   0.306   4.751  0.8214 -0.3978  0.4860
12320TIP3    H258452   4.876   0.447   4.802  1.4578 -0.3205  0.5534
12321TIP3   OH258453   5.746   3.590   3.104 -0.2085  0.2387 -0.3016
12321TIP3    H158454   5.675   3.635   3.150  0.7141  1.3343  0.0918
12321TIP3    H258455   5.757   3.640   3.023  0.7253  0.6363  0.0637
12322TIP3   OH258456   1.561   2.299   5.739 -0.0355 -0.0112  0.3448
12322TIP3    H158457   1.569   2.382   5.693 -0.5501  0.2592  0.7452
12322TIP3    H258458   1.553   2.322   5.831 -1.9470 -0.4006  0.3218
12323TIP3   OH258459   6.363   1.475   4.888 -0.3549 -0.1384  0.2287
12323TIP3    H158460   6.358   1.561   4.846  0.9021 -0.5658 -0.8880
12323TIP3    H258461   6.402   1.492   4.974 -0.9309  0.5090  0.3637
12324TIP3   OH258462   0.662   1.401  12.783  0.2366 -0.0743  0.1218
12324TIP3    H158463   0.616   1.406  12.866  1.5656  1.6781  0.8022
12324TIP3    H258464   0.683   1.491  12.760 -0.0607 -0.5042 -2.1297
12325TIP3   OH258465   6.503   2.410   2.703 -0.1819 -0.2870 -0.0960
12325TIP3    H158466   6.575   2.451   2.750 -0.6773 -0.0290  0.4349
12325TIP3    H258467   6.543   2.380   2.621  0.7923 -1.1300  0.6544
12326TIP3   OH258468   2.398   3.750  15.615 -0.3028 -0.3265  0.2237
12326TIP3    H158469   2.469   3.764  15.678 -0.1769 -0.0316  0.0221
12326TIP3    H258470   2.319   3.752  15.668 -0.2509  0.6477  0.2861
12327TIP3   OH258471   0.662   6.498   0.171 -0.0012  0.1183 -0.3692
12327TIP3    H158472   0.737   6.447   0.141  0.5040 -0.2685  1.4164
12327TIP3    H258473   0.601   6.433   0.204 -0.8600  0.4809 -1.2057
12328TIP3   OH258474   2.106   0.928   1.374 -0.3028  0.1518 -0.1091
12328TIP3    H158475   2.075   1.009   1.333 -0.9288  0.2479  0.5364
12328TIP3    H258476   2.093   0.942   1.467 -1.2294 -1.0246 -0.0389
12329TIP3   OH258477   1.589   2.172  12.714  0.1423 -0.3025 -0.0684
12329TIP3    H158478   1.582   2.102  12.778 -0.5232  0.1748  0.3996
12329TIP3    H258479   1.507   2.221  12.723  0.8396  0.8844  0.0216
12330TIP3   OH258480   3.412   6.175  13.981  0.0896 -0.1383 -0.0766
12330TIP3    H158481   3.358   6.212  13.911 -0.4855  1.2637  1.0637
12330TIP3    H258482   3.349   6.133  14.039  0.4343 -0.2186  0.2348
12331TIP3   OH258483   4.818   4.300   0.413  0.0255 -0.4173 -0.5403
12331TIP3    H158484   4.831   4.332   0.502 -1.5935 -1.7099  0.2160
12331TIP3    H258485   4.899   4.323   0.367  0.1167  2.0924  0.6774
12332TIP3   OH258486   0.346   1.291  14.980  0.3470  0.1593  0.1538
12332TIP3    H158487   0.441   1.294  14.993  0.0907  1.1178  2.1102
12332TIP3    H258488   0.316   1.224  15.040 -0.2167 -0.2857 -0.6084
12333TIP3   OH258489   1.981   4.683   1.828 -0.1465  0.1716  0.5851
12333TIP3    H158490   2.064   4.731   1.835  0.3111  0.1286 -2.6555
12333TIP3    H258491   2.000   4.597   1.866  1.0950  0.4047  0.5561
12334TIP3   OH258492   0.532   6.424   2.047 -0.3333 -0.0173 -0.3897
12334TIP3    H158493   0.474   6.447   2.120  1.2871  1.8359  0.3943
12334TIP3    H258494   0.573   6.341   2.074 -0.7584 -0.0531  0.1707
12335TIP3   OH258495   0.553   1.471   0.655 -0.3641 -0.3771  0.2669
12335TIP3    H158496   0.548   1.552   0.604 -0.7334  1.8246  3.4871
12335TIP3    H258497   0.467   1.430   0.644 -0.0810 -0.5379 -1.6178
12336TIP3   OH258498   4.221   1.731   5.675 -0.3809  0.5943  0.0319
12336TIP3    H158499   4.283   1.791   5.716 -0.3506  0.8472 -0.3729
12336TIP3    H258500   4.246   1.731   5.582 -0.8551  0.5452 -0.1015
12337TIP3   OH258501   3.036   1.115   4.565 -0.1852  0.2260  0.5953
12337TIP3    H158502   3.046   1.096   4.471 -3.2233 -0.9354  0.3876
12337TIP3    H258503   3.077   1.040   4.609 -1.3772 -0.7881  0.0577
12338TIP3   OH258504   4.385   4.429  15.412  0.3971 -0.1929 -0.0948
12338TIP3    H158505   4.412   4.389  15.328 -0.7049  0.1622 -0.6295
12338TIP3    H258506   4.383   4.355  15.473  1.4092 -0.4259 -0.3239
12339TIP3   OH258507   2.520   0.735   0.665  0.0756  0.0593  0.0171
12339TIP3    H158508   2.473   0.701   0.589 -2.4611  0.7797  1.1492
12339TIP3    H258509   2.486   0.824   0.676  0.6897  0.1222  1.7284
12340TIP3   OH258510   3.827   1.227  16.923 -0.5020  0.1824 -0.4949
12340TIP3    H158511   3.822   1.312  16.967 -0.6005  1.2641 -2.4851
12340TIP3    H258512   3.867   1.169  16.987 -0.3873  1.7427  0.9039
12341TIP3   OH258513   2.463   1.014   5.769  0.1478  0.2388  0.2718
12341TIP3    H158514   2.476   1.095   5.818  2.2628 -1.0801  2.0912
12341TIP3    H258515   2.550   0.974   5.764 -0.2993 -0.6135 -3.0871
12342TIP3   OH258516   3.120   0.281  11.738 -0.1733  0.0119 -0.0494
12342TIP3    H158517   3.087   0.363  11.701 -0.2241 -0.3211 -0.7639
12342TIP3    H258518   3.215   0.289  11.734 -0.1717  0.3395  0.5780
12343TIP3   OH258519   5.898   2.154  16.776 -0.1434  0.3438  0.4395
12343TIP3    H158520   5.872   2.075  16.729  1.4940 -0.8486  1.4253
12343TIP3    H258521   5.933   2.212  16.709 -0.1178 -0.3230 -0.1342
12344TIP3   OH258522   0.198   2.726   3.493 -0.2925  0.9289 -0.2984
12344TIP3    H158523   0.132   2.786   3.528  0.3715  3.2210 -2.6339
12344TIP3    H258524   0.184   2.728   3.398  0.4468 -1.9014 -0.5594
12345TIP3   OH258525   5.267   0.494  12.700  0.2671  0.2280  0.1745
12345TIP3    H158526   5.185   0.526  12.662 -0.2837  0.2993  1.3840
12345TIP3    H258527   5.288   0.416  12.648 -0.4526  0.3342 -0.2859
12346TIP3   OH258528   0.313   5.959   0.338 -0.3558  0.1223 -0.4401
12346TIP3    H158529   0.356   5.938   0.421 -1.3450 -1.9143 -0.3803
12346TIP3    H258530   0.385   5.968   0.276  0.2856 -1.1909  0.0742
12347TIP3   OH258531   4.614   3.839  15.198 -0.7340 -0.5732 -0.2488
12347TIP3    H158532   4.647   3.855  15.287 -2.0122  0.9804  0.0062
12347TIP3    H258533   4.646   3.752  15.176  0.8931 -0.3886  1.1366
12348TIP3   OH258534   5.998   5.350  13.562  0.9917  0.9642 -0.1737
12348TIP3    H158535   5.974   5.438  13.533 -0.1103 -0.0563 -2.7350
12348TIP3    H258536   5.931   5.327  13.626  1.1984  1.9172  0.3992
12349TIP3   OH258537   1.297   5.893  16.439  0.3991 -0.3056 -0.2307
12349TIP3    H158538   1.231   5.901  16.370  0.0638  1.3507  0.2469
12349TIP3    H258539   1.371   5.849  16.396  0.3514  1.0336 -1.7867
12350TIP3   OH258540   3.688   4.445  12.544 -0.8369  0.2831 -0.1396
12350TIP3    H158541   3.755   4.390  12.585  0.5582  0.8554 -1.5383
12350TIP3    H258542   3.730   4.530  12.532 -1.9136  0.7549 -0.7808
12351TIP3   OH258543   0.309   6.342  15.797 -0.9266 -0.3548 -0.0377
12351TIP3    H158544   0.380   6.306  15.850  1.3618  0.1902 -2.5027
12351TIP3    H258545   0.297   6.278  15.727 -1.8371  0.2820 -0.4846
12352TIP3   OH258546   6.753   5.858   2.555  0.3653  0.2433  0.4339
12352TIP3    H158547   6.756   5.916   2.479 -0.6221 -2.6182 -2.0261
12352TIP3    H258548   6.839   5.816   2.557  0.1493 -0.2071  0.4365
12353TIP3   OH258549   6.643   6.637  11.447  0.0489  0.1580 -0.3363
12353TIP3    H158550   6.710   6.702  11.426 -0.0541  0.3757 -0.0053
12353TIP3    H258551   6.660   6.565  11.388  2.2260 -0.9178  1.4528
12354TIP3   OH258552   2.090   6.782   1.799  0.4131 -0.1233  0.3491
12354TIP3    H158553   2.148   6.814   1.729  0.1805 -1.5999 -0.5681
12354TIP3    H258554   2.132   6.812   1.879  1.9902 -0.3780 -0.3302
12355TIP3   OH258555   6.050   0.546  13.311  0.0083 -0.1422 -0.1366
12355TIP3    H158556   6.105   0.535  13.389 -0.2001 -2.1011 -0.2054
12355TIP3    H258557   5.968   0.503  13.333 -0.9924  1.4505 -0.5827
12356TIP3   OH258558   4.921   2.605  11.043  0.0999  0.1488  0.2475
12356TIP3    H158559   4.894   2.517  11.067  0.1507  0.0252 -0.1430
12356TIP3    H258560   4.844   2.659  11.059 -0.3009 -0.1527 -0.5886
12357TIP3   OH258561   6.175   1.205  14.160  0.0591  0.0268 -0.2512
12357TIP3    H158562   6.177   1.235  14.069 -1.6173 -1.4356 -0.8137
12357TIP3    H258563   6.258   1.159  14.172  0.9307  1.4445 -0.5582
12358TIP3   OH258564   0.054   4.394  15.375  0.2403 -0.1485  0.1344
12358TIP3    H158565   0.016   4.429  15.455 -0.6792 -0.2948 -0.2295
12358TIP3    H258566   0.025   4.454  15.306  0.4519 -0.4171 -0.1929
12359TIP3   OH258567   5.347   6.684   5.045  0.2138 -0.4099  0.5064
12359TIP3    H158568   5.382   6.650   5.128 -1.7834  1.3045  2.1820
12359TIP3    H258569   5.253   6.693   5.061 -0.3238 -0.5838 -2.2039
12360TIP3   OH258570   6.389   1.089   0.772 -0.7696 -0.3925 -0.2871
12360TIP3    H158571   6.300   1.070   0.743 -0.8595 -0.1887 -0.1505
12360TIP3    H258572   6.381   1.097   0.868 -0.7266  0.2630 -0.3324
12361TIP3   OH258573   1.539   3.140  11.846  0.6130 -0.2723 -0.0526
12361TIP3    H158574   1.568   3.177  11.930 -0.1496 -0.4020  0.2793
12361TIP3    H258575   1.456   3.097  11.867 -0.0540  0.4903 -1.0593
12362TIP3   OH258576   5.108   0.098  16.617  0.2951 -0.0050 -0.0898
12362TIP3    H158577   5.130   0.189  16.598  3.2951 -0.9910 -2.0824
12362TIP3    H258578   5.188   0.062  16.656 -0.3762 -2.0811 -0.5253
12363TIP3   OH258579   3.777   6.655   2.275  0.3121 -0.3513 -0.0158
12363TIP3    H158580   3.833   6.680   2.348 -0.0523 -0.3544  0.2652
12363TIP3    H258581   3.833   6.599   2.220  1.0246  0.7912 -0.4890
12364TIP3   OH258582   5.540   4.443   0.341  0.5161  0.2703  0.1677
12364TIP3    H158583   5.631   4.414   0.331  0.4550  0.0903  0.1324
12364TIP3    H258584   5.506   4.448   0.251 -0.0174 -1.2983  0.2501
12365TIP3   OH258585   1.263   6.127  11.645  0.1188  0.1998  0.2701
12365TIP3    H158586   1.172   6.153  11.663  0.2111  0.0720  0.9725
12365TIP3    H258587   1.308   6.139  11.729  0.5285 -0.6741  0.1856
12366TIP3   OH258588   1.229   1.973   5.105 -0.6736 -0.1469  0.2768
12366TIP3    H158589   1.201   1.959   5.196 -1.2658  0.4479  0.1992
12366TIP3    H258590   1.312   1.926   5.098 -1.0318 -0.8948  0.8858
12367TIP3   OH258591   6.734   5.367  15.098 -0.3551  0.0185  0.2877
12367TIP3    H158592   6.742   5.374  15.193 -0.2100  0.2606  0.2594
12367TIP3    H258593   6.821   5.338  15.069 -0.1880  0.6050  0.1705
12368TIP3   OH258594   3.397   5.109  12.925  0.0026  0.1623  0.3710
12368TIP3    H158595   3.445   5.036  12.884 -0.0050  1.2405 -1.6816
12368TIP3    H258596   3.426   5.107  13.016  0.4262 -2.0450  0.2622
12369TIP3   OH258597   1.029   0.285   2.243 -0.0496  0.4242  0.6586
12369TIP3    H158598   0.953   0.327   2.283  0.3006  0.3454  1.4237
12369TIP3    H258599   1.101   0.305   2.302  0.7315  1.3086 -0.5532
12370TIP3   OH258600   6.174   0.238   5.407  0.3812  0.1608 -0.1654
12370TIP3    H158601   6.111   0.247   5.479 -1.1088 -0.5724 -1.3260
12370TIP3    H258602   6.138   0.167   5.353  3.1638 -1.5947  0.0910
12371TIP3   OH258603   3.270   0.141   4.218  0.0891 -0.0027 -0.2959
12371TIP3    H158604   3.184   0.127   4.178 -0.0647 -0.7019  0.2617
12371TIP3    H258605   3.275   0.236   4.229 -0.7827  0.0237  0.0054
12372TIP3   OH258606   3.276   3.091   2.018 -0.4659  0.0038 -0.1404
12372TIP3    H158607   3.254   3.172   1.973 -1.1822 -1.0467 -1.8173
12372TIP3    H258608   3.367   3.075   1.995 -0.9233 -0.7101 -1.6479
12373TIP3   OH258609   0.943   5.893  12.244  0.5750  0.0928  0.0071
12373TIP3    H158610   1.032   5.915  12.215  0.2366 -0.2436 -1.3971
12373TIP3    H258611   0.897   5.976  12.246  0.4882  0.0789 -0.9177
12374TIP3   OH258612   3.798   3.026  12.472 -0.0491 -0.1019 -0.3535
12374TIP3    H158613   3.789   2.931  12.463  1.5183 -0.3080  0.0548
12374TIP3    H258614   3.842   3.038  12.556  1.9078  0.8492 -1.4721
12375TIP3   OH258615   3.662   2.851  16.239  0.3470  0.4730  0.4007
12375TIP3    H158616   3.732   2.786  16.242  0.0714  0.1729  0.3648
12375TIP3    H258617   3.582   2.800  16.221  0.3315  0.9741 -1.0504
12376TIP3   OH258618   3.899   3.562  11.563  0.4630  0.8816  0.1133
12376TIP3    H158619   3.993   3.548  11.556  0.6923  2.5042 -0.6727
12376TIP3    H258620   3.862   3.521  11.485  0.4495 -0.1730  0.6642
12377TIP3   OH258621   4.154   6.309  12.076  0.3558 -0.3241  0.1532
12377TIP3    H158622   4.116   6.223  12.098  1.9244 -1.5023 -1.4050
12377TIP3    H258623   4.157   6.309  11.980  1.1231  1.1542  0.1489
12378TIP3   OH258624   6.176   5.684  11.182 -0.6230  0.6514  0.0674
12378TIP3    H158625   6.222   5.676  11.098  3.4905  1.3462  1.9920
12378TIP3    H258626   6.177   5.596  11.219  0.5822  0.9150  0.7157
12379TIP3   OH258627   6.129   5.083  15.573 -0.1748  0.1476  0.4522
12379TIP3    H158628   6.210   5.037  15.596 -0.2207  0.7680  1.9814
12379TIP3    H258629   6.084   5.095  15.657 -1.3607  0.7318 -0.2458
12380TIP3   OH258630   2.724   3.583   1.855 -0.2408  0.2580  0.3939
12380TIP3    H158631   2.648   3.635   1.881  0.7435  2.1688 -0.3443
12380TIP3    H258632   2.697   3.493   1.869 -2.0199  0.9439  1.7837
12381TIP3   OH258633   5.377   4.876  12.383  0.3822  0.3927  0.1313
12381TIP3    H158634   5.333   4.792  12.368  0.1127  0.7933 -1.4090
12381TIP3    H258635   5.459   4.851  12.426 -0.5770 -0.4793  1.5798
12382TIP3   OH258636   5.132   2.890  11.965 -0.0335 -0.1063 -0.4710
12382TIP3    H158637   5.183   2.960  12.007 -0.5598 -0.2170  0.3801
12382TIP3    H258638   5.193   2.851  11.902  0.7544  0.1318  0.1187
12383TIP3   OH258639   0.629   6.371  10.637 -0.7678 -0.3308  0.1397
12383TIP3    H158640   0.702   6.400  10.582  0.4549 -1.6133  1.0259
12383TIP3    H258641   0.556   6.360  10.576  0.5786 -1.8460 -1.2972
12384TIP3   OH258642   4.177   5.482   6.576 -0.1185  0.6500 -0.0692
12384TIP3    H158643   4.143   5.466   6.664 -0.5263  0.3147 -0.2802
12384TIP3    H258644   4.113   5.441   6.518  0.5435  0.2024 -0.4948
12385TIP3   OH258645   6.212   0.189  15.941 -0.0730 -0.4445 -0.2583
12385TIP3    H158646   6.123   0.162  15.962  0.3736 -0.8193  1.2833
12385TIP3    H258647   6.267   0.115  15.968  0.8579  0.4925  0.4939
12386TIP3   OH258648   6.447   2.941  11.923  0.3398  0.6566  0.1961
12386TIP3    H158649   6.509   2.890  11.872  1.2534  0.5586  1.3593
12386TIP3    H258650   6.433   3.021  11.873  1.2337  0.5796 -0.1797
12387TIP3   OH258651   3.977   1.151  11.268 -0.8440  0.2348 -0.0574
12387TIP3    H158652   4.068   1.122  11.263 -1.3108 -1.2265 -0.9382
12387TIP3    H258653   3.948   1.126  11.356 -0.7733 -0.5832 -0.2544
12388TIP3   OH258654   3.134   6.785  13.191 -0.3263  0.2554  0.7129
12388TIP3    H158655   3.095   6.739  13.116 -0.8146  0.0944  1.0540
12388TIP3    H258656   3.119   6.726  13.265  1.7496 -0.4271  0.6532
12389TIP3   OH258657   6.391   2.441   5.862  0.3176  0.3447 -0.4447
12389TIP3    H158658   6.362   2.403   5.945  1.2026  0.8302  0.1040
12389TIP3    H258659   6.484   2.461   5.876  1.1111 -1.6508 -2.3014
12390TIP3   OH258660   4.729   4.047   0.885 -0.8618  0.0875  0.8278
12390TIP3    H158661   4.816   4.008   0.891  0.1534  2.2650  1.0404
12390TIP3    H258662   4.675   3.995   0.945  0.9920  0.4479  2.9217
12391TIP3   OH258663   3.760   6.715   0.859 -0.3022  0.0096 -0.3451
12391TIP3    H158664   3.705   6.651   0.815  1.7126 -0.7752 -1.8678
12391TIP3    H258665   3.754   6.794   0.806 -0.6620  0.2250  0.0089
12392TIP3   OH258666   5.908   6.238   3.625  0.5212 -0.3407  0.4266
12392TIP3    H158667   5.964   6.311   3.598  0.8982 -0.5868  0.5394
12392TIP3    H258668   5.819   6.270   3.610  0.6878  0.0709  0.2895
12393TIP3   OH258669   1.505   0.873  14.060 -0.6453  0.2086 -0.6471
12393TIP3    H158670   1.429   0.867  14.119  2.0199  0.3726  3.1657
12393TIP3    H258671   1.564   0.805  14.092  1.3818  0.9630 -2.5982
12394TIP3   OH258672   3.300   5.618   3.506  0.1227 -0.3417 -0.6482
12394TIP3    H158673   3.242   5.648   3.576 -1.8499 -1.5339 -1.7093
12394TIP3    H258674   3.335   5.699   3.468  1.1040  0.3378  1.5348
12395TIP3   OH258675   5.061   1.700   2.354  0.5420  0.3761  0.4923
12395TIP3    H158676   4.975   1.690   2.314  1.4158  0.8721 -1.7116
12395TIP3    H258677   5.117   1.639   2.304  1.3901 -0.3253  2.2145
12396TIP3   OH258678   4.342   5.442  12.151  0.2787  0.1736 -0.6678
12396TIP3    H158679   4.354   5.348  12.141 -0.0331 -0.0660  1.0171
12396TIP3    H258680   4.282   5.452  12.224 -0.6445  1.6655 -1.5656
12397TIP3   OH258681   6.182   2.417  15.199 -0.0204  0.0667  0.1420
12397TIP3    H158682   6.268   2.458  15.201  0.8655 -1.6074 -0.9513
12397TIP3    H258683   6.198   2.326  15.223 -1.7981  0.1154  1.8268
12398TIP3   OH258684   1.707   1.388  15.960  0.6589 -0.3055  0.4541
12398TIP3    H158685   1.668   1.300  15.960 -0.7171  0.2817  0.7638
12398TIP3    H258686   1.704   1.415  16.052  0.3144  0.3838  0.2457
12399TIP3   OH258687   6.124   1.896   2.883 -0.5174  0.5007  0.4117
12399TIP3    H158688   6.077   1.962   2.834 -0.6945 -0.1268 -0.2828
12399TIP3    H258689   6.195   1.869   2.826 -0.2920  0.2747  0.7928
12400TIP3   OH258690   4.042   1.034  11.882  0.6131  0.1382  0.4069
12400TIP3    H158691   4.053   0.984  11.801  0.4642  1.7995 -0.6816
12400TIP3    H258692   4.111   1.100  11.879 -0.4697  1.3295  0.7705
12401TIP3   OH258693   3.540   5.402   1.810  0.3493 -0.2834  0.4133
12401TIP3    H158694   3.576   5.465   1.747  0.1439  0.5931  1.1472
12401TIP3    H258695   3.445   5.410   1.800  0.3105 -2.1345 -1.0748
12402TIP3   OH258696   5.186   6.717   2.995 -0.6373 -0.0345 -0.1177
12402TIP3    H158697   5.220   6.659   2.928 -0.2258  0.8049 -0.6524
12402TIP3    H258698   5.152   6.793   2.947 -0.0200  0.7380  0.6206
12403TIP3   OH258699   1.853   0.682   1.499 -0.8871 -0.7791 -0.5214
12403TIP3    H158700   1.797   0.752   1.468 -0.3844 -0.9720 -1.9873
12403TIP3    H258701   1.814   0.602   1.462  0.5572 -0.8686 -1.9882
12404TIP3   OH258702   1.115   4.817   2.207 -0.4446  0.6019 -0.5407
12404TIP3    H158703   1.166   4.883   2.254 -1.0339  1.0016 -0.4440
12404TIP3    H258704   1.161   4.806   2.123 -0.9114  1.9188 -0.9954
12405TIP3   OH258705   3.326   4.838  15.820 -0.0421 -0.1697 -0.4451
12405TIP3    H158706   3.371   4.818  15.902  0.4874 -1.0076 -0.9264
12405TIP3    H258707   3.241   4.795  15.827 -0.7302  1.2673  0.3930
12406TIP3   OH258708   4.162   5.032   5.497 -0.1422 -0.3779  0.3422
12406TIP3    H158709   4.194   4.945   5.474 -0.6645 -0.2950 -0.7817
12406TIP3    H258710   4.241   5.083   5.516  0.3654 -0.4110 -1.4963
12407TIP3   OH258711   2.123   5.521   1.719 -0.0993  0.1569 -0.0720
12407TIP3    H158712   2.041   5.509   1.766 -0.0415  0.2325  0.0495
12407TIP3    H258713   2.114   5.469   1.639  0.2396 -0.8880  0.5579
12408TIP3   OH258714   4.023   6.341   1.366 -0.4663  0.3393 -0.1708
12408TIP3    H158715   3.959   6.277   1.394 -2.2244  1.5646 -1.1462
12408TIP3    H258716   4.053   6.310   1.281 -0.0674 -0.0111  0.0927
12409TIP3   OH258717   1.305   1.383   3.976  0.0497  0.0573 -0.3538
12409TIP3    H158718   1.377   1.440   4.001 -1.6127  2.1604 -0.0933
12409TIP3    H258719   1.346   1.298   3.958  2.5526  1.1796 -0.2607
12410TIP3   OH258720   0.152   1.230  16.059  0.0823  0.2094 -0.2586
12410TIP3    H158721   0.108   1.308  16.027  0.3091  0.7425  0.6720
12410TIP3    H258722   0.102   1.204  16.137  0.3858 -0.2011 -0.1932
12411TIP3   OH258723   5.174   2.478   2.362 -0.0763  0.1714 -0.4458
12411TIP3    H158724   5.157   2.511   2.273  1.8256  0.3840 -0.7566
12411TIP3    H258725   5.231   2.403   2.350 -1.0032 -0.7339  0.5420
12412TIP3   OH258726   3.347   6.663  14.283 -0.6539 -0.4523 -0.2662
12412TIP3    H158727   3.413   6.664  14.352  0.9172  2.3931 -1.6675
12412TIP3    H258728   3.328   6.570  14.271  2.2061 -1.3293  1.0301
12413TIP3   OH258729   1.332   5.110   2.844 -0.4203 -0.0802  0.1769
12413TIP3    H158730   1.268   5.045   2.817 -2.2741 -0.1472  4.0443
12413TIP3    H258731   1.280   5.183   2.878  1.5392  0.9306  1.2078
12414TIP3   OH258732   1.917   4.845   3.827 -0.1525 -0.0615 -0.2643
12414TIP3    H158733   1.886   4.929   3.794 -1.3182  0.3138  1.6080
12414TIP3    H258734   1.904   4.784   3.755 -3.8763  0.3907 -0.1796
12415TIP3   OH258735   1.481   2.998   3.044  0.2691  0.2887 -0.1686
12415TIP3    H158736   1.446   3.029   2.960 -1.3048 -0.0256  0.3350
12415TIP3    H258737   1.512   3.077   3.088  2.1298  0.3365 -1.4604
12416TIP3   OH258738   5.899   5.684   1.121 -0.2612  1.1179  0.5841
12416TIP3    H158739   5.813   5.662   1.156 -0.0870  1.4693  1.2596
12416TIP3    H258740   5.926   5.606   1.073  0.3601 -0.2115  2.9283
12417TIP3   OH258741   0.502   1.077   4.142  0.0208 -0.5132  0.7764
12417TIP3    H158742   0.514   1.014   4.213  1.9210 -1.3739 -0.2355
12417TIP3    H258743   0.491   1.023   4.063 -0.2841  0.4240  0.1544
12418TIP3   OH258744   5.764   2.628   0.650  0.3188  0.6372 -0.2676
12418TIP3    H158745   5.767   2.534   0.668  2.4646  0.7732  0.4701
12418TIP3    H258746   5.799   2.636   0.562  3.3294  0.8617  0.8087
12419TIP3   OH258747   2.249   6.184   1.261  0.4601  0.6340 -0.1636
12419TIP3    H158748   2.260   6.266   1.212 -2.0988  0.2278 -1.6353
12419TIP3    H258749   2.154   6.176   1.272  0.5289 -2.5907 -0.9749
12420TIP3   OH258750   1.013   4.355  14.496  0.1080 -0.0323  0.5866
12420TIP3    H158751   1.017   4.354  14.401 -1.8650  1.0544  0.4477
12420TIP3    H258752   0.928   4.394  14.517 -0.1340 -1.5365  2.7904
12421TIP3   OH258753   1.131   3.969   6.628 -0.1919 -0.2238  0.2863
12421TIP3    H158754   1.061   4.034   6.635  1.2361  1.3740  0.3826
12421TIP3    H258755   1.197   3.999   6.690  2.0294  0.2464 -2.1308
12422TIP3   OH258756   3.131   1.079   2.762  0.0623 -0.4860 -0.4370
12422TIP3    H158757   3.096   1.035   2.839  2.6039  0.1632  1.1983
12422TIP3    H258758   3.056   1.127   2.726 -1.8826 -3.0326 -0.1290
12423TIP3   OH258759   2.321   1.830   3.699  0.1318  0.8987  0.2888
12423TIP3    H158760   2.240   1.808   3.745  0.7191  1.3980  1.6006
12423TIP3    H258761   2.291   1.867   3.615 -1.1785  3.7088  1.8424
12424TIP3   OH258762   3.191   1.082  11.146 -0.0223 -0.4508 -0.2720
12424TIP3    H158763   3.149   1.028  11.079 -1.6275  0.1963  0.1675
12424TIP3    H258764   3.189   1.027  11.225  0.4819 -0.6230 -0.3715
12425TIP3   OH258765   4.550   5.980  12.902  0.0333 -0.1837 -0.0603
12425TIP3    H158766   4.627   5.996  12.957  0.0900 -0.2288 -0.1265
12425TIP3    H258767   4.476   6.013  12.954  0.0181 -0.7571  0.2895
12426TIP3   OH258768   2.483   4.768  13.651  0.2939 -0.0093  0.0853
12426TIP3    H158769   2.486   4.863  13.650  1.0605 -0.0185  0.6159
12426TIP3    H258770   2.539   4.741  13.577  0.1770 -0.0477  0.0112
12427TIP3   OH258771   4.682   3.845  14.841 -0.0565  0.3727 -0.2771
12427TIP3    H158772   4.748   3.798  14.790  1.0506  1.7436 -0.1757
12427TIP3    H258773   4.630   3.776  14.884  1.6794 -0.7411  0.1136
12428TIP3   OH258774   0.520   3.579  12.183 -0.1429  0.2313 -0.4523
12428TIP3    H158775   0.561   3.647  12.236  0.2537  0.3647 -0.9210
12428TIP3    H258776   0.527   3.500  12.236 -0.8250  0.5986  0.2003
12429TIP3   OH258777   2.883   6.601  15.982  0.2923  0.2935  0.0073
12429TIP3    H158778   2.944   6.672  15.962  1.4886 -0.5445  0.5681
12429TIP3    H258779   2.938   6.528  16.011 -1.0504 -0.0655  1.8618
12430TIP3   OH258780   3.539   2.060   0.262 -0.5432 -0.4120 -0.0484
12430TIP3    H158781   3.570   2.080   0.350  0.0132 -0.6519 -0.1855
12430TIP3    H258782   3.446   2.084   0.263 -0.2880  0.5908  0.2788
12431TIP3   OH258783   6.239   2.768   3.736  0.4843 -0.1625 -0.1167
12431TIP3    H158784   6.195   2.804   3.659  0.4075  1.1192  0.4900
12431TIP3    H258785   6.195   2.811   3.810  1.1146 -0.7308  0.6039
12432TIP3   OH258786   0.636   2.770  17.038  0.0283  0.9018  0.2016
12432TIP3    H158787   0.712   2.727  17.078 -0.6624  0.2087  0.7915
12432TIP3    H258788   0.578   2.789  17.112 -0.1358  1.9128 -0.1841
12433TIP3   OH258789   6.790   6.285   4.196  0.1772 -0.0821 -0.2238
12433TIP3    H158790   6.882   6.256   4.196 -0.0443 -0.8263  0.3883
12433TIP3    H258791   6.770   6.301   4.288  0.0892  1.4372 -0.4861
12434TIP3   OH258792   6.822   3.366  10.790  0.1847 -0.7353 -0.1154
12434TIP3    H158793   6.774   3.367  10.708 -1.3638  0.7602  0.7441
12434TIP3    H258794   6.892   3.430  10.778 -0.1399 -0.4003 -0.2127
12435TIP3   OH258795   4.154   0.777   2.520  0.3638 -0.3020 -0.5460
12435TIP3    H158796   4.096   0.707   2.549  0.0380 -0.0254 -0.5358
12435TIP3    H258797   4.203   0.802   2.598  1.2977 -1.2926 -0.7845
12436TIP3   OH258798   2.110   4.899  13.223 -0.3136 -0.1337  0.2942
12436TIP3    H158799   2.105   4.974  13.164 -1.8505  0.0323  0.5930
12436TIP3    H258800   2.203   4.892  13.244  0.0940  0.5951 -1.1111
12437TIP3   OH258801   1.978   6.177   1.305 -0.2668  0.4725  0.2333
12437TIP3    H158802   1.894   6.138   1.281 -0.2387 -0.1517  1.0883
12437TIP3    H258803   1.966   6.271   1.289 -0.4086  0.1655 -1.6628
12438TIP3   OH258804   5.822   5.797   2.067 -0.0107 -0.5621  0.2756
12438TIP3    H158805   5.857   5.770   2.152 -1.8838  0.4478  1.4376
12438TIP3    H258806   5.727   5.789   2.077 -0.3158  0.5121 -1.4094
12439TIP3   OH258807   3.124   1.251   1.506 -0.3139 -0.3989 -0.3375
12439TIP3    H158808   3.216   1.260   1.533  0.2758 -2.1426 -1.5970
12439TIP3    H258809   3.079   1.227   1.587  0.7280 -1.6147 -0.0811
12440TIP3   OH258810   4.668   2.881  11.781  0.1975  0.3251 -0.6628
12440TIP3    H158811   4.697   2.972  11.792  1.7917 -0.3640  1.7992
12440TIP3    H258812   4.677   2.843  11.869 -0.3624 -2.2344 -1.6369
12441TIP3   OH258813   0.362   0.725   1.367 -0.3964 -0.5534 -0.0708
12441TIP3    H158814   0.323   0.783   1.301  1.3499  0.8141  0.0193
12441TIP3    H258815   0.442   0.770   1.393 -0.0270 -2.0547  1.5323
12442TIP3   OH258816   1.546   2.891  14.921 -0.1074  0.0896 -0.0831
12442TIP3    H158817   1.487   2.838  14.867  0.9580 -1.5370  0.2874
12442TIP3    H258818   1.623   2.836  14.934  0.0290  0.7441  2.3966
12443TIP3   OH258819   1.033   4.273   3.040 -0.5038 -0.2064  0.2520
12443TIP3    H158820   1.123   4.305   3.035  0.2053 -2.0615  0.2232
12443TIP3    H258821   1.037   4.185   3.003 -2.8737  0.5853 -2.1988
12444TIP3   OH258822   6.105   2.628  11.919 -0.3400 -0.2030  0.4885
12444TIP3    H158823   6.083   2.589  11.834 -1.1811  0.0169  0.5959
12444TIP3    H258824   6.028   2.681  11.942  0.5479  1.0901  0.5994
12445TIP3   OH258825   4.831   6.051  15.285 -0.3618 -0.4945 -0.3997
12445TIP3    H158826   4.853   6.143  15.274  0.5690 -0.6350  0.1946
12445TIP3    H258827   4.794   6.045  15.373  0.2913 -0.8046 -0.1390
12446TIP3   OH258828   0.593   2.467   5.454 -0.0218 -0.2759 -0.1502
12446TIP3    H158829   0.601   2.372   5.449  0.0272 -0.3693  1.3594
12446TIP3    H258830   0.509   2.487   5.412  0.8524 -0.7609 -2.2562
12447TIP3   OH258831   1.220   1.399  13.225 -0.0191 -0.3632  0.5169
12447TIP3    H158832   1.304   1.383  13.266 -0.7613  0.4353  2.4719
12447TIP3    H258833   1.208   1.327  13.164  1.2136 -1.5444  1.6299
12448TIP3   OH258834   0.578   3.876  15.036 -0.3143 -0.2083 -0.1821
12448TIP3    H158835   0.663   3.891  15.077 -0.9320 -3.8549  3.0866
12448TIP3    H258836   0.591   3.896  14.944  2.9865  2.7950  0.6989
12449TIP3   OH258837   3.787   6.497  14.305 -0.1941 -0.3132  0.1506
12449TIP3    H158838   3.748   6.577  14.271 -1.4231 -0.5498  0.9234
12449TIP3    H258839   3.879   6.501  14.279  0.5973  2.8821  2.7381
12450TIP3   OH258840   0.043   6.084   5.177  0.0541  0.3800 -0.1644
12450TIP3    H158841   0.058   6.125   5.263 -1.5442  3.2697 -1.1124
12450TIP3    H258842   0.124   6.102   5.129  0.6999 -0.6803  0.4777
12451TIP3   OH258843   5.396   3.057   0.934 -0.1792 -0.3802 -0.2992
12451TIP3    H158844   5.464   3.002   0.974 -0.8360 -1.8677 -1.1625
12451TIP3    H258845   5.321   2.999   0.923 -1.6063  1.2034  0.5381
12452TIP3   OH258846   5.402   4.506   5.380  0.2549  0.1008 -0.2452
12452TIP3    H158847   5.426   4.419   5.350  1.4096  0.6266 -0.8990
12452TIP3    H258848   5.396   4.498   5.475 -0.7097 -0.9239 -0.3699
12453TIP3   OH258849   1.307   0.840   4.070  0.0699  0.3693  0.7903
12453TIP3    H158850   1.251   0.763   4.066 -0.3641  0.7199 -0.3838
12453TIP3    H258851   1.394   0.806   4.089  0.0830 -0.5419 -0.6898
12454TIP3   OH258852   4.016   3.369   3.908  0.6670  0.3814 -0.4928
12454TIP3    H158853   3.985   3.311   3.977  0.1029  1.4065  0.1361
12454TIP3    H258854   4.067   3.436   3.953  0.1408  1.1676 -1.0235
12455TIP3   OH258855   0.464   3.414   3.387 -0.5399 -0.3855 -0.2454
12455TIP3    H158856   0.372   3.409   3.412 -1.0367  1.2649 -1.5002
12455TIP3    H258857   0.504   3.471   3.453 -0.1697 -1.8931  0.8592
12456TIP3   OH258858   3.557   4.524  15.848 -0.0896  0.3513  0.2815
12456TIP3    H158859   3.583   4.604  15.893  0.5174  0.1317  0.3313
12456TIP3    H258860   3.639   4.488  15.813 -0.0189 -1.2935  1.9511
12457TIP3   OH258861   2.728   5.985   6.420  0.3295 -0.0109  0.0692
12457TIP3    H158862   2.778   5.904   6.417 -0.8937 -0.7529 -1.4031
12457TIP3    H258863   2.639   5.958   6.441  0.1680  1.0972  0.8748
12458TIP3   OH258864   0.844   4.808   5.357  0.1783  0.1638 -0.4225
12458TIP3    H158865   0.818   4.735   5.412  0.9246  1.4659  1.7658
12458TIP3    H258866   0.936   4.824   5.380  0.4411  0.9387 -1.8599
12459TIP3   OH258867   3.008   0.280   4.585  0.3786  0.1709  0.1799
12459TIP3    H158868   2.995   0.360   4.634  0.1809 -0.4938  1.2488
12459TIP3    H258869   3.036   0.216   4.651 -2.3528 -1.4244 -0.0780
12460TIP3   OH258870   5.485   0.221  13.243  0.5453 -0.1897  0.1204
12460TIP3    H158871   5.390   0.226  13.255  0.5330  0.2916 -0.1701
12460TIP3    H258872   5.512   0.149  13.301 -0.0317 -0.5356 -0.0250
12461TIP3   OH258873   2.536   0.124   1.778  0.1471 -0.1417 -0.3846
12461TIP3    H158874   2.542   0.193   1.844 -1.5165 -0.4514  0.1543
12461TIP3    H258875   2.608   0.065   1.799  0.5179  0.5208  0.2543
12462TIP3   OH258876   6.183   4.917  12.671 -0.0634  0.4030 -0.3715
12462TIP3    H158877   6.164   4.987  12.608  3.2506  1.1328 -0.7182
12462TIP3    H258878   6.274   4.895  12.657 -0.6521 -3.2989  0.5324
12463TIP3   OH258879   6.179   1.265  11.017  0.0745  0.2284  0.2255
12463TIP3    H158880   6.189   1.203  10.944  0.1954 -0.8670  1.1510
12463TIP3    H258881   6.258   1.253  11.069 -1.4387 -1.4066  2.3106
12464TIP3   OH258882   0.191   5.634   5.337 -0.1804  0.0972 -0.3774
12464TIP3    H158883   0.103   5.601   5.320 -0.1051  0.6201 -1.9732
12464TIP3    H258884   0.178   5.725   5.363 -0.3077 -0.7481  2.9062
12465TIP3   OH258885   2.187   3.847  14.344 -0.4352  0.3791  0.1745
12465TIP3    H158886   2.208   3.911  14.276 -1.3551 -0.4705 -0.9642
12465TIP3    H258887   2.271   3.824  14.382  0.2495  0.1362 -1.3835
12466TIP3   OH258888   6.817   6.408  14.831 -0.0064 -0.2484  0.1908
12466TIP3    H158889   6.889   6.440  14.885  2.3748 -0.0047 -2.8536
12466TIP3    H258890   6.790   6.484  14.780 -1.8755 -0.5639  0.6420
12467TIP3   OH258891   6.852   2.796  10.924 -0.0935 -0.2557 -0.2995
12467TIP3    H158892   6.798   2.868  10.955 -0.5969 -1.4802  1.8778
12467TIP3    H258893   6.942   2.831  10.925 -0.4190  0.5954 -0.1331
12468TIP3   OH258894   6.607   5.603  11.569 -0.5614  0.7081  0.3063
12468TIP3    H158895   6.699   5.615  11.593 -0.2522  1.0968 -1.0008
12468TIP3    H258896   6.558   5.641  11.642  0.2990  0.3246  1.1062
12469TIP3   OH258897   1.956   1.122  16.539  0.6784 -0.3702 -0.0995
12469TIP3    H158898   1.972   1.191  16.604 -1.4311  0.4404 -0.3638
12469TIP3    H258899   1.944   1.169  16.457 -1.3923 -0.9607 -0.1808
12470TIP3   OH258900   2.131   6.518   2.107  0.1713  0.3914 -0.4278
12470TIP3    H158901   2.046   6.496   2.146  0.3252 -1.6375 -1.1310
12470TIP3    H258902   2.109   6.565   2.026 -0.1766  2.7280  0.9408
12471TIP3   OH258903   3.505   5.074   1.078  0.0980 -0.3624  0.6467
12471TIP3    H158904   3.460   5.003   1.032 -2.0239  0.4596  1.3336
12471TIP3    H258905   3.561   5.029   1.141  0.4566 -1.4338 -0.3884
12472TIP3   OH258906   4.738   2.474   2.810 -0.3114 -0.8069 -0.0908
12472TIP3    H158907   4.729   2.422   2.890  1.3263 -1.5381 -0.3476
12472TIP3    H258908   4.802   2.542   2.832 -0.6112 -0.3920 -0.4786
12473TIP3   OH258909   1.173   2.503   1.610  0.2496 -0.2457  0.3999
12473TIP3    H158910   1.247   2.443   1.615 -0.5149 -1.2493  0.0251
12473TIP3    H258911   1.209   2.587   1.637  1.5564 -0.6755  0.0723
12474TIP3   OH258912   0.874   2.711  12.477 -0.4452  0.0043 -0.7098
12474TIP3    H158913   0.848   2.717  12.569 -1.0794 -2.3057 -0.6944
12474TIP3    H258914   0.821   2.778  12.433 -0.9896  0.3314  0.4136
12475TIP3   OH258915   2.511   4.512  12.404  0.2720 -0.0928 -0.3084
12475TIP3    H158916   2.501   4.541  12.495  1.3606 -0.9228  0.1034
12475TIP3    H258917   2.560   4.431  12.410  0.2284 -0.2444 -1.6442
12476TIP3   OH258918   1.128   5.822   5.011 -0.1346  0.7583  0.0748
12476TIP3    H158919   1.081   5.903   4.990 -1.4489 -0.1952 -0.8593
12476TIP3    H258920   1.107   5.807   5.104  1.9029  2.5650  0.9166
12477TIP3   OH258921   3.522   0.912  11.658  0.7795 -0.2549 -0.1098
12477TIP3    H158922   3.551   1.000  11.635 -1.0809  0.4625  0.1088
12477TIP3    H258923   3.587   0.881  11.722  1.3837  1.0132 -0.0880
12478TIP3   OH258924   6.336   1.340  14.423  0.4596  0.0252 -0.1015
12478TIP3    H158925   6.375   1.276  14.483 -2.5309 -0.6862  1.2949
12478TIP3    H258926   6.323   1.292  14.342  2.4855  0.3207 -0.6432
12479TIP3   OH258927   5.712   0.455   3.331  0.7557  0.5361 -0.0990
12479TIP3    H158928   5.645   0.386   3.336  0.7018  0.6675  1.5794
12479TIP3    H258929   5.697   0.497   3.246  1.0440 -1.7528 -1.3649
12480TIP3   OH258930   4.553   1.405  14.410  0.1860 -0.0384  0.0533
12480TIP3    H158931   4.608   1.437  14.482  1.7544  1.8316 -1.8259
12480TIP3    H258932   4.503   1.333  14.447  1.6402  0.2269  2.7302
12481TIP3   OH258933   2.571   6.449   4.924  0.5579 -0.0134  0.8746
12481TIP3    H158934   2.578   6.367   4.975 -0.3241 -0.2848  0.5740
12481TIP3    H258935   2.510   6.428   4.854  1.2351  0.5735  0.1020
12482TIP3   OH258936   5.804   5.299  12.662 -0.4173 -0.1649 -0.9774
12482TIP3    H158937   5.865   5.350  12.609 -1.8442  1.2171 -1.3650
12482TIP3    H258938   5.788   5.354  12.739 -1.3971 -0.3493 -1.0355
12483TIP3   OH258939   3.981   0.492  10.839 -0.6389  0.3168  0.2288
12483TIP3    H158940   3.891   0.463  10.831 -0.8751  1.4286 -1.5371
12483TIP3    H258941   3.991   0.514  10.932 -2.1733  0.1736  0.4430
12484TIP3   OH258942   4.381   2.725  14.775 -0.0397  0.1385 -0.1907
12484TIP3    H158943   4.426   2.698  14.694 -0.4570 -1.5873  0.1153
12484TIP3    H258944   4.306   2.776  14.744 -0.2863 -0.6356 -0.9290
12485TIP3   OH258945   4.321   4.678   5.672  0.5154  0.4092 -0.7307
12485TIP3    H158946   4.338   4.710   5.583 -0.3939 -0.0800 -1.0919
12485TIP3    H258947   4.405   4.689   5.717  1.8525 -1.8203 -2.3972
12486TIP3   OH258948   2.841   4.204   2.065  0.2941  0.1802 -0.2384
12486TIP3    H158949   2.846   4.121   2.019 -1.3260 -0.1537  0.1546
12486TIP3    H258950   2.760   4.200   2.114  1.1213  1.2347  1.2941
12487TIP3   OH258951   4.468   6.646  16.200  0.1970 -0.6156  0.7548
12487TIP3    H158952   4.436   6.556  16.189 -0.0180 -0.6145  1.3350
12487TIP3    H258953   4.404   6.687  16.259 -0.4919  0.3369 -0.6063
12488TIP3   OH258954   3.520   4.845  11.954 -0.1415 -0.0368  0.1207
12488TIP3    H158955   3.430   4.875  11.970 -0.2903 -0.2265 -0.3312
12488TIP3    H258956   3.575   4.912  11.994 -0.4635  0.9095 -0.9476
12489TIP3   OH258957   3.954   6.000   4.442  0.2313 -0.1767  0.2961
12489TIP3    H158958   3.870   6.013   4.398 -1.3020  2.5822  3.5625
12489TIP3    H258959   4.011   6.068   4.406  0.0382 -0.0203  0.2850
12490TIP3   OH258960   4.330   4.691   1.665 -0.4525  0.1520 -0.3933
12490TIP3    H158961   4.422   4.693   1.638 -0.6548 -1.0011 -1.2739
12490TIP3    H258962   4.281   4.710   1.584 -0.9907  0.6757  0.0486
12491TIP3   OH258963   3.532   2.210  10.292 -0.3313 -0.2622  0.1309
12491TIP3    H158964   3.548   2.282  10.231  0.5495 -0.0818  0.5538
12491TIP3    H258965   3.495   2.252  10.370 -1.5299 -0.5019 -0.2832
12492TIP3   OH258966   6.024   0.118   2.272  0.3820  0.2704 -0.4697
12492TIP3    H158967   6.109   0.084   2.300  0.2477  1.7097  1.9426
12492TIP3    H258968   6.046   0.190   2.213  0.9517  1.5960  1.2757
12493TIP3   OH258969   4.121   5.620  12.066  0.1459  0.3091  0.4086
12493TIP3    H158970   4.053   5.688  12.074  0.2080  0.3079  0.9945
12493TIP3    H258971   4.166   5.622  12.150 -0.0687 -0.6985  0.5490
12494TIP3   OH258972   3.209   6.564  10.856  0.0114 -0.4593 -0.4257
12494TIP3    H158973   3.209   6.608  10.771  1.4390  1.0312  0.3093
12494TIP3    H258974   3.288   6.511  10.856  0.3469  0.0295  0.2026
12495TIP3   OH258975   3.864   5.647  13.240  0.4360  0.2942 -0.4685
12495TIP3    H158976   3.927   5.697  13.292  1.1046 -0.0165 -0.9763
12495TIP3    H258977   3.798   5.620  13.303  2.2551 -1.7914  0.6728
12496TIP3   OH258978   5.113   6.606  14.823  0.0595  0.0287 -0.2727
12496TIP3    H158979   5.123   6.668  14.895  0.5948  1.1188 -1.2505
12496TIP3    H258980   5.024   6.622  14.790  0.3635  0.6240 -0.8220
12497TIP3   OH258981   5.926   3.960  15.486 -0.1208 -0.2981  0.5662
12497TIP3    H158982   5.887   3.964  15.399  0.6444 -0.2721  0.2162
12497TIP3    H258983   5.853   3.940  15.544 -0.7509  0.3044 -0.0021
12498TIP3   OH258984   4.780   6.475   3.935 -0.2407 -0.0650 -0.3129
12498TIP3    H158985   4.828   6.442   4.011 -0.9300  0.6996  0.4710
12498TIP3    H258986   4.691   6.441   3.946 -0.5374  0.6744 -0.3631
12499TIP3   OH258987   4.875   6.318   4.646  0.1202  0.7745  0.0734
12499TIP3    H158988   4.786   6.351   4.665  0.5654  2.0718  0.0465
12499TIP3    H258989   4.918   6.391   4.602 -0.0570 -1.2114 -3.7601
12500TIP3   OH258990   6.611   2.375   1.553 -0.5214  0.2093  0.3850
12500TIP3    H158991   6.554   2.323   1.610 -1.8943  0.1695 -0.9551
12500TIP3    H258992   6.640   2.447   1.608  0.6789 -1.4183  2.0112
12501TIP3   OH258993   4.669   6.559   5.668 -0.3105 -0.1811 -0.1651
12501TIP3    H158994   4.646   6.583   5.578 -1.3445 -0.9828 -0.1324
12501TIP3    H258995   4.762   6.537   5.664 -0.0501  0.9356 -0.7819
12502TIP3   OH258996   2.077   3.037  14.075 -0.5707  0.0501  0.2240
12502TIP3    H158997   2.007   2.997  14.024 -1.1775 -0.6642  1.5617
12502TIP3    H258998   2.104   3.113  14.023 -0.5461 -1.1244 -1.5633
12503TIP3   OH258999   2.797   3.785  13.123  0.0996 -0.2091 -0.0863
12503TIP3    H159000   2.816   3.772  13.030 -0.4803 -0.2694 -0.2028
12503TIP3    H259001   2.702   3.776  13.129  0.2095 -1.0314  0.6371
12504TIP3   OH259002   2.071   0.466  12.736  0.1567  0.2585  0.4277
12504TIP3    H159003   2.120   0.542  12.769 -0.5192  1.9403 -2.1765
12504TIP3    H259004   1.984   0.476  12.775  0.7582 -0.6415  2.0818
12505TIP3   OH259005   0.003   2.156  12.565  0.2209 -1.0512 -0.0529
12505TIP3    H159006   0.005   2.066  12.533 -2.0421 -0.5521 -1.9209
12505TIP3    H259007   0.080   2.197  12.526  0.8903 -1.9750  0.2568
12506TIP3   OH259008   6.255   1.845  13.413  0.2852  0.5220 -0.5020
12506TIP3    H159009   6.347   1.855  13.388  0.0263 -0.0176 -1.7320
12506TIP3    H259010   6.257   1.784  13.487  0.8777  0.0724 -0.8807
12507TIP3   OH259011   0.218   4.681  15.690 -0.6158  0.3706  0.0136
12507TIP3    H159012   0.258   4.610  15.639 -2.2587 -1.6114  1.3613
12507TIP3    H259013   0.283   4.752  15.686 -0.0527 -0.1338 -3.6179
12508TIP3   OH259014   1.579   6.132   3.314 -0.1025  0.4151  1.1319
12508TIP3    H159015   1.531   6.214   3.324 -0.2391  0.4230  0.4587
12508TIP3    H259016   1.667   6.158   3.287 -0.1887  0.3371  0.7704
12509TIP3   OH259017   6.325   5.753  13.240 -0.2299  0.1763  0.6021
12509TIP3    H159018   6.262   5.744  13.168  0.2884  1.0426  0.0183
12509TIP3    H259019   6.322   5.845  13.263 -1.2045 -0.2870  2.4855
12510TIP3   OH259020   6.713   1.541   6.434  0.5202  0.1228 -0.0131
12510TIP3    H159021   6.680   1.631   6.438 -0.9115 -0.3552 -0.4065
12510TIP3    H259022   6.790   1.542   6.489  0.9176  1.7546 -0.5223
12511TIP3   OH259023   0.104   6.624   5.715 -0.5756  0.1039 -0.8658
12511TIP3    H159024   0.184   6.663   5.682 -0.0286  1.3598  1.7103
12511TIP3    H259025   0.093   6.660   5.803 -2.1330 -2.6332  0.2193
12512TIP3   OH259026   5.215   0.290  11.715  0.2858  0.2595  0.4160
12512TIP3    H159027   5.169   0.350  11.773 -1.0230  0.1151 -0.4328
12512TIP3    H259028   5.286   0.255  11.769 -0.4161  0.7055  1.6866
12513TIP3   OH259029   5.652   3.957  16.359  0.3068  0.1238 -0.1300
12513TIP3    H159030   5.605   4.017  16.300 -0.9246 -0.7245 -0.0338
12513TIP3    H259031   5.626   3.984  16.447 -0.0480 -0.3985 -0.0770
12514TIP3   OH259032   5.038   3.107   1.327  0.0538  0.4074  0.0602
12514TIP3    H159033   5.111   3.148   1.282 -0.6615  0.8889 -0.6924
12514TIP3    H259034   5.078   3.058   1.399  1.1861 -0.0168 -0.8273
12515TIP3   OH259035   3.725   2.369  12.495  0.6819  0.3341 -0.1891
12515TIP3    H159036   3.637   2.405  12.485  0.1624 -0.3589  1.5180
12515TIP3    H259037   3.743   2.326  12.411 -1.9416 -2.3056  0.4076
12516TIP3   OH259038   1.412   1.905  14.424  0.7231  0.2598 -1.1092
12516TIP3    H159039   1.471   1.977  14.449  1.0322  0.5918 -2.6822
12516TIP3    H259040   1.335   1.948  14.388  0.2461 -0.2030 -0.6678
12517TIP3   OH259041   3.647   3.479   6.193  0.1798 -0.1472 -0.3062
12517TIP3    H159042   3.560   3.444   6.177  0.4238 -0.4535 -1.0018
12517TIP3    H259043   3.685   3.491   6.106 -0.4506  3.2999 -0.2365
12518TIP3   OH259044   6.345   4.021  11.535 -0.1074 -0.0459 -0.0674
12518TIP3    H159045   6.385   4.108  11.535  0.1563 -0.1498  1.3133
12518TIP3    H259046   6.378   3.980  11.455  2.5677 -0.0985  0.9449
12519TIP3   OH259047   5.761   2.177   3.560 -0.3638 -0.1445  0.8018
12519TIP3    H159048   5.817   2.254   3.551 -2.0537  0.9141 -1.6700
12519TIP3    H259049   5.691   2.204   3.619 -1.6774  0.7671 -1.0747
12520TIP3   OH259050   6.413   4.316   5.889  0.3847  0.5984  0.1864
12520TIP3    H159051   6.488   4.257   5.901 -1.8664 -2.5030  0.1778
12520TIP3    H259052   6.385   4.338   5.978 -0.1033 -0.2191  0.2434
12521TIP3   OH259053   3.868   4.146  16.432 -0.2868  0.2421 -0.2310
12521TIP3    H159054   3.925   4.218  16.456 -0.2790 -0.1314  0.9261
12521TIP3    H259055   3.818   4.127  16.512  1.3414 -2.5268  0.2677
12522TIP3   OH259056   0.760   0.418   4.877  0.2268 -0.5385  0.1819
12522TIP3    H159057   0.832   0.479   4.862 -0.5640  0.0930 -1.2442
12522TIP3    H259058   0.750   0.371   4.794 -0.3320 -1.3588  0.6971
12523TIP3   OH259059   4.111   5.286   2.417 -0.3679 -0.4111  0.2959
12523TIP3    H159060   4.139   5.205   2.374 -0.5839 -0.0133 -0.6079
12523TIP3    H259061   4.019   5.271   2.439 -0.3707 -0.4604  0.2506
12524TIP3   OH259062   1.403   4.721   1.515  0.1602 -0.3453 -0.1718
12524TIP3    H159063   1.353   4.649   1.475 -0.7635 -0.6323  1.3728
12524TIP3    H259064   1.365   4.800   1.477 -1.8493 -0.5347  1.2357
12525TIP3   OH259065   0.298   1.263   0.480  0.1030 -0.2772 -0.0862
12525TIP3    H159066   0.302   1.332   0.414 -0.6889  0.2920  0.4348
12525TIP3    H259067   0.243   1.196   0.441 -0.0651 -0.1025 -0.1533
12526TIP3   OH259068   5.528   3.223   3.920  0.2093 -0.1331  0.3089
12526TIP3    H159069   5.520   3.145   3.974  1.8119 -0.1396  0.5979
12526TIP3    H259070   5.605   3.206   3.865  1.9228  2.0239  1.8453
12527TIP3   OH259071   5.318   3.549  14.870  0.7755  0.4270  0.3790
12527TIP3    H159072   5.333   3.456  14.851  1.7657  0.2463  1.9151
12527TIP3    H259073   5.368   3.595  14.802 -0.5667 -0.1045 -1.0469
12528TIP3   OH259074   4.183   5.091  13.593 -0.1669 -0.0086  0.3658
12528TIP3    H159075   4.207   5.123  13.507 -0.1164  0.3432  0.5103
12528TIP3    H259076   4.180   5.169  13.648  1.1131 -0.3828  0.9987
12529TIP3   OH259077   6.799   5.487  16.267 -0.1282  0.6255  0.1960
12529TIP3    H159078   6.782   5.515  16.357  1.9494 -0.5266  1.0192
12529TIP3    H259079   6.720   5.441  16.240 -0.2870 -0.2162  1.9670
12530TIP3   OH259080   6.287   3.195   5.069  0.0714  0.2868  0.5058
12530TIP3    H159081   6.252   3.106   5.072 -0.8308  0.6290  0.4751
12530TIP3    H259082   6.372   3.189   5.111 -0.1007 -0.5374  0.7550
12531TIP3   OH259083   6.092   4.838  14.438  1.0161 -0.1524  0.2137
12531TIP3    H159084   6.099   4.901  14.509 -1.5670 -0.5213  0.9278
12531TIP3    H259085   6.112   4.754  14.479 -0.7961 -0.4075  0.6624
12532TIP3   OH259086   6.841   5.020  15.849  0.0418 -0.0753  0.4360
12532TIP3    H159087   6.804   4.932  15.847  1.7619 -0.8435  0.7022
12532TIP3    H259088   6.774   5.073  15.891 -2.3550 -0.5487 -2.4392
12533TIP3   OH259089   2.336   4.577   5.451  0.3734 -0.8264  0.1812
12533TIP3    H159090   2.365   4.631   5.378 -3.3547 -0.5923 -1.3499
12533TIP3    H259091   2.369   4.489   5.430 -1.0705 -0.8923 -2.2480
12534TIP3   OH259092   1.802   1.821   0.710 -0.1067  1.1524  0.2732
12534TIP3    H159093   1.879   1.862   0.670 -0.2224 -0.0239 -1.2479
12534TIP3    H259094   1.837   1.773   0.785  1.0039 -0.8127 -1.3956
12535TIP3   OH259095   1.417   1.443  17.074  0.1891 -0.2601  0.2090
12535TIP3    H159096   1.465   1.472  16.997 -1.5045 -0.1674 -0.8559
12535TIP3    H259097   1.370   1.520  17.104 -0.5790 -0.7320  0.2481
12536TIP3   OH259098   1.807   4.945   2.674 -0.1249 -0.3514 -0.1201
12536TIP3    H159099   1.723   4.969   2.715 -0.1202 -0.1848 -0.2053
12536TIP3    H259100   1.784   4.881   2.607 -0.4395  1.0780 -1.4454
12537TIP3   OH259101   2.360   6.289   0.423 -0.3781 -0.6482 -0.3213
12537TIP3    H159102   2.440   6.238   0.413 -0.7134 -1.4009  0.6339
12537TIP3    H259103   2.373   6.366   0.367  0.7834 -1.0167 -0.5854
12538TIP3   OH259104   0.806   5.354   1.193 -0.4785 -0.2553 -0.3286
12538TIP3    H159105   0.828   5.303   1.115 -0.0989 -2.2246  0.9817
12538TIP3    H259106   0.750   5.296   1.245 -0.6335  0.9501  0.9127
12539TIP3   OH259107   1.044   1.717   1.418 -0.3926  0.0029 -0.5419
12539TIP3    H159108   0.975   1.772   1.382 -0.3562  0.1249 -0.4254
12539TIP3    H259109   1.040   1.733   1.512  0.5800  0.9273 -0.6396
12540TIP3   OH259110   0.626   2.526  11.509  0.1994  0.1515 -0.5090
12540TIP3    H159111   0.538   2.508  11.541  0.0785  2.1585  0.4595
12540TIP3    H259112   0.618   2.608  11.461  1.7916  1.3444  1.1118
12541TIP3   OH259113   6.337   1.149   1.524 -0.1453 -0.7931  0.3461
12541TIP3    H159114   6.304   1.212   1.588  0.9051  0.0437  0.0904
12541TIP3    H259115   6.294   1.066   1.547 -1.4091 -0.0312  0.7961
12542TIP3   OH259116   6.577   5.897  13.356  0.2935 -0.0436 -0.1043
12542TIP3    H159117   6.650   5.903  13.295  0.7397  0.4416  0.4599
12542TIP3    H259118   6.564   5.986  13.387 -0.9476 -0.0154 -0.6492
12543TIP3   OH259119   1.420   4.696  10.696 -1.1968  0.4585 -0.6274
12543TIP3    H159120   1.353   4.631  10.671 -1.3816  1.1449 -1.9617
12543TIP3    H259121   1.494   4.678  10.637 -1.6493  2.1150 -1.7553
12544TIP3   OH259122   6.366   5.295   0.176 -0.0848 -0.2525 -0.1823
12544TIP3    H159123   6.332   5.335   0.256 -1.0741  1.6899 -1.4957
12544TIP3    H259124   6.293   5.298   0.114  0.9127 -0.8936 -1.4388
12545TIP3   OH259125   4.995   1.394  13.089 -0.4412 -0.2184 -0.0399
12545TIP3    H159126   4.928   1.339  13.129  0.4128 -0.5217  1.0115
12545TIP3    H259127   5.057   1.331  13.051 -0.2435  0.0444 -0.1524
12546TIP3   OH259128   2.228   5.029  12.072  0.1671  0.0167  0.0077
12546TIP3    H159129   2.221   5.121  12.045  0.1823  0.9803  2.8714
12546TIP3    H259130   2.314   5.001  12.040  0.8098  1.5018  0.3280
12547TIP3   OH259131   0.945   1.093   5.541  0.8252 -0.7162  0.3502
12547TIP3    H159132   0.950   1.023   5.606  1.3090  0.3689  1.5060
12547TIP3    H259133   0.909   1.168   5.588  0.1538 -0.2122 -0.9108
12548TIP3   OH259134   0.423   1.788   2.874 -1.0943 -0.1455 -0.1279
12548TIP3    H159135   0.463   1.858   2.925 -0.0411 -1.0335  0.3021
12548TIP3    H259136   0.496   1.745   2.830 -1.6039 -1.5430  0.3324
12549TIP3   OH259137   2.752   4.830  14.404 -0.6253 -0.4336 -0.1302
12549TIP3    H159138   2.764   4.847  14.497 -1.8308 -0.3510  0.0244
12549TIP3    H259139   2.780   4.911  14.361 -0.8383 -0.1725  0.2172
12550TIP3   OH259140   6.262   1.817  15.552 -0.4681  0.0665 -0.1785
12550TIP3    H159141   6.341   1.767  15.577  0.1592  1.5640  1.0225
12550TIP3    H259142   6.189   1.762  15.580  0.1768 -0.6555  0.1200
12551TIP3   OH259143   1.873   0.966   4.289  0.1335  0.4007  0.1373
12551TIP3    H159144   1.960   0.954   4.252  0.2993  2.7233 -0.4037
12551TIP3    H259145   1.866   0.899   4.357  1.4016 -1.3252 -1.3517
12552TIP3   OH259146   2.224   1.461   1.348  0.0024 -0.3486  0.5134
12552TIP3    H159147   2.217   1.382   1.294  0.3490 -0.2425  0.3065
12552TIP3    H259148   2.298   1.443   1.406  1.2920  0.5409 -0.7840
12553TIP3   OH259149   5.318   6.204  11.017 -0.4516 -0.0362 -0.1262
12553TIP3    H159150   5.371   6.239  10.945 -0.3950 -0.0817 -0.1070
12553TIP3    H259151   5.228   6.227  10.994 -0.3642  0.6182  0.1617
12554TIP3   OH259152   6.314   5.253  12.143  0.4960 -0.0200  0.0663
12554TIP3    H159153   6.248   5.276  12.209 -1.6849  0.3860 -2.0825
12554TIP3    H259154   6.378   5.324  12.147 -0.7570  1.1371  0.3381
12555TIP3   OH259155   0.732   0.248   3.290  0.3324 -0.2443 -0.5527
12555TIP3    H159156   0.795   0.249   3.362  0.6588 -1.5803 -0.8090
12555TIP3    H259157   0.649   0.224   3.332  0.2015  0.4515 -0.3943
12556TIP3   OH259158   1.864   3.912   2.485  0.3546  0.3861  0.3128
12556TIP3    H159159   1.887   3.823   2.459  0.1690  0.3060  0.4236
12556TIP3    H259160   1.929   3.936   2.550 -0.2488 -0.0768  1.0989
12557TIP3   OH259161   2.963   6.600  16.377  0.0420  0.6144  0.1396
12557TIP3    H159162   2.980   6.660  16.304  1.0013  0.2567  0.0519
12557TIP3    H259163   3.050   6.571  16.404 -0.3393  0.3085  1.0661
12558TIP3   OH259164   4.295   5.847  14.509 -0.0034 -0.5400  0.2049
12558TIP3    H159165   4.351   5.901  14.454 -0.1828  1.7769  2.1679
12558TIP3    H259166   4.254   5.786  14.447  1.7228  0.2276 -1.8220
12559TIP3   OH259167   4.604   6.759  14.821  0.1962 -0.3703  0.0416
12559TIP3    H159168   4.629   6.810  14.898 -1.2933 -0.0081  0.3120
12559TIP3    H259169   4.524   6.801  14.789  1.2527  0.0134 -2.2464
12560TIP3   OH259170   6.638   4.275   4.869 -0.2536  0.8084  0.4441
12560TIP3    H159171   6.668   4.289   4.958  0.2102  2.1999  0.0958
12560TIP3    H259172   6.549   4.311   4.867 -0.3722  0.5177  0.4103
12561TIP3   OH259173   2.960   2.628   0.434  0.1596 -0.6101  0.5638
12561TIP3    H159174   3.024   2.566   0.399  1.5675  0.5445  1.0016
12561TIP3    H259175   2.967   2.705   0.377  0.1659  0.0505  1.4338
12562TIP3   OH259176   3.082   2.531   1.755  0.2586 -0.2072 -0.3651
12562TIP3    H159177   3.012   2.532   1.690  0.7471  0.4059 -0.8972
12562TIP3    H259178   3.161   2.510   1.705  0.5057 -0.5998  0.1779
12563TIP3   OH259179   1.351   6.293   0.112 -0.4018 -0.1537 -0.3229
12563TIP3    H159180   1.327   6.367   0.057 -0.1622  0.9244  0.9826
12563TIP3    H259181   1.268   6.260   0.145 -0.3942  0.8034  0.6837
12564TIP3   OH259182   4.756   4.085  12.640  0.3808 -0.1031  0.0422
12564TIP3    H159183   4.834   4.037  12.612 -1.4569 -2.0474 -2.2074
12564TIP3    H259184   4.755   4.163  12.584  0.6644 -0.1285  0.0004
12565TIP3   OH259185   4.597   5.577  16.851  0.6229 -0.2007 -0.2662
12565TIP3    H159186   4.553   5.650  16.894  2.3867  0.7408  0.0270
12565TIP3    H259187   4.669   5.617  16.802  3.4966 -1.8359  2.2246
12566TIP3   OH259188   6.009   1.159   3.329  0.0122 -0.4596  0.3660
12566TIP3    H159189   5.928   1.202   3.302 -0.9427 -1.9579  0.7601
12566TIP3    H259190   6.078   1.208   3.284 -1.2236 -0.3285 -1.4647
12567TIP3   OH259191   4.580   5.077  12.076 -0.8363 -0.2965 -0.1407
12567TIP3    H159192   4.591   4.983  12.090 -0.7338 -0.3321 -0.4438
12567TIP3    H259193   4.657   5.103  12.025  0.2420  0.3658  1.7641
12568TIP3   OH259194   2.827   2.601  15.005 -0.7068  0.0342 -0.2891
12568TIP3    H159195   2.909   2.646  14.984  1.6820 -3.7079  0.0922
12568TIP3    H259196   2.790   2.579  14.920 -0.9641  1.0683 -0.4617
12569TIP3   OH259197   4.315   0.648   2.321 -0.2743  0.5064  0.2440
12569TIP3    H159198   4.274   0.693   2.396 -1.3049  2.0432 -1.1737
12569TIP3    H259199   4.302   0.555   2.339 -0.5785  0.8323  1.9167
12570TIP3   OH259200   2.484   2.564   0.078 -0.0245 -0.6419 -0.3914
12570TIP3    H159201   2.408   2.518   0.044 -0.5040  0.2455 -0.5493
12570TIP3    H259202   2.519   2.612   0.003 -0.9177  1.0968  0.2401
12571TIP3   OH259203   1.687   0.417  11.956  0.1029 -0.1744  0.0721
12571TIP3    H159204   1.771   0.423  11.912 -0.8998  0.2694 -1.9301
12571TIP3    H259205   1.667   0.323  11.957  1.0522 -0.3868  1.5050
12572TIP3   OH259206   5.144   0.632   4.711  0.5282  0.1238 -0.1525
12572TIP3    H159207   5.064   0.680   4.691  0.8670  1.7018  1.9725
12572TIP3    H259208   5.197   0.639   4.632 -1.5753 -1.4714 -1.8402
12573TIP3   OH259209   2.254   0.147  10.713 -0.4933  0.3530 -0.2290
12573TIP3    H159210   2.323   0.214  10.719  0.7884 -1.0080  0.8818
12573TIP3    H259211   2.279   0.095  10.636 -0.3393 -0.0752  0.1102
12574TIP3   OH259212   3.398   5.401   2.979  0.6402  0.0642  0.0741
12574TIP3    H159213   3.466   5.367   2.920 -0.3062 -0.8814 -0.5073
12574TIP3    H259214   3.412   5.496   2.980 -0.4512  0.3915 -3.2179
12575TIP3   OH259215   2.024   4.177   5.154  0.1901 -0.5344  0.0223
12575TIP3    H159216   1.929   4.185   5.161  0.0721  1.0632 -2.1152
12575TIP3    H259217   2.052   4.262   5.119  2.6454 -0.3389  2.2351
12576TIP3   OH259218   1.407   0.892   2.968 -0.6680 -0.4078  0.6990
12576TIP3    H159219   1.408   0.809   2.919  1.7589 -1.2584  2.0356
12576TIP3    H259220   1.402   0.865   3.060  2.3615  0.7241  1.3120
12577TIP3   OH259221   2.829   3.957  14.512 -0.1715 -0.3260  0.9499
12577TIP3    H159222   2.827   3.872  14.467 -2.6919  0.6197 -0.9725
12577TIP3    H259223   2.759   3.950  14.577 -1.0665  0.5520  0.1121
12578TIP3   OH259224   4.974   2.353  15.987 -0.7239  0.1048  0.0681
12578TIP3    H159225   4.950   2.275  15.935  0.7839  1.4885 -2.9565
12578TIP3    H259226   5.068   2.343  16.003 -0.8631  0.4956  1.2197
12579TIP3   OH259227   6.736   3.790   1.426  0.4675  0.7923 -0.1436
12579TIP3    H159228   6.790   3.716   1.398  1.5999  1.4005  0.3425
12579TIP3    H259229   6.773   3.865   1.379 -0.4555  1.1175 -0.3793
12580TIP3   OH259230   6.376   5.040  16.209 -0.3067  0.2402 -0.2714
12580TIP3    H159231   6.382   4.991  16.127  0.3189 -0.1694  0.0105
12580TIP3    H259232   6.441   5.110  16.200  0.4687 -0.3954  0.2610
12581TIP3   OH259233   4.778   1.716   5.851  0.8788  0.1238  0.6327
12581TIP3    H159234   4.871   1.716   5.873  0.9007  1.2607  0.6062
12581TIP3    H259235   4.733   1.704   5.934  1.0378  0.6348  0.7970
12582TIP3   OH259236   0.586   1.029  12.775 -0.1097 -0.1510 -0.0476
12582TIP3    H159237   0.681   1.036  12.782 -0.2679  0.8462  1.9312
12582TIP3    H259238   0.560   0.983  12.855 -1.2550 -0.9177 -0.8373
12583TIP3   OH259239   4.087   2.406  11.730  0.3692 -0.3212  0.6391
12583TIP3    H159240   4.007   2.411  11.783  0.2371  1.4018  0.3143
12583TIP3    H259241   4.095   2.492  11.689  2.1642 -0.5977  0.3125
12584TIP3   OH259242   2.788   6.335  12.950 -0.4248 -0.3123  0.3860
12584TIP3    H159243   2.870   6.317  12.903 -0.2413 -2.7912  1.4779
12584TIP3    H259244   2.719   6.312  12.888 -0.3671  1.8082 -0.5485
12585TIP3   OH259245   4.498   6.482  14.442  0.2740 -0.1768 -0.4513
12585TIP3    H159246   4.419   6.532  14.463  0.5807 -0.2561  0.9989
12585TIP3    H259247   4.547   6.480  14.524  2.1518  0.5143 -1.5080
12586TIP3   OH259248   0.712   2.882  13.080 -0.3183  0.3036 -0.2516
12586TIP3    H159249   0.780   2.876  13.013 -0.5172  0.0339 -0.4316
12586TIP3    H259250   0.737   2.817  13.145 -0.8342 -0.3778 -0.7139
12587TIP3   OH259251   0.437   2.983  11.880 -0.0617 -0.3525 -0.3661
12587TIP3    H159252   0.430   2.895  11.843  0.3202  0.1416 -1.6948
12587TIP3    H259253   0.367   2.988  11.945 -2.3840 -0.5424 -2.6433
12588TIP3   OH259254   0.015   5.744   0.466  0.2206  0.0803  0.7185
12588TIP3    H159255   0.030   5.698   0.548  0.1665 -0.0549  0.6531
12588TIP3    H259256  -0.073   5.780   0.474  0.1169 -0.1448  0.6220
12589TIP3   OH259257   3.236   2.223  16.428  0.2889  0.4788 -0.2092
12589TIP3    H159258   3.204   2.227  16.338  0.0072  0.4735 -0.1112
12589TIP3    H259259   3.323   2.185  16.421  1.5533  3.2756 -0.8042
12590TIP3   OH259260   0.404   4.995  16.545 -0.0792  0.4166  0.3202
12590TIP3    H159261   0.361   5.079  16.559 -0.0301  0.5078 -0.0527
12590TIP3    H259262   0.333   4.930  16.552 -0.5053  0.6436 -1.3311
12591TIP3   OH259263   5.194   3.899   5.746 -0.0750  0.6277 -0.6588
12591TIP3    H159264   5.188   3.858   5.833  2.8158  3.2018  0.9847
12591TIP3    H259265   5.214   3.827   5.687 -0.6460 -1.0327  1.0536
12592TIP3   OH259266   1.930   6.106  12.316 -0.8886 -0.2714  0.2767
12592TIP3    H159267   1.956   6.196  12.334 -0.4996  0.1001 -1.8417
12592TIP3    H259268   2.011   6.061  12.293 -1.3883 -0.4424 -1.2816
12593TIP3   OH259269   6.428   3.286   0.742 -0.2430  0.0788 -0.4520
12593TIP3    H159270   6.458   3.286   0.651 -0.3551 -1.7388 -0.5274
12593TIP3    H259271   6.375   3.365   0.750  1.4998  1.4052 -1.3419
12594TIP3   OH259272   1.033   4.621  15.197  0.4006  0.1366  0.4048
12594TIP3    H159273   1.073   4.708  15.196  2.2309 -0.6613 -0.8861
12594TIP3    H259274   1.047   4.587  15.109 -2.0107 -0.7564  0.2981
12595TIP3   OH259275   1.816   4.891   2.221 -0.0276 -0.3773  0.0129
12595TIP3    H159276   1.908   4.878   2.243 -0.1884 -2.4027 -0.2897
12595TIP3    H259277   1.798   4.825   2.153 -2.2098 -1.5579  1.5874
12596TIP3   OH259278   3.619   4.799   1.904 -0.0044  0.7948 -0.6687
12596TIP3    H159279   3.540   4.851   1.923 -1.1833 -1.2419  0.3514
12596TIP3    H259280   3.634   4.749   1.984  3.4735  2.4311 -0.1383
12597TIP3   OH259281   0.412   3.037   1.100 -0.6290 -0.0781  0.0970
12597TIP3    H159282   0.341   3.039   1.164 -1.1307 -0.5445 -0.4330
12597TIP3    H259283   0.438   2.945   1.097 -1.7948 -0.3912 -1.6347
12598TIP3   OH259284   1.809   5.099  14.032  0.4633  0.8835  0.4803
12598TIP3    H159285   1.820   5.030  13.967  0.2294 -0.5978  1.9524
12598TIP3    H259286   1.896   5.111  14.070 -0.0508 -1.0221  2.5020
12599TIP3   OH259287   3.972   4.858   4.289  0.0211  0.1463  0.4701
12599TIP3    H159288   3.989   4.827   4.200  0.6620  0.1078  0.6040
12599TIP3    H259289   4.044   4.823   4.341 -1.5850 -1.9139  1.4905
12600TIP3   OH259290   6.249   6.790  16.335  0.1162  0.2750  0.1330
12600TIP3    H159291   6.258   6.702  16.372 -0.5173  0.8705  1.7622
12600TIP3    H259292   6.187   6.835  16.392  1.5489  2.2747  0.2385
12601TIP3   OH259293   0.742   4.543  13.753 -0.5282  0.6419 -0.7476
12601TIP3    H159294   0.825   4.533  13.705  0.5860  1.5141  0.9095
12601TIP3    H259295   0.758   4.616  13.812 -2.6193  1.0124 -0.5971
12602TIP3   OH259296   5.875   2.799  15.954  0.2830  0.0697  0.0985
12602TIP3    H159297   5.819   2.723  15.934  2.5948 -1.2684 -1.7978
12602TIP3    H259298   5.868   2.854  15.877  2.2292 -0.6074 -0.6268
12603TIP3   OH259299   3.048   6.501  12.469 -0.4325 -0.2154 -0.4068
12603TIP3    H159300   2.972   6.478  12.416 -0.8984  0.3847 -0.0214
12603TIP3    H259301   3.122   6.503  12.408 -0.4502 -2.2129 -0.5407
12604TIP3   OH259302   4.423   2.167  14.849  0.0095 -0.1788  0.3182
12604TIP3    H159303   4.493   2.106  14.825 -0.9391 -2.1206  2.1098
12604TIP3    H259304   4.463   2.223  14.916  0.0895 -0.7314  0.7366
12605TIP3   OH259305   6.328   4.313   2.860  0.1363 -0.1926 -0.6049
12605TIP3    H159306   6.339   4.300   2.954  1.1202 -0.4167 -0.7407
12605TIP3    H259307   6.259   4.379   2.853  0.1080 -0.1171  0.2706
12606TIP3   OH259308   6.849   6.252  13.385 -0.1417  0.1926 -0.2138
12606TIP3    H159309   6.913   6.214  13.324  1.1089  1.6959  0.0752
12606TIP3    H259310   6.875   6.218  13.471 -0.9784 -0.7502 -0.3238
12607TIP3   OH259311   3.445   0.671   3.066  0.0017  0.0888 -0.6416
12607TIP3    H159312   3.420   0.755   3.029 -0.6374  0.1504 -0.1013
12607TIP3    H259313   3.439   0.684   3.161  0.4778 -0.3893 -0.5419
12608TIP3   OH259314   0.429   1.208  13.277 -0.1301 -0.1058 -0.0629
12608TIP3    H159315   0.408   1.274  13.343  0.3803 -0.3519  0.3539
12608TIP3    H259316   0.470   1.137  13.327 -2.2016 -1.5122 -0.2253
12609TIP3   OH259317   3.514   2.189   3.664 -0.4788  0.9594 -0.2682
12609TIP3    H159318   3.516   2.229   3.577  1.4270 -1.2525 -1.3776
12609TIP3    H259319   3.573   2.242   3.717 -0.1115  1.2029 -0.9099
12610TIP3   OH259320   0.685   5.861   5.130  0.5174 -0.5426  0.4669
12610TIP3    H159321   0.617   5.853   5.063  0.7697 -0.2682  0.1644
12610TIP3    H259322   0.743   5.930   5.095  0.9466 -0.7771  0.7123
12611TIP3   OH259323   5.457   4.618   4.563  0.4074 -0.6721  0.1251
12611TIP3    H159324   5.415   4.611   4.648  2.9131  0.4429  1.5781
12611TIP3    H259325   5.459   4.712   4.545 -1.0225 -0.9372 -1.7457
12612TIP3   OH259326   3.407   3.303   3.016  0.2564  0.3642  0.1969
12612TIP3    H159327   3.360   3.315   2.933 -0.9695 -0.6902  0.7035
12612TIP3    H259328   3.489   3.260   2.991 -0.5359 -0.8579 -0.3917
12613TIP3   OH259329   1.481   6.736   5.384 -0.3679 -0.0892 -0.1313
12613TIP3    H159330   1.468   6.808   5.323 -0.5395  1.3638  1.5271
12613TIP3    H259331   1.398   6.688   5.383 -1.1894  1.2445  0.5655
12614TIP3   OH259332   4.023   0.062   2.199  0.4768 -0.2132  0.4262
12614TIP3    H159333   4.064  -0.025   2.205  3.0600  0.9739  1.6554
12614TIP3    H259334   4.076   0.109   2.135  0.4388  1.0870  1.3146
12615TIP3   OH259335   6.231   1.698  12.623 -0.1153  0.0558 -0.0797
12615TIP3    H159336   6.318   1.677  12.655 -0.0315 -0.9489 -0.9351
12615TIP3    H259337   6.198   1.617  12.586 -1.4495  0.4010  0.2797
12616TIP3   OH259338   4.496   5.137   0.532  0.0718 -0.0766  0.5127
12616TIP3    H159339   4.553   5.214   0.525  0.7322 -0.5831  0.1457
12616TIP3    H259340   4.420   5.167   0.582 -0.6569  1.3588 -1.3435
12617TIP3   OH259341   4.550   0.950  12.077 -0.1836 -0.6953  0.0421
12617TIP3    H159342   4.467   0.906  12.095 -0.4815 -0.1338  0.0748
12617TIP3    H259343   4.601   0.939  12.158  0.5181 -2.6268 -0.6081
12618TIP3   OH259344   6.271   5.339   0.923  0.6564  0.4303  0.0482
12618TIP3    H159345   6.185   5.345   0.882  0.1948 -3.3416  0.1642
12618TIP3    H259346   6.329   5.308   0.854  1.4822  0.8961  0.5097
12619TIP3   OH259347   3.822   5.974  16.695  0.2865  0.1652 -0.3380
12619TIP3    H159348   3.820   6.042  16.628  0.2820 -0.7885 -1.3279
12619TIP3    H259349   3.913   5.973  16.725  1.4851 -2.3707 -3.5218
12620TIP3   OH259350   0.551   3.694  15.638  0.2096  0.3342 -0.8073
12620TIP3    H159351   0.483   3.688  15.705  1.5636 -0.5039  0.5474
12620TIP3    H259352   0.565   3.788  15.626  1.1146  0.5369  1.3900
12621TIP3   OH259353   3.998   6.489   2.843 -0.0462 -0.6076  0.1377
12621TIP3    H159354   3.924   6.526   2.794  0.9429 -1.0545 -1.8144
12621TIP3    H259355   3.971   6.399   2.861 -0.6431 -0.2802  0.9307
12622TIP3   OH259356   1.825   2.511  11.335  0.2759  0.0112  0.1830
12622TIP3    H159357   1.840   2.520  11.241  0.4817  1.5825  0.3505
12622TIP3    H259358   1.897   2.557  11.376 -0.2239 -0.0057  1.1059
12623TIP3   OH259359   4.601   0.711   3.688 -0.4752 -0.4569  0.5299
12623TIP3    H159360   4.593   0.667   3.604 -0.8139 -1.7081  1.1993
12623TIP3    H259361   4.618   0.641   3.751  0.8139  0.5561  1.3748
12624TIP3   OH259362   5.034   6.605  13.853  0.3267 -0.0528 -0.4023
12624TIP3    H159363   5.092   6.596  13.928  0.9592 -1.9532 -1.0666
12624TIP3    H259364   4.946   6.592  13.889  0.1630  3.1310  0.6560
12625TIP3   OH259365   3.313   2.019  15.961 -0.2769 -0.1753 -0.1048
12625TIP3    H159366   3.257   1.961  15.910  0.3662 -1.2306  0.3519
12625TIP3    H259367   3.385   1.962  15.991 -0.5434  0.4492  1.8213
12626TIP3   OH259368   5.669   4.253   5.150 -0.0233 -0.4157 -0.2739
12626TIP3    H159369   5.629   4.227   5.233  1.0808 -0.0171  0.4063
12626TIP3    H259370   5.730   4.181   5.130 -2.5627 -2.1689 -2.4656
12627TIP3   OH259371   0.523   0.814   3.618  0.4463 -0.0308 -0.6839
12627TIP3    H159372   0.596   0.819   3.680  0.5011 -2.2366 -0.4961
12627TIP3    H259373   0.446   0.797   3.672  0.1213  0.2651 -1.0461
12628TIP3   OH259374   3.707   6.162   3.633 -0.0080  0.2149  0.0740
12628TIP3    H159375   3.660   6.156   3.549  0.2445  0.3912 -0.0824
12628TIP3    H259376   3.693   6.077   3.674  0.8025 -0.2852 -0.6569
12629TIP3   OH259377   2.211   3.884   0.970 -0.1149 -0.0652 -0.2208
12629TIP3    H159378   2.233   3.923   0.886 -0.6964  0.5005 -0.1201
12629TIP3    H259379   2.234   3.951   1.035  0.1680 -0.4273  0.0591
12630TIP3   OH259380   3.138   5.999   3.392  0.3808 -0.5863  0.3409
12630TIP3    H159381   3.103   5.940   3.459  0.3373 -2.6512 -1.4095
12630TIP3    H259382   3.061   6.035   3.349  0.4217  0.0212  0.7536
12631TIP3   OH259383   3.445   4.603  12.961  0.4854  0.0639 -0.1230
12631TIP3    H159384   3.474   4.601  13.052 -0.6374 -1.7494  0.2311
12631TIP3    H259385   3.386   4.678  12.957  0.8449  0.3958  0.5367
12632TIP3   OH259386   0.012   1.159  16.295  0.5780  0.5004 -0.4462
12632TIP3    H159387   0.091   1.110  16.317 -0.5526 -2.2183 -1.8778
12632TIP3    H259388  -0.050   1.138  16.365 -0.8524 -2.7604 -2.4301
12633TIP3   OH259389   4.119   1.118  15.506 -0.0146 -0.2770  0.2256
12633TIP3    H159390   4.202   1.161  15.529 -0.4913  0.1636  1.1520
12633TIP3    H259391   4.121   1.114  15.410  0.5689  0.7892  0.1701
12634TIP3   OH259392   6.836   3.833   3.075  0.2858  0.4479 -0.1651
12634TIP3    H159393   6.755   3.801   3.036 -0.1282  1.2079  0.0508
12634TIP3    H259394   6.811   3.914   3.120  1.6480  2.2976 -2.4675
12635TIP3   OH259395   3.990   6.792   3.761 -0.1422  0.1235 -0.0377
12635TIP3    H159396   3.992   6.790   3.666 -1.9051 -0.6663 -0.1081
12635TIP3    H259397   4.081   6.790   3.788  0.3697 -0.0248 -1.7011
12636TIP3   OH259398   4.127   0.316  16.517  0.2621 -0.3214 -0.0576
12636TIP3    H159399   4.073   0.238  16.528 -1.7067  1.0179  0.2183
12636TIP3    H259400   4.148   0.318  16.424 -0.2813 -0.7888 -0.1919
12637TIP3   OH259401   0.874   5.638  13.144  0.4254  0.1728 -0.3546
12637TIP3    H159402   0.827   5.720  13.160  0.5557  0.4248 -1.2220
12637TIP3    H259403   0.966   5.665  13.134  0.4505 -0.0602 -0.7703
12638TIP3   OH259404   4.868   6.596   2.728 -0.4498  0.6033  0.0739
12638TIP3    H159405   4.797   6.629   2.783  0.1625 -0.5147  1.5984
12638TIP3    H259406   4.935   6.664   2.731 -1.0742  1.2662 -0.6467
12639TIP3   OH259407   2.224   1.048   2.277  0.1258  0.1827  0.2558
12639TIP3    H159408   2.141   1.074   2.236  0.7271  1.0539 -0.4521
12639TIP3    H259409   2.270   0.999   2.208 -0.5787 -1.9880  1.2590
12640TIP3   OH259410   1.898   3.419   2.829 -0.0301  0.2761 -0.4168
12640TIP3    H159411   1.951   3.394   2.754  2.6781  0.2844  1.3529
12640TIP3    H259412   1.877   3.336   2.872  0.5663  0.4142  0.1511
12641TIP3   OH259413   6.212   2.025   4.288 -0.1652  0.1140  0.1586
12641TIP3    H159414   6.277   2.039   4.357 -0.6137 -1.2892  0.8805
12641TIP3    H259415   6.165   2.108   4.283 -0.2913  0.1613  1.7090
12642TIP3   OH259416   3.974   2.692   1.877 -0.4258  0.0680  0.2071
12642TIP3    H159417   4.055   2.651   1.847  1.0298  2.6814  0.2651
12642TIP3    H259418   3.940   2.633   1.944  2.4170 -0.2627  1.4938
12643TIP3   OH259419   0.574   6.064  14.179  0.2255  0.0109 -0.1677
12643TIP3    H159420   0.562   6.120  14.255 -1.3273 -1.6738  0.9024
12643TIP3    H259421   0.498   6.081  14.124  0.6874  0.2750 -0.7349
12644TIP3   OH259422   4.386   1.720   3.517 -0.4208  0.3147  0.2564
12644TIP3    H159423   4.465   1.773   3.521  0.7360 -1.3683  3.4633
12644TIP3    H259424   4.333   1.760   3.448  2.6579  2.2481 -1.1793
12645TIP3   OH259425   4.010   6.148  15.341 -0.2967  0.0204 -0.2813
12645TIP3    H159426   3.952   6.101  15.400 -0.0931  0.9876  0.7202
12645TIP3    H259427   4.094   6.102  15.349 -0.5132 -0.4227 -0.5385
12646TIP3   OH259428   0.792   5.719  13.981 -0.1567  0.4238  0.0831
12646TIP3    H159429   0.846   5.714  13.902 -0.7864  1.7028 -0.4475
12646TIP3    H259430   0.814   5.639  14.029  2.0515  0.7707 -0.2010
12647TIP3   OH259431   1.745   2.827  12.760  0.0076 -0.6572 -0.3991
12647TIP3    H159432   1.745   2.860  12.670 -2.0501  1.3343  0.2182
12647TIP3    H259433   1.709   2.739  12.753 -1.7914  0.0899 -1.4233
12648TIP3   OH259434   2.775   4.182  14.837 -0.8281 -0.1933 -0.5234
12648TIP3    H159435   2.685   4.180  14.805 -1.5566 -0.0255  1.3576
12648TIP3    H259436   2.770   4.146  14.926  1.1154 -1.0124 -0.6871
12649TIP3   OH259437   6.549   1.619  11.346 -0.0169 -0.2188 -0.4897
12649TIP3    H159438   6.608   1.561  11.395 -3.3974 -2.4528  1.3439
12649TIP3    H259439   6.516   1.681  11.411 -1.3157 -0.4516 -0.8886
12650TIP3   OH259440   5.573   5.247  15.726  0.4210 -0.0392  0.3922
12650TIP3    H159441   5.642   5.181  15.734 -0.5795 -1.3574 -1.2674
12650TIP3    H259442   5.502   5.214  15.782  0.3838  0.3110  0.5565
12651TIP3   OH259443   6.507   2.534   5.609 -0.6218 -0.3453 -0.8592
12651TIP3    H159444   6.449   2.458   5.607 -0.9342 -0.1063 -0.9128
12651TIP3    H259445   6.563   2.519   5.685 -0.1014 -1.0551 -1.3703
12652TIP3   OH259446   1.273   2.735   4.811 -0.1653 -0.3055  0.7508
12652TIP3    H159447   1.300   2.681   4.737  0.0420  0.5072  0.2165
12652TIP3    H259448   1.195   2.691   4.846 -0.5007 -0.4928 -0.1936
12653TIP3   OH259449   5.075   0.758   2.514 -0.1399 -0.1999  0.0262
12653TIP3    H159450   5.125   0.798   2.442  1.7151 -2.5540 -0.1549
12653TIP3    H259451   4.990   0.737   2.476 -0.2441  1.2248 -0.5792
12654TIP3   OH259452   5.587   2.199  14.640  0.0356 -0.3774 -0.2813
12654TIP3    H159453   5.583   2.213  14.735 -1.1278  0.1706 -0.3913
12654TIP3    H259454   5.508   2.148  14.620 -0.7744  1.1545 -1.1975
12655TIP3   OH259455   3.484   3.545  13.990 -0.0518 -0.3531 -0.7544
12655TIP3    H159456   3.457   3.583  14.073 -2.1719 -0.1105 -1.4958
12655TIP3    H259457   3.465   3.452  13.999 -0.6333 -0.2694 -1.0852
12656TIP3   OH259458   0.116   3.800   3.823  0.1780  0.3055 -0.2793
12656TIP3    H159459   0.108   3.770   3.913  1.1148 -2.3043 -0.9773
12656TIP3    H259460   0.031   3.780   3.783  0.5606 -0.8335 -0.5569
12657TIP3   OH259461   5.776   1.718   6.106 -0.1989  0.3353 -0.0861
12657TIP3    H159462   5.784   1.798   6.157  2.6324 -0.2948  0.6432
12657TIP3    H259463   5.833   1.655   6.151  0.3503 -1.0439 -2.5131
12658TIP3   OH259464   6.797   5.731  10.984  0.1194  0.1122  0.4481
12658TIP3    H159465   6.703   5.731  10.966  0.0045  2.1020  0.7328
12658TIP3    H259466   6.819   5.640  11.000 -2.3738 -0.1792  3.2882
12659TIP3   OH259467   0.171   6.005  13.252 -0.1861 -0.6884 -0.1056
12659TIP3    H159468   0.086   5.972  13.222  0.4930 -1.3193 -1.4461
12659TIP3    H259469   0.184   6.085  13.201 -0.2922 -0.1971  0.6308
12660TIP3   OH259470   3.952   3.618   0.710  0.4115 -0.0682  0.4961
12660TIP3    H159471   3.862   3.623   0.742 -0.1488 -0.3081 -0.9482
12660TIP3    H259472   3.956   3.534   0.663  1.7503 -0.6308  1.5529
12661TIP3   OH259473   2.481   4.445  11.277  0.1088  0.1793 -0.1579
12661TIP3    H159474   2.498   4.441  11.183  0.5071 -0.8217 -0.0596
12661TIP3    H259475   2.385   4.449  11.284 -0.0394 -1.7218 -0.5888
12662TIP3   OH259476   3.915   3.719   5.114 -0.3169  0.1234  0.2164
12662TIP3    H159477   3.891   3.782   5.182 -0.7439 -2.3151  2.4862
12662TIP3    H259478   3.905   3.633   5.156  2.7811 -1.4329 -1.8526
12663TIP3   OH259479   4.054   5.713   5.680 -0.7460  0.2150 -0.1303
12663TIP3    H159480   4.099   5.785   5.635  0.1538  1.3165  2.3425
12663TIP3    H259481   4.112   5.637   5.667 -0.4338  0.5385 -0.6598
12664TIP3   OH259482   0.853   3.024   2.392  0.5694 -0.0003  0.1498
12664TIP3    H159483   0.879   2.933   2.380 -0.3263 -0.4154  1.2160
12664TIP3    H259484   0.760   3.026   2.371  0.7616  0.8722 -0.7358
12665TIP3   OH259485   1.785   0.311   6.359  0.0710  0.1540 -0.0207
12665TIP3    H159486   1.742   0.342   6.439 -0.1485  1.8633 -0.7588
12665TIP3    H259487   1.715   0.270   6.309  0.3043 -1.3669  0.8395
12666TIP3   OH259488   0.162   2.559  16.279  0.0389 -0.1538 -0.6347
12666TIP3    H159489   0.141   2.467  16.289 -1.6135  0.2139 -0.5539
12666TIP3    H259490   0.238   2.572  16.336  0.3380 -1.4652 -0.7091
12667TIP3   OH259491   1.822   1.080   3.240  0.0919  0.1471 -0.2378
12667TIP3    H159492   1.729   1.098   3.227 -0.0500 -0.3199  0.1189
12667TIP3    H259493   1.841   1.109   3.329  0.3458  0.4653 -0.3922
12668TIP3   OH259494   0.796   6.320  16.589  0.0667  0.6471  0.6153
12668TIP3    H159495   0.810   6.226  16.603 -0.2766  0.5591  0.3653
12668TIP3    H259496   0.768   6.353  16.674  0.3722  0.5582  0.7493
12669TIP3   OH259497   3.154   0.569   6.108 -0.7390  0.5251 -0.6131
12669TIP3    H159498   3.125   0.589   6.197 -0.3893  0.6116 -0.5134
12669TIP3    H259499   3.130   0.477   6.095  0.2280  0.1665  0.0009
12670TIP3   OH259500   5.842   3.334  11.453  0.0814  0.2879  0.6821
12670TIP3    H159501   5.753   3.341  11.419  0.3813 -0.2585 -0.2420
12670TIP3    H259502   5.887   3.412  11.421  0.4917 -0.4538 -0.6093
12671TIP3   OH259503   3.178   3.999  13.865  0.3895  0.5613  0.1151
12671TIP3    H159504   3.226   3.915  13.869  2.3978  1.6593  0.7826
12671TIP3    H259505   3.175   4.029  13.956 -2.6472  0.0514  0.2737
12672TIP3   OH259506   6.394   0.343  15.568 -0.2070 -0.5944  0.2327
12672TIP3    H159507   6.324   0.319  15.629 -0.9450  1.5755  0.3066
12672TIP3    H259508   6.460   0.385  15.623 -0.2233  0.0707 -0.2437
12673TIP3   OH259509   4.873   5.344  11.577 -0.4813  0.0290  0.3691
12673TIP3    H159510   4.906   5.257  11.554 -1.2476 -0.5427  1.3270
12673TIP3    H259511   4.920   5.404  11.520 -1.4218 -1.1927 -1.7933
12674TIP3   OH259512   0.803   0.839  11.622  0.3150 -0.2802 -0.0857
12674TIP3    H159513   0.747   0.766  11.649 -0.0149  0.2264  0.6300
12674TIP3    H259514   0.779   0.911  11.681  1.1683  0.1826 -0.2860
12675TIP3   OH259515   3.992   1.854   1.518 -0.1784  0.4107  0.1148
12675TIP3    H159516   4.007   1.822   1.607 -1.7493  0.7126  0.5254
12675TIP3    H259517   4.079   1.862   1.480  0.6652  1.9168  2.1847
12676TIP3   OH259518   1.900   2.944  11.699 -0.4559  0.6793 -0.0848
12676TIP3    H159519   1.820   2.995  11.687 -0.9318 -0.2825 -1.1945
12676TIP3    H259520   1.924   2.959  11.790 -1.3636  1.7491  0.0014
12677TIP3   OH259521   0.303   6.623  13.458 -0.2482  0.5335  0.2605
12677TIP3    H159522   0.209   6.628  13.440 -0.6081 -0.3440  1.7256
12677TIP3    H259523   0.344   6.678  13.391 -1.9943  3.1496  1.2025
12678TIP3   OH259524   5.055   2.470   0.464 -0.0171 -0.3058 -0.1189
12678TIP3    H159525   5.025   2.386   0.429  1.1058 -0.2361 -1.3386
12678TIP3    H259526   5.140   2.483   0.423 -0.0945  1.3495  0.1986
12679TIP3   OH259527   6.562   4.905   3.954  0.4458  0.3286 -0.2693
12679TIP3    H159528   6.643   4.955   3.968  1.8319 -1.5107 -1.1756
12679TIP3    H259529   6.542   4.868   4.040 -0.2001  1.7882  0.2468
12680TIP3   OH259530   4.685   1.951  11.383 -0.2831  0.2160  0.0230
12680TIP3    H159531   4.653   1.934  11.294  2.3634  0.3410 -1.0588
12680TIP3    H259532   4.730   1.870  11.408 -0.2100  0.5034  0.8548
12681TIP3   OH259533   3.796   4.729  15.489  0.1814  0.5095 -0.1388
12681TIP3    H159534   3.813   4.727  15.394  1.9229  2.2625  0.0747
12681TIP3    H259535   3.862   4.788  15.524  1.2534 -2.0470  2.5636
12682TIP3   OH259536   3.824   6.671  11.665  0.0832  0.5858 -0.0308
12682TIP3    H159537   3.868   6.736  11.610 -1.1340  1.7947  0.3374
12682TIP3    H259538   3.734   6.671  11.633 -0.4582  0.7304  1.4104
12683TIP3   OH259539   5.893   3.193   3.454  0.0932  0.4655 -0.3404
12683TIP3    H159540   5.933   3.167   3.370 -0.4653 -1.5941 -0.0304
12683TIP3    H259541   5.967   3.220   3.508  0.3654  3.1311 -1.8317
12684TIP3   OH259542   3.247   2.806   0.436  0.0533 -0.0017 -0.6383
12684TIP3    H159543   3.264   2.807   0.341 -2.3683 -1.1290 -1.1630
12684TIP3    H259544   3.214   2.894   0.455 -1.7149 -0.4479 -1.3939
12685TIP3   OH259545   6.855   0.380  12.876 -0.2720 -0.1012  0.0690
12685TIP3    H159546   6.872   0.474  12.884  0.1335 -0.2530  1.0777
12685TIP3    H259547   6.802   0.358  12.952  2.3104 -1.2730  1.6522
12686TIP3   OH259548   4.349   4.435   3.364 -0.5726  0.4563  0.1930
12686TIP3    H159549   4.403   4.513   3.358 -0.9206  1.1061  3.4820
12686TIP3    H259550   4.408   4.366   3.396 -0.8418  0.1017 -0.0593
12687TIP3   OH259551   4.392   0.180   2.824  0.0093 -0.1135 -0.0315
12687TIP3    H159552   4.402   0.100   2.773  0.0482 -0.6453  0.7828
12687TIP3    H259553   4.389   0.250   2.759 -0.3047 -0.7980 -0.7733
12688TIP3   OH259554   6.238   2.315  11.607 -0.1795 -0.9970 -0.2535
12688TIP3    H159555   6.194   2.316  11.523  1.0246  1.2811 -0.9570
12688TIP3    H259556   6.322   2.358  11.591 -0.2229  0.2316  2.2446
12689TIP3   OH259557   0.259   1.628  12.394 -0.1600  0.0448  0.0917
12689TIP3    H159558   0.261   1.716  12.357  2.3049 -0.1765 -0.4930
12689TIP3    H259559   0.344   1.618  12.437 -0.5379 -1.9102  0.4794
12690TIP3   OH259560   0.766   4.739  14.690 -0.6848 -0.1255 -0.1382
12690TIP3    H159561   0.817   4.772  14.764  1.5072 -0.7535 -1.2886
12690TIP3    H259562   0.734   4.818  14.646  2.3972  0.5581 -1.4210
12691TIP3   OH259563   5.766   0.377   4.861 -0.2544 -0.2361 -0.3049
12691TIP3    H159564   5.824   0.434   4.811 -0.5251 -0.1587 -0.5354
12691TIP3    H259565   5.683   0.379   4.813 -0.6777  0.2457  0.4198
12692TIP3   OH259566   3.858   0.783  16.395 -0.5000  0.6983 -0.1440
12692TIP3    H159567   3.909   0.858  16.427 -0.7925  0.5053  0.8100
12692TIP3    H259568   3.903   0.707  16.431  0.3377  0.3187 -1.8531
12693TIP3   OH259569   3.295   6.826   1.845 -0.2483 -0.1643  0.4756
12693TIP3    H159570   3.387   6.822   1.873  0.1470  2.3327 -0.1632
12693TIP3    H259571   3.296   6.888   1.772 -2.2751 -1.1232 -0.4402
12694TIP3   OH259572   1.643   3.618   2.116  0.8610  0.0761  0.6859
12694TIP3    H159573   1.560   3.615   2.068 -0.6462  1.2444  3.0227
12694TIP3    H259574   1.699   3.675   2.064 -0.2032  0.1759 -0.3896
12695TIP3   OH259575   4.962   6.170  13.858 -0.5783 -0.6727  0.4324
12695TIP3    H159576   5.049   6.205  13.842  0.2877 -3.2485 -0.9407
12695TIP3    H259577   4.963   6.145  13.951 -0.6455  1.2244  0.9844
12696TIP3   OH259578   1.858   0.594   3.181 -0.3397  0.2428 -0.3161
12696TIP3    H159579   1.860   0.660   3.250  0.4239  0.0298 -0.1268
12696TIP3    H259580   1.781   0.541   3.200  0.1828 -0.1655  0.7070
12697TIP3   OH259581   2.861   4.548   3.333 -0.3121  0.5432 -0.2204
12697TIP3    H159582   2.888   4.573   3.421  2.4217 -0.4348 -0.6696
12697TIP3    H259583   2.775   4.508   3.344  0.6321 -1.0072  2.2629
12698TIP3   OH259584   3.643   3.139  15.624  0.0580  0.1304 -0.0249
12698TIP3    H159585   3.622   3.062  15.678  0.1684 -0.5966 -1.0031
12698TIP3    H259586   3.729   3.120  15.588  0.6109  1.2532  0.6457
12699TIP3   OH259587   6.280   1.676  13.656  0.2440 -0.0013  0.8188
12699TIP3    H159588   6.206   1.618  13.673 -0.8065  1.3568  1.1096
12699TIP3    H259589   6.297   1.719  13.740  1.5061 -0.4366  0.8003
12700TIP3   OH259590   4.445   5.034  13.116 -0.0059 -0.5788  0.0999
12700TIP3    H159591   4.380   4.966  13.133  0.2774 -0.6087  1.1219
12700TIP3    H259592   4.486   5.050  13.201  0.9267 -0.1508 -0.4102
12701TIP3   OH259593   6.190   4.755   3.264  0.0957 -0.0510  0.0221
12701TIP3    H159594   6.245   4.770   3.341 -0.5953  0.1695  0.4855
12701TIP3    H259595   6.199   4.836   3.213 -0.1747  0.1837  0.3388
12702TIP3   OH259596   4.441   1.997  15.245 -0.2139 -0.0499  0.3856
12702TIP3    H159597   4.378   1.965  15.180  1.7125 -0.3325 -1.4684
12702TIP3    H259598   4.452   1.925  15.306 -0.1656 -0.8018 -0.4802
12703TIP3   OH259599   3.553   0.167   0.190  0.8835  0.2979  0.5933
12703TIP3    H159600   3.556   0.095   0.128  0.2425  1.4244 -0.7996
12703TIP3    H259601   3.570   0.126   0.275  3.3776 -1.0748 -0.4507
12704TIP3   OH259602   2.517   4.400   2.426  0.7016 -0.1597 -0.0472
12704TIP3    H159603   2.520   4.319   2.478 -1.6148 -0.0496  0.3858
12704TIP3    H259604   2.601   4.443   2.443  1.1614 -1.5057  1.3281
12705TIP3   OH259605   2.045   3.532   1.517 -0.2868 -0.2020 -0.1250
12705TIP3    H159606   2.021   3.444   1.489 -0.8719 -0.0110 -0.2434
12705TIP3    H259607   1.976   3.557   1.579  0.7018 -0.4172  1.1052
12706TIP3   OH259608   1.613   5.283   3.424 -0.3552 -0.4211  0.3045
12706TIP3    H159609   1.673   5.357   3.431  0.9149 -1.5221  1.5704
12706TIP3    H259610   1.582   5.286   3.333  2.0281 -0.0993 -0.5658
12707TIP3   OH259611   6.278   1.747  15.207 -0.1993  0.1413  0.1424
12707TIP3    H159612   6.285   1.709  15.295  1.0666  0.6030  0.2657
12707TIP3    H259613   6.241   1.677  15.154 -2.4308  0.3340  1.3151
12708TIP3   OH259614   5.091   1.329   1.660  0.1465 -0.5257  0.1385
12708TIP3    H159615   5.105   1.348   1.567 -1.1537  0.0491  0.0463
12708TIP3    H259616   5.166   1.369   1.704 -1.1318  2.7079 -0.3167
12709TIP3   OH259617   3.231   0.706   0.816 -0.2266  0.5481 -0.3157
12709TIP3    H159618   3.168   0.727   0.885  0.5054 -0.9107  0.8479
12709TIP3    H259619   3.281   0.787   0.805  1.0864  0.2306  2.4790
12710TIP3   OH259620   4.826   5.660   2.146  0.5119 -0.7014 -0.1094
12710TIP3    H159621   4.734   5.685   2.133  0.3315 -1.5518 -0.5112
12710TIP3    H259622   4.851   5.615   2.066  1.4884  0.0800 -0.2626
12711TIP3   OH259623   3.201   2.774  13.931 -0.1919  0.3834 -0.2131
12711TIP3    H159624   3.216   2.865  13.957 -1.1043 -0.1515  2.4860
12711TIP3    H259625   3.108   2.769  13.912 -0.0036  0.1548 -1.1301
12712TIP3   OH259626   3.272   1.552   5.876 -0.3405  0.3755  0.0357
12712TIP3    H159627   3.203   1.602   5.832 -0.8123  0.0616  0.4069
12712TIP3    H259628   3.278   1.471   5.826 -1.8467 -0.5862  1.3279
12713TIP3   OH259629   5.929   6.369  14.120  0.1685 -0.0571  0.4748
12713TIP3    H159630   5.839   6.401  14.129  0.9242  2.1122  0.9812
12713TIP3    H259631   5.943   6.315  14.198  0.1947  2.0471  2.0243
12714TIP3   OH259632   1.498   4.096  13.917 -0.0243  0.3814 -0.0158
12714TIP3    H159633   1.592   4.111  13.907 -0.1189  1.3879  0.4140
12714TIP3    H259634   1.472   4.155  13.989 -0.5306 -1.7057  1.6140
12715TIP3   OH259635   2.572   4.244   0.617  0.3888  0.0178 -0.0833
12715TIP3    H159636   2.517   4.184   0.567  1.3971 -1.6837  0.7475
12715TIP3    H259637   2.662   4.219   0.595  0.8654  1.9506 -0.5133
12716TIP3   OH259638   0.931   0.425  16.675  0.6028 -0.2689  1.2917
12716TIP3    H159639   0.906   0.414  16.583 -0.6828  1.7352  1.3265
12716TIP3    H259640   0.873   0.366  16.723  0.3702 -0.3560  0.9054
12717TIP3   OH259641   0.587   0.002   2.353  0.5658  0.4823 -1.1238
12717TIP3    H159642   0.536  -0.072   2.385  2.0954 -0.2476 -0.2485
12717TIP3    H259643   0.635  -0.032   2.278  2.1118  0.2193 -0.0634
12718TIP3   OH259644   0.798   5.871   1.325  0.3262  0.0388  0.1937
12718TIP3    H159645   0.783   5.902   1.235  1.2227  1.2081  0.4240
12718TIP3    H259646   0.892   5.854   1.329  0.4701  1.0083  1.2087
12719TIP3   OH259647   1.498   2.137   2.563 -0.1257 -0.0316  0.0977
12719TIP3    H159648   1.590   2.140   2.591 -0.4975  0.1536  1.3506
12719TIP3    H259649   1.481   2.044   2.548  0.3548 -0.0346 -0.4799
12720TIP3   OH259650   2.677   4.781   1.274  0.5058 -0.0622  0.3494
12720TIP3    H159651   2.762   4.814   1.244  1.0705 -0.6672  1.2056
12720TIP3    H259652   2.624   4.859   1.289  1.4438  0.4219  1.2841
12721TIP3   OH259653   0.054   2.150   3.113 -0.0098 -0.1753 -0.4061
12721TIP3    H159654   0.132   2.165   3.167 -0.0577 -0.9111 -0.1089
12721TIP3    H259655   0.085   2.097   3.040  0.0432  0.7801 -1.0864
12722TIP3   OH259656   2.413   2.864   1.864  0.2806  0.2392 -0.7347
12722TIP3    H159657   2.462   2.785   1.886  1.3007  0.0235 -3.3845
12722TIP3    H259658   2.389   2.902   1.948  2.2436 -1.3539  0.6418
12723TIP3   OH259659   5.087   2.476   5.164  0.0234 -0.3771  0.1323
12723TIP3    H159660   5.129   2.426   5.233 -3.4140 -0.2722  2.5204
12723TIP3    H259661   5.086   2.567   5.196  0.5445  0.1418 -1.2268
12724TIP3   OH259662   0.263   0.223  11.555  0.4363 -0.4280 -0.2069
12724TIP3    H159663   0.295   0.143  11.598  0.4518 -0.6466 -0.6171
12724TIP3    H259664   0.267   0.290  11.623  0.0752 -0.8629  0.2473
12725TIP3   OH259665   2.404   2.162   0.078  0.4095 -0.7046 -0.7242
12725TIP3    H159666   2.488   2.176   0.122  1.5641 -2.8323 -2.0346
12725TIP3    H259667   2.424   2.096   0.011 -2.1457 -0.6181 -1.6591
12726TIP3   OH259668   6.851   6.585   3.951  0.4957  0.1537 -0.2293
12726TIP3    H159669   6.902   6.665   3.962  2.3224 -0.6320 -2.2159
12726TIP3    H259670   6.831   6.582   3.857 -0.6329 -1.0770  0.0154
12727TIP3   OH259671   0.659   3.861  12.683  0.2205  0.1500 -0.2125
12727TIP3    H159672   0.600   3.836  12.611 -0.2472  1.8636 -0.4607
12727TIP3    H259673   0.606   3.915  12.741  0.9578 -0.1196  0.7508
12728TIP3   OH259674   3.072   5.827   0.173  0.2778 -0.4901  0.1161
12728TIP3    H159675   3.026   5.824   0.256  0.6920 -1.5304  0.3215
12728TIP3    H259676   3.162   5.802   0.194  0.0822 -2.1226 -0.8385
12729TIP3   OH259677   2.203   2.715   3.504 -0.1197  0.2964  0.2460
12729TIP3    H159678   2.177   2.690   3.593 -1.9467 -0.6618 -0.5101
12729TIP3    H259679   2.285   2.668   3.489 -0.2910 -0.2950  1.0825
12730TIP3   OH259680   4.752   6.172   5.251  0.2932 -0.2700  0.0304
12730TIP3    H159681   4.818   6.223   5.298  0.8183 -0.5820 -0.3558
12730TIP3    H259682   4.699   6.132   5.320  0.6707 -0.2195  0.3524
12731TIP3   OH259683   1.437   2.484   0.263 -0.0638 -0.0727 -0.1181
12731TIP3    H159684   1.483   2.435   0.331 -0.2049  0.1842  0.1631
12731TIP3    H259685   1.381   2.418   0.220  0.3404 -0.3221 -0.2683
12732TIP3   OH259686   6.794   3.695   0.833 -0.9091 -0.2757  0.3015
12732TIP3    H159687   6.802   3.770   0.774  0.8059 -1.4288 -0.9954
12732TIP3    H259688   6.721   3.644   0.798 -1.0345 -0.0547  0.2396
12733TIP3   OH259689   3.536   1.118   4.845 -0.3539 -0.1153  0.6522
12733TIP3    H159690   3.522   1.121   4.750 -1.3566  0.7895  0.8108
12733TIP3    H259691   3.573   1.031   4.861 -0.2275 -0.3058 -0.5545
12734TIP3   OH259692   3.067   5.213   0.164 -0.0946 -0.0796  0.5147
12734TIP3    H159693   2.979   5.182   0.142 -0.3997  1.1707 -0.1395
12734TIP3    H259694   3.078   5.293   0.112  0.6155  0.9604  2.1553
12735TIP3   OH259695   0.214   6.036  15.010  0.3721 -0.3714  0.1131
12735TIP3    H159696   0.145   5.984  14.969  0.8109 -0.7483 -0.1545
12735TIP3    H259697   0.172   6.074  15.087 -0.2940 -0.1249 -0.3627
12736TIP3   OH259698   0.842   3.387   4.457 -0.1815 -0.0641  0.1153
12736TIP3    H159699   0.935   3.398   4.435  0.5842  1.1473  3.3648
12736TIP3    H259700   0.796   3.442   4.394  1.5069  0.9324 -0.3228
12737TIP3   OH259701   1.987   1.109  14.271  0.4232  0.0397 -0.1932
12737TIP3    H159702   1.897   1.102  14.241  0.7718 -1.2855 -1.0099
12737TIP3    H259703   2.006   1.202  14.268 -0.4618  0.2003 -1.3886
12738TIP3   OH259704   1.216   3.987  15.793  0.5195  0.0398  0.1594
12738TIP3    H159705   1.218   4.013  15.701  0.3501 -0.0283  0.1368
12738TIP3    H259706   1.146   3.922  15.798 -0.4036  1.0417  0.5988
12739TIP3   OH259707   3.391   4.523  14.155  0.2037 -0.0377 -0.3492
12739TIP3    H159708   3.455   4.491  14.091 -0.6113  0.0140 -1.2077
12739TIP3    H259709   3.354   4.602  14.115 -1.4821 -0.8990 -0.5831
12740TIP3   OH259710   6.165   0.285  16.412  0.1369 -0.1416  0.2251
12740TIP3    H159711   6.203   0.257  16.329 -1.3793 -1.5596 -0.0592
12740TIP3    H259712   6.072   0.297  16.393 -0.2002 -0.2661  1.6549
12741TIP3   OH259713   0.456   2.447   4.788 -0.1339 -0.1366 -0.2787
12741TIP3    H159714   0.468   2.363   4.832 -0.8109 -0.1528 -0.1139
12741TIP3    H259715   0.534   2.457   4.733 -0.0219 -0.8396 -0.2517
12742TIP3   OH259716   2.914   3.373   5.455  0.1454 -0.1054  0.3945
12742TIP3    H159717   2.873   3.439   5.511  0.7145  1.2331 -0.6996
12742TIP3    H259718   2.862   3.373   5.375  0.6406 -0.3970  0.0652
12743TIP3   OH259719   3.194   0.867  16.525  0.0076  0.3907 -0.1010
12743TIP3    H159720   3.268   0.812  16.552  1.7850  1.9969 -1.4483
12743TIP3    H259721   3.127   0.851  16.592  1.6836 -0.8584  1.3845
12744TIP3   OH259722   0.186   2.006  15.344  0.3086  0.5094 -0.1458
12744TIP3    H159723   0.203   2.065  15.417  1.3355  0.4513 -0.3308
12744TIP3    H259724   0.151   1.926  15.385 -1.7496  1.4397  0.0634
12745TIP3   OH259725   5.871   2.620   5.731  0.1347  0.5621  0.0963
12745TIP3    H159726   5.831   2.533   5.739 -1.0893  0.8288 -2.1758
12745TIP3    H259727   5.941   2.609   5.667  0.1133  1.1965 -0.0460
12746TIP3   OH259728   4.627   4.537  16.551  0.4029  0.2942  0.0525
12746TIP3    H159729   4.668   4.616  16.517  1.7892 -0.6607 -0.5999
12746TIP3    H259730   4.549   4.568  16.597  0.7460  1.9935 -0.4443
12747TIP3   OH259731   0.437   2.316   5.712 -0.9098  0.0892 -0.5782
12747TIP3    H159732   0.412   2.262   5.786 -1.1219  1.1875  0.1689
12747TIP3    H259733   0.375   2.292   5.643 -1.5215 -0.0309  0.0039
12748TIP3   OH259734   4.596   1.931  16.093  0.1277 -0.2266  0.2914
12748TIP3    H159735   4.671   1.990  16.106 -0.2437  0.1603  0.7514
12748TIP3    H259736   4.585   1.887  16.177  0.7497 -1.3863 -0.2162
12749TIP3   OH259737   0.062   5.826  14.290  0.1133  0.2605  0.1918
12749TIP3    H159738   0.055   5.843  14.384  1.2709 -2.0433  0.7623
12749TIP3    H259739  -0.014   5.771  14.270  0.4044 -0.0866  0.0203
12750TIP3   OH259740   5.044   1.047   0.895 -0.1178  0.1653 -0.0567
12750TIP3    H159741   5.002   1.132   0.882 -0.1333  0.4145  1.4356
12750TIP3    H259742   5.060   1.014   0.807  0.7747  2.1561 -0.6959
12751TIP3   OH259743   4.730   4.272   1.992  0.0794 -0.3120 -0.3512
12751TIP3    H159744   4.722   4.238   1.903  0.5128 -0.3946 -0.3592
12751TIP3    H259745   4.668   4.345   1.995 -0.4063 -0.7158 -0.5185
12752TIP3   OH259746   4.020   4.446   4.207 -0.2224 -0.0005 -0.6055
12752TIP3    H159747   3.962   4.516   4.177  0.6191  1.0370  0.0974
12752TIP3    H259748   4.047   4.402   4.127 -0.0963  1.0363 -1.1511
12753TIP3   OH259749   0.619   0.678  12.055  0.2351 -0.7146  0.2577
12753TIP3    H159750   0.594   0.733  11.981  1.5492 -0.0374  0.2747
12753TIP3    H259751   0.646   0.741  12.123 -0.6437 -1.3335  1.1994
12754TIP3   OH259752   0.895   4.755   3.320  0.2339  0.4429 -0.0758
12754TIP3    H159753   0.869   4.821   3.255  1.7371  0.1381 -1.0416
12754TIP3    H259754   0.981   4.784   3.351  0.4568 -0.5308  0.2348
12755TIP3   OH259755   5.841   3.739   3.739 -0.4042 -0.2233  0.6555
12755TIP3    H159756   5.914   3.801   3.748  1.1676 -1.7724 -0.6288
12755TIP3    H259757   5.808   3.753   3.651 -0.6155 -0.5765  0.6761
12756TIP3   OH259758   0.232   3.899  11.379  0.5583  0.3373 -0.2890
12756TIP3    H159759   0.327   3.892  11.369  0.6212  0.4639  0.2151
12756TIP3    H259760   0.205   3.816  11.418  0.4212  0.1869 -0.6948
12757TIP3   OH259761   0.913   3.860  16.316  0.8860  0.1056 -0.2306
12757TIP3    H159762   0.931   3.795  16.383  0.7266 -0.4969 -0.7680
12757TIP3    H259763   0.821   3.884  16.330  0.6916 -0.4260 -0.5748
12758TIP3   OH259764   6.219   2.776  10.438  0.3541 -0.6843 -0.1051
12758TIP3    H159765   6.299   2.780  10.492 -0.0042  0.0916  0.3810
12758TIP3    H259766   6.251   2.756  10.350  1.3902  2.2585 -0.5174
12759TIP3   OH259767   1.995   1.346   5.056  0.0286  0.3874 -0.0518
12759TIP3    H159768   2.075   1.299   5.079 -0.5268 -0.6610 -0.2070
12759TIP3    H259769   2.016   1.438   5.073  0.4322 -0.0794  2.3498
12760TIP3   OH259770   0.998   1.816   2.976  0.3627  0.1352 -0.1797
12760TIP3    H159771   0.925   1.877   2.978  0.6565  0.5745 -1.4956
12760TIP3    H259772   0.984   1.757   3.050 -0.7620  0.8414  0.1773
12761TIP3   OH259773   4.347   2.719  13.431 -0.1971 -0.4748  0.3790
12761TIP3    H159774   4.254   2.737  13.438 -0.2188 -0.6736  0.6364
12761TIP3    H259775   4.370   2.740  13.341  0.1133  2.4343  1.0333
12762TIP3   OH259776   6.731   0.767  13.611  0.0373  0.6384 -0.5588
12762TIP3    H159777   6.753   0.703  13.679  0.2189  0.0627 -1.1533
12762TIP3    H259778   6.637   0.781  13.621 -1.0689 -3.2676 -3.3281
12763TIP3   OH259779   1.095   0.616  12.190  0.1257 -0.5363 -0.0007
12763TIP3    H159780   1.108   0.708  12.166  0.9384 -0.5287  0.4321
12763TIP3    H259781   1.020   0.588  12.138  1.6474 -0.4581 -2.4059
12764TIP3   OH259782   3.141   3.845  16.712  0.3307  0.0411  0.3296
12764TIP3    H159783   3.169   3.799  16.791 -0.4046 -0.1396  0.4909
12764TIP3    H259784   3.221   3.883  16.677  0.6013  0.5196  1.4171
12765TIP3   OH259785   6.106   5.814  12.549  0.2826  0.0820  0.0217
12765TIP3    H159786   6.159   5.766  12.485  1.1451  1.7926 -0.5979
12765TIP3    H259787   6.040   5.860  12.497 -0.2500 -0.0597  0.5581
12766TIP3   OH259788   4.270   4.208  12.777 -0.2753 -0.4182  0.0153
12766TIP3    H159789   4.183   4.172  12.791 -0.1220 -1.3112 -1.1642
12766TIP3    H259790   4.255   4.286  12.723 -0.5067  0.7560  1.6731
12767TIP3   OH259791   1.438   4.331  11.865 -0.2480 -0.3570 -0.0090
12767TIP3    H159792   1.467   4.348  11.955 -0.6557  0.8621 -0.0864
12767TIP3    H259793   1.514   4.353  11.811  0.6588 -2.9134  0.1005
12768TIP3   OH259794   5.342   6.390  16.982 -0.4148 -0.2970  0.0622
12768TIP3    H159795   5.354   6.449  16.908 -0.0085 -2.1228 -1.4091
12768TIP3    H259796   5.255   6.351  16.968  0.4646 -2.1408 -0.6537
12769TIP3   OH259797   3.683   1.630   3.924 -0.2501 -0.4346  0.2846
12769TIP3    H159798   3.614   1.695   3.933 -0.0402 -0.2489  0.5564
12769TIP3    H259799   3.761   1.671   3.962  0.3003 -0.1898 -1.0321
12770TIP3   OH259800   5.275   3.864  14.433 -0.0093 -0.4314  0.2977
12770TIP3    H159801   5.368   3.885  14.425  0.3098 -2.1520 -1.0962
12770TIP3    H259802   5.262   3.851  14.527  1.2929 -0.6572  0.4680
12771TIP3   OH259803   0.346   1.778   2.157 -0.0503 -0.1300  0.1401
12771TIP3    H159804   0.348   1.686   2.184 -2.1726 -0.0111  0.9409
12771TIP3    H259805   0.263   1.811   2.192  1.1136  2.3835  0.7437
12772TIP3   OH259806   0.990   2.477  15.089 -0.4527 -0.2194 -0.0064
12772TIP3    H159807   0.904   2.509  15.059 -1.3252 -0.3428  2.1941
12772TIP3    H259808   1.029   2.551  15.135  0.2691 -0.4346 -0.2515
12773TIP3   OH259809   3.944   2.043  12.903  0.0225  0.2002  0.1317
12773TIP3    H159810   4.003   2.001  12.965  0.6085  0.2675 -0.3699
12773TIP3    H259811   3.959   1.998  12.820 -0.8968 -0.0201  0.0767
12774TIP3   OH259812   5.904   2.065  12.931 -0.2070  0.0739 -0.0604
12774TIP3    H159813   5.965   2.005  12.888 -0.2052  0.4327 -0.5752
12774TIP3    H259814   5.818   2.041  12.897 -0.6107 -1.5361  1.9201
12775TIP3   OH259815   0.846   2.864   2.834 -0.6399  0.1517 -0.3191
12775TIP3    H159816   0.941   2.858   2.822 -0.6897 -1.2651 -0.1983
12775TIP3    H259817   0.822   2.781   2.876 -2.2003 -0.3382 -2.0531
12776TIP3   OH259818   2.453   5.404   2.744 -0.3851 -0.3671  0.2067
12776TIP3    H159819   2.375   5.436   2.700  0.6682  0.8755 -0.8478
12776TIP3    H259820   2.490   5.481   2.787  0.4354 -0.8638  0.4175
12777TIP3   OH259821   3.044   4.888  16.116 -0.2157 -0.1176 -0.0443
12777TIP3    H159822   2.963   4.886  16.167  0.7637 -0.3909  1.5848
12777TIP3    H259823   3.083   4.972  16.138  0.9116 -0.8443  0.8236
12778TIP3   OH259824   0.442   4.733   3.258  0.6796  0.0293  0.2554
12778TIP3    H159825   0.352   4.713   3.281  1.0949 -0.2837  1.7107
12778TIP3    H259826   0.460   4.818   3.298  1.1488 -0.1006  0.3336
12779TIP3   OH259827   4.015   0.572  16.500 -0.0155 -0.1198 -0.0611
12779TIP3    H159828   4.027   0.478  16.491 -2.4722 -0.5959  0.7967
12779TIP3    H259829   4.046   0.592  16.588  0.9686 -0.0170 -0.4231
12780TIP3   OH259830   1.959   2.745   3.373 -0.1063 -0.0961 -0.5184
12780TIP3    H159831   1.913   2.828   3.361 -1.0690 -0.4049  0.7644
12780TIP3    H259832   2.051   2.770   3.382 -0.1054  0.6199 -2.2309
12781TIP3   OH259833   3.779   0.999   0.269 -0.0670 -0.0736  0.6003
12781TIP3    H159834   3.726   0.930   0.309 -0.5640 -1.3925 -2.0682
12781TIP3    H259835   3.725   1.078   0.276 -0.5124 -0.4613  1.6968
12782TIP3   OH259836   2.563   2.975   1.669 -0.1464  0.0829 -0.1762
12782TIP3    H159837   2.522   2.947   1.751  0.2769 -1.4850 -0.4687
12782TIP3    H259838   2.640   3.025   1.696 -0.1663 -0.1781  0.3706
12783TIP3   OH259839   2.813   4.442  13.867 -0.0965  0.4452  0.1111
12783TIP3    H159840   2.759   4.427  13.944 -1.2187  0.1073 -0.6990
12783TIP3    H259841   2.836   4.355  13.837 -0.4479  0.5334 -0.4420
12784TIP3   OH259842   5.642   4.574  15.768  0.2946 -0.0760  0.2799
12784TIP3    H159843   5.713   4.593  15.830  2.2769 -1.5353 -1.4241
12784TIP3    H259844   5.681   4.585  15.682 -2.0644  0.7130 -0.7798
12785TIP3   OH259845   4.196   5.548   1.445  0.0246 -0.3242 -0.0910
12785TIP3    H159846   4.147   5.472   1.413  0.2003 -0.4341 -0.0997
12785TIP3    H259847   4.129   5.611   1.469 -0.1416 -0.7260  0.5196
12786TIP3   OH259848   0.708   0.591   0.899 -0.0846 -0.0313 -0.4013
12786TIP3    H159849   0.781   0.537   0.868  0.1200  0.7894 -1.4027
12786TIP3    H259850   0.641   0.581   0.831 -0.0182  1.0193 -0.6296
12787TIP3   OH259851   5.482   0.940   2.514  0.7772  0.2891 -0.1959
12787TIP3    H159852   5.532   1.021   2.501  0.0554  0.5109 -1.9830
12787TIP3    H259853   5.406   0.967   2.565 -1.7654  1.8764 -4.2447
12788TIP3   OH259854   4.277   0.746  10.583  0.6971 -0.2590  0.4392
12788TIP3    H159855   4.344   0.726  10.518  1.2764  1.1279  0.5803
12788TIP3    H259856   4.249   0.835  10.562 -0.2280 -0.3692  1.1397
12789TIP3   OH259857   1.172   0.394  11.294 -0.1561 -0.2083  0.1820
12789TIP3    H159858   1.083   0.401  11.329  0.1884  1.7980  0.7493
12789TIP3    H259859   1.163   0.417  11.202 -0.3284 -0.8013  0.0443
12790TIP3   OH259860   3.491   1.416   1.250 -0.6247 -0.3336  0.6262
12790TIP3    H159861   3.529   1.473   1.183 -0.7565  1.8223  2.2428
12790TIP3    H259862   3.410   1.461   1.276 -0.8111 -1.3327  1.8682
12791TIP3   OH259863   1.861   2.096  12.297  0.3077 -0.0268  0.2407
12791TIP3    H159864   1.831   2.056  12.215 -0.6961 -1.5993  1.3286
12791TIP3    H259865   1.898   2.180  12.270  0.3318 -0.6575 -1.8615
12792TIP3   OH259866   0.736   3.497   1.979  0.1353  0.1286  0.4520
12792TIP3    H159867   0.750   3.583   2.018  1.3497 -0.5719  1.6375
12792TIP3    H259868   0.702   3.516   1.891 -0.2273  1.7842  0.9120
12793TIP3   OH259869   5.457   2.822   2.162 -0.4440 -0.8359  0.2591
12793TIP3    H159870   5.383   2.880   2.185  0.3461  0.1782  0.3101
12793TIP3    H259871   5.510   2.874   2.102  1.0554 -0.9470  1.4382
12794TIP3   OH259872   5.693   6.676   2.622 -0.1871  0.1734  0.1483
12794TIP3    H159873   5.627   6.625   2.576 -0.4858 -0.3553  1.1203
12794TIP3    H259874   5.664   6.766   2.615  0.2836  0.2284 -1.4947
12795TIP3   OH259875   4.560   4.868  14.529 -0.5035 -0.1812  0.2617
12795TIP3    H159876   4.521   4.785  14.503  1.3331 -0.7436 -0.8611
12795TIP3    H259877   4.554   4.923  14.450 -0.3505  0.2356  0.5359
12796TIP3   OH259878   3.002   0.134  11.290 -0.2048 -0.2144  0.7882
12796TIP3    H159879   3.040   0.115  11.376 -1.4889 -1.5891  1.0941
12796TIP3    H259880   2.939   0.063  11.275 -1.1916  0.8883 -0.5802
12797TIP3   OH259881   6.245   3.913   5.894  0.1334 -0.2891 -0.6546
12797TIP3    H159882   6.204   3.997   5.871  0.0336 -0.2876 -0.4801
12797TIP3    H259883   6.194   3.883   5.970  0.2497 -0.4462 -0.6403
12798TIP3   OH259884   6.526   4.875   4.233  0.4924  0.1027  0.0143
12798TIP3    H159885   6.552   4.910   4.319  0.2682  0.8432 -0.2083
12798TIP3    H259886   6.433   4.856   4.242  0.6971 -0.8222  0.2532
12799TIP3   OH259887   4.631   0.189  14.392  0.0166  0.2292  0.2001
12799TIP3    H159888   4.538   0.172  14.400 -0.0138  0.3476  0.1063
12799TIP3    H259889   4.669   0.106  14.365  0.0852 -0.1056  1.3061
12800TIP3   OH259890   5.686   2.460   6.068 -0.1664  0.0123 -0.3822
12800TIP3    H159891   5.743   2.402   6.118 -0.0693  1.2813  1.0483
12800TIP3    H259892   5.743   2.499   6.002  0.0973 -0.4103 -0.4068
12801TIP3   OH259893   4.770   5.574   3.161 -0.0147 -0.3359  0.1566
12801TIP3    H159894   4.792   5.657   3.204  0.1643 -1.1947  1.7713
12801TIP3    H259895   4.843   5.557   3.102  0.3562  0.2146  0.4565
12802TIP3   OH259896   5.042   2.851  15.246  0.5292 -0.1668 -0.4201
12802TIP3    H159897   5.008   2.916  15.185 -0.0992  0.5307  0.6327
12802TIP3    H259898   4.978   2.779  15.243 -1.7892  1.5462  2.2757
12803TIP3   OH259899   3.084   6.294  11.562 -0.1748  0.2122  0.2566
12803TIP3    H159900   3.061   6.258  11.477  1.6137 -1.0345  0.2485
12803TIP3    H259901   3.013   6.265  11.620 -1.0022  0.4110 -0.6321
12804TIP3   OH259902   6.083   4.090  13.117 -0.2270  0.8863  0.4322
12804TIP3    H159903   6.038   4.045  13.045  0.0304  2.0928 -0.5306
12804TIP3    H259904   6.169   4.113  13.080  1.1237 -1.1031  2.1344
12805TIP3   OH259905   3.410   2.623   3.375  0.0744  0.2634 -0.2659
12805TIP3    H159906   3.462   2.677   3.435 -1.2123  0.6881  0.5171
12805TIP3    H259907   3.343   2.583   3.431  0.9233 -2.0880 -0.8383
12806TIP3   OH259908   6.792   2.960  15.088 -0.5809 -0.3054 -0.0381
12806TIP3    H159909   6.858   3.030  15.096 -0.5772 -0.4467  1.3502
12806TIP3    H259910   6.755   2.973  15.001  0.9494  0.0725 -0.6663
12807TIP3   OH259911   5.842   4.280   4.819  0.5821 -1.1001 -0.4553
12807TIP3    H159912   5.801   4.194   4.815 -0.7191 -0.5471  0.3510
12807TIP3    H259913   5.863   4.301   4.728 -1.8948 -0.9745 -1.0624
12808TIP3   OH259914   0.730   5.862  15.188 -0.7028  0.2525  0.1885
12808TIP3    H159915   0.667   5.895  15.125  0.2871  0.2877 -0.8108
12808TIP3    H259916   0.790   5.935  15.203  0.9242 -0.6991 -1.2920
12809TIP3   OH259917   5.443   6.205   6.278  0.1069 -0.0824 -0.5749
12809TIP3    H159918   5.442   6.300   6.267  0.5191 -0.1076 -0.8795
12809TIP3    H259919   5.536   6.184   6.293 -0.2129 -0.2264  1.4912
12810TIP3   OH259920   2.019   0.181  12.111 -0.0121 -0.1446  0.5951
12810TIP3    H159921   2.024   0.266  12.156 -0.5566 -0.8170  1.9856
12810TIP3    H259922   2.107   0.145  12.118 -0.4451 -0.9427  2.6214
12811TIP3   OH259923   3.462   3.609  13.716 -0.0423 -0.5260 -0.4474
12811TIP3    H159924   3.447   3.546  13.786 -0.4114  0.1066  0.0562
12811TIP3    H259925   3.469   3.693  13.761  4.1416 -0.5244 -0.6459
12812TIP3   OH259926   3.470   3.881  11.668  0.1295 -0.1076  0.1042
12812TIP3    H159927   3.426   3.891  11.752  0.7737  0.5054  0.3800
12812TIP3    H259928   3.462   3.787  11.647 -1.8914  0.0858 -0.2077
12813TIP3   OH259929   2.737   3.147   1.487 -0.4907  0.0876 -0.2195
12813TIP3    H159930   2.791   3.115   1.415 -1.5465 -0.5486 -0.7407
12813TIP3    H259931   2.782   3.116   1.566 -2.1348 -4.0126 -0.6759
12814TIP3   OH259932   6.325   3.470   2.641  0.3370  0.8550  0.4514
12814TIP3    H159933   6.271   3.466   2.561  2.3922 -0.0426 -0.9873
12814TIP3    H259934   6.411   3.497   2.610  1.6295 -1.0678  2.1166
12815TIP3   OH259935   4.583   4.522  11.196 -0.3636  0.0415  0.1848
12815TIP3    H159936   4.656   4.505  11.136 -1.2778 -2.4005 -0.3540
12815TIP3    H259937   4.515   4.562  11.141  0.2763  1.7026  0.5472
12816TIP3   OH259938   2.546   4.706  10.359  0.5187  0.1157  0.1720
12816TIP3    H159939   2.584   4.761  10.290 -0.2893 -0.7971 -1.0367
12816TIP3    H259940   2.563   4.755  10.440 -0.2454  2.2060 -0.8493
12817TIP3   OH259941   3.367   4.377   1.050  0.4083 -0.2306 -0.1405
12817TIP3    H159942   3.392   4.297   1.096 -0.9413  0.1262  1.3123
12817TIP3    H259943   3.330   4.433   1.118 -1.2625  0.5047 -1.5771
12818TIP3   OH259944   3.189   5.763   6.587  0.4964 -0.5310 -0.1198
12818TIP3    H159945   3.219   5.767   6.678  1.2435 -1.7877 -0.2858
12818TIP3    H259946   3.181   5.854   6.560  1.3215 -0.1470  0.8688
12819TIP3   OH259947   3.190   0.293  12.101 -0.0963  0.2035 -0.1010
12819TIP3    H159948   3.235   0.218  12.138  0.9881  0.4865 -0.8128
12819TIP3    H259949   3.258   0.344  12.058 -0.9996  0.9623 -0.6883
12820TIP3   OH259950   1.941   6.461   1.323  0.0456  0.2756 -0.2486
12820TIP3    H159951   1.954   6.532   1.386  0.7091  0.6949 -0.8439
12820TIP3    H259952   1.943   6.504   1.238  1.5127 -0.5740 -0.6815
12821TIP3   OH259953   1.552   1.627   1.143 -0.6743 -0.8992 -0.5680
12821TIP3    H159954   1.535   1.707   1.093  0.4622 -0.3044 -0.0417
12821TIP3    H259955   1.647   1.616   1.139 -0.9136 -3.3380 -2.2937
12822TIP3   OH259956   0.168   6.080   1.044 -0.8845  0.4814  0.8462
12822TIP3    H159957   0.128   6.039   1.121 -2.2827  2.8202  1.4614
12822TIP3    H259958   0.096   6.092   0.983  0.1238 -0.8678 -0.6712
12823TIP3   OH259959   5.799   5.145  11.701  0.3064 -0.2656 -0.5882
12823TIP3    H159960   5.804   5.241  11.699  2.6078 -0.2618  1.2754
12823TIP3    H259961   5.821   5.118  11.612 -0.2063  0.8904 -1.0985
12824TIP3   OH259962   4.587   1.939  14.854 -0.6990 -0.7836  0.3083
12824TIP3    H159963   4.642   1.867  14.822 -0.5379 -0.3707 -0.3744
12824TIP3    H259964   4.519   1.897  14.906 -2.9931 -1.9138 -3.2140
12825TIP3   OH259965   4.676   1.046   3.114  0.5800 -0.4871  0.1573
12825TIP3    H159966   4.630   1.123   3.081  4.8741  2.4566  0.1695
12825TIP3    H259967   4.660   1.048   3.209 -0.3934 -0.4452  0.0023
12826TIP3   OH259968   6.064   4.631  16.439 -0.2296 -0.0609  0.5190
12826TIP3    H159969   6.097   4.640  16.350  0.5339  2.0464  0.9642
12826TIP3    H259970   6.013   4.550  16.437 -0.2748 -0.0506 -1.8342
12827TIP3   OH259971   1.046   2.707  16.387 -0.8370 -0.2225  0.0220
12827TIP3    H159972   1.031   2.765  16.312  0.2844 -0.4193 -0.3728
12827TIP3    H259973   1.141   2.698  16.392 -0.9590 -2.2297 -0.1033
12828TIP3   OH259974   4.458   1.620   4.063 -0.3563 -0.2769  0.0877
12828TIP3    H159975   4.450   1.696   4.006  0.5870 -0.3365 -0.1454
12828TIP3    H259976   4.474   1.547   4.004  0.2016 -0.4113  0.3906
12829TIP3   OH259977   2.507   6.709  12.991 -0.4462 -0.0165 -0.1452
12829TIP3    H159978   2.585   6.678  13.036  0.4167  0.0541 -1.5406
12829TIP3    H259979   2.491   6.796  13.029 -0.7431 -0.6436  1.2010
12830TIP3   OH259980   5.206   2.046   0.052  0.2646  0.2098  0.3943
12830TIP3    H159981   5.216   1.958   0.016  1.0306  0.0216  1.0333
12830TIP3    H259982   5.263   2.048   0.129 -0.8332  0.7963  1.2489
12831TIP3   OH259983   2.100   2.321  16.062  0.0870 -0.9972 -0.1191
12831TIP3    H159984   2.010   2.352  16.051 -0.9447 -3.5950  0.2354
12831TIP3    H259985   2.129   2.359  16.144 -1.1421 -1.0361  0.3556
12832TIP3   OH259986   3.449   0.354  14.553  0.4573 -0.0921 -0.5587
12832TIP3    H159987   3.383   0.288  14.530  0.3245 -0.5533  1.0126
12832TIP3    H259988   3.410   0.437  14.525 -0.9967 -0.3153  0.6486
12833TIP3   OH259989   5.492   4.406   3.819 -0.0063  0.6390 -0.2482
12833TIP3    H159990   5.514   4.460   3.743  3.4612  0.2241  0.2925
12833TIP3    H259991   5.576   4.370   3.848 -1.7193 -2.4159  1.4270
12834TIP3   OH259992   3.723   3.442   5.906 -0.2452  0.1929 -0.0902
12834TIP3    H159993   3.782   3.493   5.849 -1.0776  1.5720  0.2579
12834TIP3    H259994   3.653   3.414   5.847  0.6044 -1.2756 -0.4581
12835TIP3   OH259995   2.877   6.665   5.780 -0.2510  0.2315  0.3943
12835TIP3    H159996   2.970   6.681   5.794 -0.3881  1.0864  0.3546
12835TIP3    H259997   2.874   6.578   5.739  0.6384  0.8591 -1.0754
12836TIP3   OH259998   5.693   0.022  13.804  0.7121  0.0505 -0.8444
12836TIP3    H159999   5.641   0.101  13.788 -0.5296 -0.4616  0.4458
12836TIP3    H260000   5.646  -0.046  13.756  0.7428 -0.2340 -0.4729
12837TIP3   OH260001   0.988   2.004   3.490 -0.0414 -0.1875 -0.2682
12837TIP3    H160002   0.984   2.092   3.528 -0.1954 -0.0740 -0.5475
12837TIP3    H260003   0.991   1.946   3.565  1.1671  0.1079 -0.0728
12838TIP3   OH260004   1.655   4.838  15.107  0.3677 -0.2298 -0.3207
12838TIP3    H160005   1.703   4.875  15.033 -0.9088 -0.6531 -1.3944
12838TIP3    H260006   1.721   4.828  15.175  1.4096  0.9601 -1.1023
12839TIP3   OH260007   6.178   1.460  12.478 -0.3406  0.1879  0.1150
12839TIP3    H160008   6.222   1.496  12.400  1.3560 -1.3329  0.3154
12839TIP3    H260009   6.087   1.445  12.450  0.0789  0.2881 -1.3626
12840TIP3   OH260010   0.565   2.705  15.928  0.4482  0.0596 -0.0618
12840TIP3    H160011   0.473   2.678  15.929  0.0532  1.2171  2.3019
12840TIP3    H260012   0.602   2.662  15.851 -2.3921  0.7796 -1.9760
12841TIP3   OH260013   0.174   4.026  15.798  0.8471 -0.0806 -0.3692
12841TIP3    H160014   0.171   4.110  15.752 -0.3624 -0.3506 -0.8363
12841TIP3    H260015   0.084   4.014  15.829  1.6074  0.0866  2.1023
12842TIP3   OH260016   3.205   5.430   4.199  0.2027  0.1195  0.1158
12842TIP3    H160017   3.145   5.358   4.216  0.6231 -0.5229 -1.0015
12842TIP3    H260018   3.151   5.509   4.209  0.0939 -0.2123  2.8709
12843TIP3   OH260019   1.306   2.699   0.427 -0.0143 -0.0087 -0.3463
12843TIP3    H160020   1.334   2.626   0.372  2.1011  0.7451 -0.3591
12843TIP3    H260021   1.262   2.657   0.501  1.3077 -1.3466 -0.2651
12844TIP3   OH260022   4.476   6.015   5.170  0.2225 -0.1077  0.0306
12844TIP3    H160023   4.394   5.978   5.139 -0.0453  1.2305 -0.9452
12844TIP3    H260024   4.540   5.990   5.104  0.0430  1.0902 -0.6266
12845TIP3   OH260025   3.366   1.475   5.095  0.4819 -0.0542  0.6021
12845TIP3    H160026   3.446   1.424   5.079  0.1923 -1.2757  2.6803
12845TIP3    H260027   3.344   1.513   5.010  1.2928 -2.5908 -0.8381
12846TIP3   OH260028   4.839   4.010  13.207  0.6170 -0.3236  0.0520
12846TIP3    H160029   4.752   4.045  13.191  0.4121 -0.4865  0.7766
12846TIP3    H260030   4.853   3.947  13.137  0.4124  0.1573 -0.4315
12847TIP3   OH260031   1.560   5.047   2.744 -0.1729  0.2945  0.5506
12847TIP3    H160032   1.475   5.042   2.787 -1.0153  0.8796 -0.9711
12847TIP3    H260033   1.597   5.131   2.773  0.5389 -0.5766  2.2965
12848TIP3   OH260034   5.436   1.359  13.609 -0.0172 -0.9231 -0.5619
12848TIP3    H160035   5.512   1.410  13.635 -0.1911 -1.3947  0.9554
12848TIP3    H260036   5.412   1.394  13.523  1.6748 -0.5323 -0.9038
12849TIP3   OH260037   6.335   5.221  12.871  0.1982 -0.3509  0.2225
12849TIP3    H160038   6.240   5.218  12.867  0.0230  2.8251 -0.3098
12849TIP3    H260039   6.355   5.229  12.964 -0.0225 -1.3035  0.3563
12850TIP3   OH260040   1.920   3.380  13.887  0.1164 -0.0983 -0.1807
12850TIP3    H160041   1.920   3.435  13.965  1.6467  1.7676 -1.4095
12850TIP3    H260042   1.988   3.314  13.905  0.8557  0.6630 -0.1416
12851TIP3   OH260043   4.677   5.805   5.568  0.8013 -0.5560  0.1669
12851TIP3    H160044   4.644   5.883   5.523 -1.1751 -2.0980 -1.2311
12851TIP3    H260045   4.772   5.810   5.557  0.5945  0.7893 -1.3837
12852TIP3   OH260046   0.814   6.176   0.695  0.2352 -0.1022  0.0764
12852TIP3    H160047   0.756   6.101   0.694 -0.1535  0.2026 -0.4361
12852TIP3    H260048   0.867   6.167   0.615  1.3588 -0.7291  0.8565
12853TIP3   OH260049   6.474   4.828  11.767  0.1287  0.3543 -0.1525
12853TIP3    H160050   6.440   4.764  11.705 -0.6073 -1.4146  1.9596
12853TIP3    H260051   6.485   4.780  11.848 -0.3684  2.8714  1.5343
12854TIP3   OH260052   1.896   4.550   2.386 -0.3802 -0.2777  0.4080
12854TIP3    H160053   1.939   4.471   2.419  0.9866  0.7814  1.2274
12854TIP3    H260054   1.869   4.526   2.297 -1.6049 -2.2366  1.2186
12855TIP3   OH260055   4.264   6.165  14.719 -0.2550  0.2305 -0.4104
12855TIP3    H160056   4.333   6.136  14.660  0.0453  1.7781 -0.8625
12855TIP3    H260057   4.191   6.106  14.701 -0.2658  0.8099 -2.5629
12856TIP3   OH260058   2.821   5.448   3.040 -0.6440  0.7202 -0.0868
12856TIP3    H160059   2.826   5.384   3.112 -1.4010 -0.0203 -0.6672
12856TIP3    H260060   2.812   5.532   3.083 -1.9861  0.2062  0.7046
12857TIP3   OH260061   2.116   0.685  14.343  0.0344 -0.3557 -0.4195
12857TIP3    H160062   2.154   0.767  14.372 -1.5363 -0.3313  1.7978
12857TIP3    H260063   2.040   0.711  14.290 -1.2455 -0.2776  1.3556
12858TIP3   OH260064   2.546   3.661  11.936 -0.0954 -0.5075  0.1802
12858TIP3    H160065   2.526   3.663  12.029  0.5182 -1.0361  0.3295
12858TIP3    H260066   2.586   3.575  11.921  0.5542 -0.1215 -0.4064
12859TIP3   OH260067   6.689   5.142  14.699 -0.1175  0.4954  0.0742
12859TIP3    H160068   6.721   5.071  14.754  0.2889 -0.4185 -1.3004
12859TIP3    H260069   6.674   5.102  14.614 -0.8356  1.8504 -0.4705
12860TIP3   OH260070   3.941   4.883  10.984  0.2194  0.4981 -0.2895
12860TIP3    H160071   3.945   4.793  10.951 -0.4603  0.7100 -0.9837
12860TIP3    H260072   3.853   4.913  10.962 -0.0048  0.9132  1.0938
12861TIP3   OH260073   5.374   4.864  11.912  0.2609 -0.0052 -0.5640
12861TIP3    H160074   5.337   4.917  11.983  0.1415 -0.9842  0.1292
12861TIP3    H260075   5.363   4.773  11.942 -0.2311 -0.4659 -2.0524
12862TIP3   OH260076   4.047   6.186   1.721  0.0584 -0.1765 -0.2322
12862TIP3    H160077   4.104   6.175   1.645 -0.0105  1.2324 -0.5176
12862TIP3    H260078   4.007   6.272   1.709  0.6989  0.4747  1.7939
12863TIP3   OH260079   1.081   3.254   4.089 -0.1727 -0.7435 -0.1879
12863TIP3    H160080   0.999   3.244   4.041  0.1717 -0.1127 -0.9325
12863TIP3    H260081   1.054   3.280   4.177 -0.7564  0.1001 -0.6022
12864TIP3   OH260082   5.796   3.078   5.302  0.7365  0.1369 -0.3479
12864TIP3    H160083   5.725   3.032   5.257  1.3591  0.2631 -1.4994
12864TIP3    H260084   5.805   3.161   5.254  2.0248 -0.1217 -0.6053
12865TIP3   OH260085   0.867   4.507  14.882  0.0675  0.7605  0.5339
12865TIP3    H160086   0.847   4.550  14.799  0.8930  0.0505 -0.0651
12865TIP3    H260087   0.874   4.414  14.859 -2.9891  0.0463  2.0110
12866TIP3   OH260088   4.846   5.462   3.824  0.2855  0.2287 -0.2287
12866TIP3    H160089   4.849   5.420   3.738 -0.1117 -1.0407  0.3439
12866TIP3    H260090   4.859   5.555   3.806  0.0328  0.0140 -1.6715
12867TIP3   OH260091   3.609   1.125  14.058  0.1560  0.6793  0.1987
12867TIP3    H160092   3.645   1.051  14.010 -2.0786  0.8520 -1.9618
12867TIP3    H260093   3.673   1.142  14.127  1.4923 -2.2670 -0.1357
12868TIP3   OH260094   5.818   2.667   1.174  0.7142 -0.1104 -0.0539
12868TIP3    H160095   5.860   2.659   1.089  0.6483 -1.9137  0.0400
12868TIP3    H260096   5.891   2.675   1.236  0.8143 -0.3427 -0.1415
12869TIP3   OH260097   2.846   1.098   3.892 -0.6846  0.7099  0.5582
12869TIP3    H160098   2.794   1.019   3.877  0.5029 -0.1205  0.6994
12869TIP3    H260099   2.789   1.170   3.866 -1.7246 -0.2079  0.2655
12870TIP3   OH260100   4.150   2.227  13.639 -0.5749 -0.1092  0.2442
12870TIP3    H160101   4.099   2.146  13.646 -0.0946 -0.4439 -0.0441
12870TIP3    H260102   4.241   2.197  13.630 -0.2783  0.4815  1.1524
12871TIP3   OH260103   0.361   6.641   0.353  0.9469  0.2934 -0.1804
12871TIP3    H160104   0.312   6.569   0.315  2.9974 -1.4677  0.3046
12871TIP3    H260105   0.378   6.613   0.443 -0.8432  2.8266  1.0587
12872TIP3   OH260106   5.410   1.014  16.675  0.3572  0.1410  0.6160
12872TIP3    H160107   5.358   0.941  16.642  1.2356  0.0104 -0.5411
12872TIP3    H260108   5.406   1.005  16.771  0.6172 -1.5592  0.5052
12873TIP3   OH260109   3.793   1.097   2.886 -0.2701  0.1434 -0.2455
12873TIP3    H160110   3.821   1.012   2.918  4.3632  1.8645  1.1419
12873TIP3    H260111   3.832   1.105   2.799 -0.7256  0.8500 -0.4036
12874TIP3   OH260112   3.799   4.485   4.006  0.0448  0.1374 -0.5446
12874TIP3    H160113   3.757   4.404   3.975 -0.5170  1.0987 -2.4504
12874TIP3    H260114   3.733   4.553   3.992  0.9500  1.1240 -0.1434
12875TIP3   OH260115   3.444   0.740   1.283  0.2306 -0.1535 -0.2639
12875TIP3    H160116   3.420   0.689   1.205 -3.4612 -0.9067  1.1633
12875TIP3    H260117   3.458   0.674   1.351 -1.5973  0.5308  0.8618
12876TIP3   OH260118   6.678   1.850  14.694 -0.0962  0.8419 -0.2795
12876TIP3    H160119   6.755   1.807  14.656  0.9209  0.8427  1.6639
12876TIP3    H260120   6.603   1.799  14.661  0.6000  1.3624 -2.9132
12877TIP3   OH260121   4.374   1.681   2.230  0.5498  0.0662  0.5836
12877TIP3    H160122   4.301   1.638   2.185  1.1155  0.1237 -0.4160
12877TIP3    H260123   4.343   1.771   2.244 -0.1591 -0.3165  1.5683
12878TIP3   OH260124   0.305   5.010   4.772  0.4792 -0.0521  0.7542
12878TIP3    H160125   0.326   5.103   4.776 -2.4474  0.8231 -1.1877
12878TIP3    H260126   0.269   4.990   4.858 -2.4663  1.7145  0.0549
12879TIP3   OH260127   6.047   4.894   1.252  0.1783  0.0871  0.0517
12879TIP3    H160128   6.033   4.927   1.341  0.2206  1.0883 -0.3055
12879TIP3    H260129   6.123   4.836   1.260 -0.5597 -0.8108  0.8887
12880TIP3   OH260130   5.559   0.076   3.096 -0.5019 -0.0234  0.1127
12880TIP3    H160131   5.601   0.141   3.039  0.1337 -0.7549 -0.2705
12880TIP3    H260132   5.631   0.043   3.150 -0.7527 -0.6554  0.0625
12881TIP3   OH260133   3.649   4.069   4.331 -0.4298 -0.5152  0.2687
12881TIP3    H160134   3.598   3.992   4.360  0.7864 -0.8960  1.4897
12881TIP3    H260135   3.726   4.032   4.288 -1.0666  0.0606 -1.4577
12882TIP3   OH260136   6.315   4.822  14.294 -0.8176  0.3814  0.0134
12882TIP3    H160137   6.359   4.875  14.360 -2.4544  0.7062  0.8942
12882TIP3    H260138   6.223   4.824  14.319 -1.5189  0.5253 -2.2806
12883TIP3   OH260139   3.871   6.498  16.307 -0.4151 -0.2538  0.1191
12883TIP3    H160140   3.865   6.490  16.402 -1.4461 -0.6547  0.0340
12883TIP3    H260141   3.881   6.408  16.276  0.4227 -0.0846 -0.1326
12884TIP3   OH260142   4.073   5.995   5.412  0.9040  0.2931  0.4882
12884TIP3    H160143   4.132   5.923   5.389  0.6401  0.0351  0.6192
12884TIP3    H260144   3.985   5.959   5.401  0.7399  1.1111 -1.0824
12885TIP3   OH260145   2.726   5.743  13.198  0.1496 -0.1841  0.2738
12885TIP3    H160146   2.668   5.791  13.257 -0.1773 -0.1836 -0.0468
12885TIP3    H260147   2.789   5.809  13.168  0.4680 -0.2358  0.7994
12886TIP3   OH260148   4.568   6.671   1.575 -0.1015  0.6613  0.0007
12886TIP3    H160149   4.574   6.743   1.512  1.8774  1.2499  0.7943
12886TIP3    H260150   4.477   6.674   1.606 -0.8249  1.0195 -2.0225
12887TIP3   OH260151   3.267   5.740  13.055  0.0607 -0.3055  0.0644
12887TIP3    H160152   3.179   5.703  13.045 -1.2892  2.4652  0.7026
12887TIP3    H260153   3.296   5.758  12.966  0.1289 -1.4566 -0.1649
12888TIP3   OH260154   4.164   2.932  10.917 -0.2091  0.2907  0.3705
12888TIP3    H160155   4.123   2.891  10.841 -0.1524 -0.0377  0.5145
12888TIP3    H260156   4.099   2.996  10.948  0.0158  0.8686 -0.3186
12889TIP3   OH260157   2.723   3.448  12.849  0.0452  0.2691 -0.3224
12889TIP3    H160158   2.819   3.458  12.849  0.1523 -0.5815 -0.8060
12889TIP3    H260159   2.690   3.534  12.822  0.6227  0.8540  0.7954
12890TIP3   OH260160   6.327   2.350  13.593  0.8675  0.1979  0.6058
12890TIP3    H160161   6.390   2.411  13.631  0.0428  1.0166  0.6693
12890TIP3    H260162   6.370   2.264  13.600  1.9674  0.7394  0.6481
12891TIP3   OH260163   5.592   1.541   1.194 -0.6334 -0.1357 -0.4969
12891TIP3    H160164   5.630   1.470   1.142 -1.3422 -0.1587 -0.9980
12891TIP3    H260165   5.653   1.552   1.267 -0.1969 -0.8460 -0.7395
12892TIP3   OH260166   6.130   0.071  15.349  0.2812  0.5466  0.3795
12892TIP3    H160167   6.199   0.130  15.317  2.1460  0.6636  4.1203
12892TIP3    H260168   6.148  -0.012  15.304  0.5749  1.4908 -1.3653
12893TIP3   OH260169   5.104   2.758   3.617  0.1515 -0.0114  0.1073
12893TIP3    H160170   5.013   2.746   3.591 -0.4632 -0.1547  2.1330
12893TIP3    H260171   5.130   2.840   3.577 -1.5384  1.0614  1.1098
12894TIP3   OH260172   2.251   3.366  12.587 -0.1523  0.0543  0.2477
12894TIP3    H160173   2.320   3.378  12.653 -0.7498  0.7025  0.7825
12894TIP3    H260174   2.184   3.430  12.612  0.9524  2.6498 -2.8497
12895TIP3   OH260175   2.268   4.312  15.904 -0.0151 -0.0041 -0.5464
12895TIP3    H160176   2.236   4.237  15.854  0.8147 -1.5393  1.1054
12895TIP3    H260177   2.363   4.308  15.893 -0.0188  1.6227 -1.4796
12896TIP3   OH260178   1.376   0.960  14.544  0.0483 -0.4103  0.7793
12896TIP3    H160179   1.466   0.938  14.519 -0.2025 -2.4056  1.4011
12896TIP3    H260180   1.386   1.017  14.621  0.7533  1.3172 -0.5246
12897TIP3   OH260181   2.394   1.810  15.783  0.2057 -0.0900 -0.0003
12897TIP3    H160182   2.482   1.800  15.820 -0.8406 -2.0381  2.2199
12897TIP3    H260183   2.389   1.744  15.714 -0.1162 -1.4390  1.2571
12898TIP3   OH260184   5.559   0.369  12.089 -0.4176 -0.0640  0.2250
12898TIP3    H160185   5.620   0.315  12.139  0.4083 -1.0264 -1.6861
12898TIP3    H260186   5.615   0.432  12.043 -1.0580  0.3143 -0.0476
12899TIP3   OH260187   5.015   6.228  14.919 -0.1565  0.3565 -0.6839
12899TIP3    H160188   4.932   6.226  14.966 -0.5708  0.3023 -1.3950
12899TIP3    H260189   5.064   6.300  14.958 -0.5616  0.4184 -0.2899
12900TIP3   OH260190   3.075   4.042  13.311  0.3845 -0.0723 -0.6521
12900TIP3    H160191   3.019   4.007  13.380  1.3518 -1.3272 -0.4959
12900TIP3    H260192   3.152   3.986  13.310  1.0350  0.7921 -1.8005
12901TIP3   OH260193   5.044   1.165  12.204 -0.1112 -0.2653  0.3310
12901TIP3    H160194   5.100   1.091  12.183 -1.6736 -1.2406 -0.6016
12901TIP3    H260195   4.956   1.127  12.212 -1.3688  1.7605 -2.3793
12902TIP3   OH260196   0.782   3.126  11.071 -0.2707 -0.1825 -0.2268
12902TIP3    H160197   0.867   3.158  11.041 -0.4083  0.5377  0.1325
12902TIP3    H260198   0.721   3.197  11.051 -0.8803 -0.8662 -0.8866
12903TIP3   OH260199   0.496   1.068  14.633 -0.2902  0.1055 -0.0842
12903TIP3    H160200   0.509   1.112  14.717  0.5631 -2.6724  1.3417
12903TIP3    H260201   0.402   1.078  14.616 -0.2843  1.6575  0.6016
12904TIP3   OH260202   0.566   5.940   1.434  0.2455  0.1973 -0.6446
12904TIP3    H160203   0.501   5.938   1.364  1.0243 -0.4168 -1.3657
12904TIP3    H260204   0.650   5.929   1.390  0.9858  2.2116  0.1353
12905TIP3   OH260205   0.252   5.421  15.896 -0.4519 -0.1972  0.3915
12905TIP3    H160206   0.205   5.499  15.924 -0.9198 -0.4267  0.2526
12905TIP3    H260207   0.203   5.348  15.934 -1.5538 -0.5680 -1.5933
12906TIP3   OH260208   5.906   4.955  11.535 -0.1751  0.3971  0.0738
12906TIP3    H160209   5.981   4.937  11.591 -0.9060 -0.5898  0.7826
12906TIP3    H260210   5.925   5.040  11.495  1.9128 -0.4205 -0.7954
12907TIP3   OH260211   3.262   1.777   1.954  0.2544  0.2116 -0.3993
12907TIP3    H160212   3.316   1.700   1.937 -1.4365 -0.6858 -2.1781
12907TIP3    H260213   3.174   1.742   1.966 -0.3666  1.8013 -0.0607
12908TIP3   OH260214   1.313   5.149   5.496 -0.0719 -0.7457 -0.1636
12908TIP3    H160215   1.384   5.206   5.467 -0.2068  0.2123  1.2918
12908TIP3    H260216   1.353   5.063   5.504  0.4497 -0.6107 -1.1423
12909TIP3   OH260217   0.421   1.441   4.269  0.0189 -0.0446  0.0452
12909TIP3    H160218   0.484   1.410   4.334 -0.6965  1.6604  1.6141
12909TIP3    H260219   0.351   1.482   4.320 -2.0615 -1.2457 -1.6611
12910TIP3   OH260220   1.863   0.242   3.609  0.4890 -0.6249  0.2292
12910TIP3    H160221   1.823   0.156   3.625 -0.9820  0.2065  1.1675
12910TIP3    H260222   1.897   0.269   3.693  1.2251 -0.4078 -0.1324
12911TIP3   OH260223   4.170   2.587   2.750 -0.3591 -0.4225 -0.5821
12911TIP3    H160224   4.196   2.679   2.737 -2.0599  0.0114 -1.1225
12911TIP3    H260225   4.247   2.546   2.790 -0.1202  1.6205  1.2449
12912TIP3   OH260226   5.677   4.827  14.333  0.1600  0.5947  0.0626
12912TIP3    H160227   5.716   4.913  14.318 -0.6262  1.1594  1.0418
12912TIP3    H260228   5.652   4.796  14.246  2.9861  0.0520 -0.6480
12913TIP3   OH260229   5.846   2.586  12.229 -0.1279 -0.2365 -0.4317
12913TIP3    H160230   5.767   2.640  12.220  0.1761  0.7713  2.2110
12913TIP3    H260231   5.918   2.648  12.225  0.5681 -1.0765 -2.1489
12914TIP3   OH260232   2.318   6.183  16.906 -0.1264 -0.2770  0.0039
12914TIP3    H160233   2.253   6.126  16.948 -0.3785  0.2237  0.3072
12914TIP3    H260234   2.402   6.154  16.942 -0.1012 -1.3556 -0.8737
12915TIP3   OH260235   2.652   2.572  10.736  0.3046 -0.5428  0.0006
12915TIP3    H160236   2.558   2.592  10.728  0.6336  0.6532 -1.2007
12915TIP3    H260237   2.660   2.534  10.824 -1.3068 -0.7133  0.1201
12916TIP3   OH260238   0.054   1.317   4.433  0.3231  0.4930 -0.0936
12916TIP3    H160239  -0.001   1.308   4.355  1.0875 -0.2960 -0.5665
12916TIP3    H260240  -0.003   1.355   4.499 -0.5121  0.5997 -0.8617
12917TIP3   OH260241   1.924   5.179   2.615  0.0402 -0.9789 -1.1619
12917TIP3    H160242   1.885   5.100   2.651 -1.9781 -0.9507 -3.0458
12917TIP3    H260243   1.929   5.240   2.689 -1.2496 -1.8426 -0.3353
12918TIP3   OH260244   0.661   6.227  14.640 -0.2721 -0.1176 -0.4379
12918TIP3    H160245   0.597   6.271  14.584 -0.1562 -0.4338 -0.8246
12918TIP3    H260246   0.744   6.235  14.592 -0.4801 -1.9000 -1.1757
12919TIP3   OH260247   3.752   5.805  16.151  0.4823  0.0089 -1.0796
12919TIP3    H160248   3.840   5.784  16.120  0.8463  0.8828 -0.6617
12919TIP3    H260249   3.742   5.754  16.232  0.8012  0.3056 -0.8525
12920TIP3   OH260250   1.581   5.679  12.551 -0.1743  0.0735  0.5380
12920TIP3    H160251   1.537   5.594  12.559  1.4564 -0.8111  0.6552
12920TIP3    H260252   1.594   5.689  12.456  1.9242 -1.1140  0.6332
12921TIP3   OH260253   1.278   4.538  14.743 -0.4628 -0.5519  0.2869
12921TIP3    H160254   1.202   4.580  14.703 -0.1655  0.5166  0.7944
12921TIP3    H260255   1.345   4.539  14.675 -0.3100  0.2393  0.4434
12922TIP3   OH260256   0.925   3.958   3.893 -0.3309  0.7272 -0.0262
12922TIP3    H160257   0.872   3.977   3.815 -1.8815 -0.2464  0.7286
12922TIP3    H260258   0.861   3.935   3.960  0.8883  2.5290  1.8737
12923TIP3   OH260259   2.743   2.296   1.089  0.6139 -0.3245  0.1441
12923TIP3    H160260   2.656   2.256   1.099  0.5759 -0.2405  0.1500
12923TIP3    H260261   2.729   2.370   1.030  1.2202 -2.1093 -2.3994
12924TIP3   OH260262   6.502   3.825   4.042  0.2675  0.4342 -0.3873
12924TIP3    H160263   6.512   3.805   4.135 -0.4950  1.9482  0.0557
12924TIP3    H260264   6.420   3.782   4.017 -0.0804  0.9004 -0.0723
12925TIP3   OH260265   1.865   3.398  13.608  0.3400  0.1385 -0.1041
12925TIP3    H160266   1.855   3.420  13.701  0.3187 -0.3604  0.0155
12925TIP3    H260267   1.958   3.413  13.590  0.3046  0.4248 -0.0525
12926TIP3   OH260268   3.636   2.365  16.543 -0.4836  0.4419 -0.0334
12926TIP3    H160269   3.582   2.401  16.613  1.0083 -1.9037  2.5452
12926TIP3    H260270   3.593   2.283  16.519 -0.5074  0.8045 -1.3090
12927TIP3   OH260271   0.620   2.164   3.275 -0.1185 -0.2141 -0.4342
12927TIP3    H160272   0.567   2.128   3.203 -2.7422  0.0103  1.2206
12927TIP3    H260273   0.644   2.252   3.244  1.1974 -1.0917 -2.0871
12928TIP3   OH260274   3.906   3.884  15.948 -0.9024  0.2329 -0.2832
12928TIP3    H160275   3.931   3.959  15.893  1.4296  0.8744  1.4913
12928TIP3    H260276   3.912   3.916  16.037 -1.9423 -1.5212  0.4673
12929TIP3   OH260277   0.459   0.945   3.370 -0.5384  0.1209 -0.0358
12929TIP3    H160278   0.464   0.880   3.440 -0.7968  0.2926  0.1454
12929TIP3    H260279   0.387   0.915   3.315  0.6341 -0.8451 -1.0896
12930TIP3   OH260280   1.373   6.474  14.388  0.0172  0.3525  0.0230
12930TIP3    H160281   1.464   6.449  14.371 -0.3548 -1.2712  0.2632
12930TIP3    H260282   1.358   6.550  14.332  0.7863 -0.8422 -1.8963
12931TIP3   OH260283   4.262   5.252   1.778  0.4947  0.3483  0.0452
12931TIP3    H160284   4.170   5.276   1.791  0.5030  0.1172  0.5514
12931TIP3    H260285   4.309   5.336   1.778  0.2825  0.4710 -0.2710
12932TIP3   OH260286   4.216   5.065   6.256 -0.4125 -0.5716 -0.0779
12932TIP3    H160287   4.271   5.139   6.231 -1.0866  0.0945  0.3869
12932TIP3    H260288   4.127   5.098   6.251 -0.6958 -1.1840  0.6849
12933TIP3   OH260289   5.611   6.141   0.534 -1.1273  0.3123 -0.1697
12933TIP3    H160290   5.615   6.048   0.559 -1.2485  0.7224  1.4771
12933TIP3    H260291   5.576   6.185   0.612  0.1891  1.9262 -0.4519
12934TIP3   OH260292   2.991   1.131  11.584 -0.1150  0.1613  0.6426
12934TIP3    H160293   3.023   1.217  11.556  2.0899 -0.4116  1.2217
12934TIP3    H260294   2.991   1.136  11.679 -1.8858  0.1250  0.6802
12935TIP3   OH260295   5.484   6.412  15.212 -0.2959 -0.0086  0.3365
12935TIP3    H160296   5.571   6.433  15.179 -0.2088 -0.3085  0.3696
12935TIP3    H260297   5.430   6.488  15.189  0.2652  0.7605  1.4486
12936TIP3   OH260298   4.218   3.568   2.137 -0.7507  0.1571  0.4595
12936TIP3    H160299   4.260   3.621   2.070 -1.4682 -0.7814 -0.7723
12936TIP3    H260300   4.168   3.631   2.189  0.2491  0.9676  0.4682
12937TIP3   OH260301   1.496   0.653   2.846 -0.0098  0.1065  0.0402
12937TIP3    H160302   1.511   0.559   2.837  0.9128  0.0368  1.7887
12937TIP3    H260303   1.580   0.688   2.876 -0.1372  1.6184 -1.1916
12938TIP3   OH260304   1.327   2.944  11.944  0.2855  0.4487 -0.4882
12938TIP3    H160305   1.292   2.968  12.029  1.1929  2.1083 -0.5496
12938TIP3    H260306   1.378   2.865  11.960  1.8839  1.6981  0.8719
12939TIP3   OH260307   1.825   5.448   6.306  0.7900 -0.5440  0.0093
12939TIP3    H160308   1.772   5.405   6.374  0.2655  0.0689 -0.0053
12939TIP3    H260309   1.766   5.455   6.231  0.2629  1.7428  0.5497
12940TIP3   OH260310   3.232   4.019  11.856  0.1535  0.0294  0.0573
12940TIP3    H160311   3.189   4.012  11.941 -0.7416  2.7563 -0.0680
12940TIP3    H260312   3.323   4.040  11.877 -0.1195  0.9375  0.3800
12941TIP3   OH260313   4.979   0.599  10.768  0.2431 -0.5595  0.2623
12941TIP3    H160314   5.038   0.634  10.835  1.1669  2.0698 -1.7665
12941TIP3    H260315   5.033   0.537  10.719  0.2185 -0.8255  0.5632
12942TIP3   OH260316   5.118   6.259   1.426  0.1621  0.4136  0.3202
12942TIP3    H160317   5.135   6.302   1.510 -3.0301  0.1179  1.2481
12942TIP3    H260318   5.071   6.179   1.448 -1.8378  0.9017 -1.7462
12943TIP3   OH260319   6.762   1.811  11.152  0.3084  0.4472 -0.4400
12943TIP3    H160320   6.673   1.820  11.117  0.6352  3.1690 -0.7737
12943TIP3    H260321   6.759   1.855  11.237  1.2034  0.0298 -0.1806
12944TIP3   OH260322   4.970   2.091  11.085  0.0305  0.4126  0.5174
12944TIP3    H160323   4.967   2.045  11.001 -0.9013  1.1775  0.1087
12944TIP3    H260324   4.946   2.025  11.150  1.7392 -0.4505  0.3301
12945TIP3   OH260325   0.356   5.032   1.343 -0.4388  0.0914  0.0246
12945TIP3    H160326   0.351   5.114   1.393 -0.1884 -0.3820  0.8553
12945TIP3    H260327   0.265   5.001   1.340 -0.2206 -0.8632  1.9229
12946TIP3   OH260328   5.010   3.876  15.501  0.4636  0.0238 -0.0579
12946TIP3    H160329   5.083   3.908  15.554  0.7624 -0.0083 -0.4427
12946TIP3    H260330   5.042   3.880  15.411 -0.1489  0.3821 -0.2686
12947TIP3   OH260331   6.115   4.581  13.915  0.3803  1.0342  0.6961
12947TIP3    H160332   6.133   4.535  13.833 -0.2992 -0.9175  1.5922
12947TIP3    H260333   6.079   4.665  13.888  3.2948  1.8910 -1.0213
12948TIP3   OH260334   6.303   4.601  14.130  0.6082 -0.4613 -0.3769
12948TIP3    H160335   6.237   4.600  14.061 -0.5972 -1.3219  0.7434
12948TIP3    H260336   6.279   4.675  14.185  0.9670 -0.3878 -0.3174
12949TIP3   OH260337   6.267   5.467   5.901 -0.2988 -0.0403 -0.2700
12949TIP3    H160338   6.222   5.551   5.905  1.9509  1.4303 -2.6623
12949TIP3    H260339   6.313   5.460   5.985 -1.1686  0.7096  0.2797
12950TIP3   OH260340   3.251   3.026  14.347 -0.7755 -0.2724  0.4356
12950TIP3    H160341   3.222   3.105  14.301 -0.3072 -0.3791 -0.0532
12950TIP3    H260342   3.291   3.058  14.428  0.0270  0.0468 -0.0752
12951TIP3   OH260343   0.119   2.358  11.743  0.4381  0.6557  1.2118
12951TIP3    H160344   0.038   2.318  11.773 -0.8194  3.0129  1.1503
12951TIP3    H260345   0.187   2.295  11.767 -1.5402 -2.7038 -1.1316
12952TIP3   OH260346   4.158   0.041   2.929 -0.3420  0.1757  0.8067
12952TIP3    H160347   4.195   0.108   2.985 -0.1392  0.3960  0.4144
12952TIP3    H260348   4.125   0.089   2.853  0.0777 -0.1975  0.3833
12953TIP3   OH260349   0.089   1.268   2.322  0.2844 -0.2802 -0.3018
12953TIP3    H160350   0.023   1.316   2.272  2.4236  1.5033 -1.5729
12953TIP3    H260351   0.074   1.177   2.299 -1.2571  0.1376 -1.1272
12954TIP3   OH260352   0.813   0.689  16.793  0.5224 -0.2368 -0.4015
12954TIP3    H160353   0.823   0.678  16.888  2.0189  0.4569 -0.4480
12954TIP3    H260354   0.760   0.614  16.766  2.6140 -2.1955  0.5826
12955TIP3   OH260355   1.184   6.568   1.798 -0.3106  0.1320  0.0012
12955TIP3    H160356   1.197   6.624   1.875 -0.8650 -0.0207  0.2091
12955TIP3    H260357   1.214   6.622   1.724 -1.5880  1.0247  0.1015
12956TIP3   OH260358   4.711   1.264  14.851  0.4347 -0.4470  0.6915
12956TIP3    H160359   4.786   1.323  14.864 -0.5660  1.3160 -1.0550
12956TIP3    H260360   4.751   1.179  14.829  1.8996 -0.2379  2.3277
12957TIP3   OH260361   3.138   6.526  13.845 -0.0130 -0.5936 -0.1876
12957TIP3    H160362   3.117   6.458  13.908 -0.3115 -0.8133 -0.5262
12957TIP3    H260363   3.209   6.576  13.887  0.3270 -1.2127 -0.0181
12958TIP3   OH260364   0.668   5.040   1.708 -0.0120  0.2994  0.0078
12958TIP3    H160365   0.636   4.987   1.635  1.1530  1.9427 -1.7895
12958TIP3    H260366   0.588   5.066   1.755 -0.7671 -0.9891 -0.4959
12959TIP3   OH260367   1.637   1.362   1.215  0.1718 -0.1529 -0.3970
12959TIP3    H160368   1.706   1.393   1.157  0.7511 -3.3729 -1.6392
12959TIP3    H260369   1.557   1.399   1.177  0.9760  2.2522  0.0774
12960TIP3   OH260370   1.255   5.332  15.841 -0.5847  0.6521  0.2830
12960TIP3    H160371   1.216   5.381  15.913 -0.5760  1.7207 -0.4199
12960TIP3    H260372   1.332   5.289  15.879  0.6227  2.8735  0.4806
12961TIP3   OH260373   0.484   0.532  15.449  0.4216 -0.2230 -0.0498
12961TIP3    H160374   0.506   0.602  15.388 -0.7694  0.8021  0.6481
12961TIP3    H260375   0.562   0.524  15.504  0.8814 -0.0260 -0.6568
12962TIP3   OH260376   4.502   3.021  15.248 -0.1960 -0.4419  0.2972
12962TIP3    H160377   4.542   2.935  15.264 -0.7608 -1.1501 -1.7318
12962TIP3    H260378   4.553   3.057  15.175 -1.5397 -0.1807 -0.5340
12963TIP3   OH260379   5.956   0.470  14.544  0.1699  0.6152  0.7197
12963TIP3    H160380   5.876   0.497  14.499  0.3310  1.6273  1.0240
12963TIP3    H260381   5.929   0.398  14.601 -0.3642  0.4382  0.2488
12964TIP3   OH260382   5.015   4.291   1.235  0.8909  0.1954  0.2803
12964TIP3    H160383   4.936   4.330   1.198  0.5030 -0.5436  0.3031
12964TIP3    H260384   5.055   4.360   1.288  0.4304  0.6678  0.0082
12965TIP3   OH260385   0.778   3.534   0.832  0.6557 -0.8498 -0.0250
12965TIP3    H160386   0.693   3.534   0.789  0.5443  2.5391 -0.0637
12965TIP3    H260387   0.757   3.533   0.926  0.5613 -0.4113 -0.0379
12966TIP3   OH260388   5.593   3.208  13.998 -0.0759 -0.2939  0.7458
12966TIP3    H160389   5.542   3.243  13.925  1.8698  0.1698 -0.4698
12966TIP3    H260390   5.561   3.256  14.075  0.7549  2.4722 -0.4875
12967TIP3   OH260391   0.103   4.166   3.673  0.4660 -0.0217  0.5005
12967TIP3    H160392   0.088   4.251   3.631 -0.7017  0.5557  2.0122
12967TIP3    H260393   0.179   4.179   3.729  0.4239 -0.0445  0.5633
12968TIP3   OH260394   5.030   3.739  14.392  0.5561  0.3938 -0.3128
12968TIP3    H160395   5.118   3.768  14.417  1.1332 -1.3094 -0.2452
12968TIP3    H260396   5.043   3.651  14.356 -1.0657  0.2965 -0.7164
12969TIP3   OH260397   3.082   4.517   4.497  0.5572 -0.1833 -0.4173
12969TIP3    H160398   3.059   4.554   4.412 -1.3953  0.7157  0.4359
12969TIP3    H260399   2.999   4.487   4.534  1.5747 -2.0523  0.5296
12970TIP3   OH260400   6.155   0.470   5.886 -0.0106  0.6564  0.1987
12970TIP3    H160401   6.183   0.515   5.965  0.6040  2.1800 -0.8287
12970TIP3    H260402   6.065   0.498   5.872 -0.6150 -0.7328  1.0868
12971TIP3   OH260403   5.909   2.670  10.841  0.7994  0.6346 -0.5888
12971TIP3    H160404   5.845   2.741  10.833  0.7266  0.4780 -1.4860
12971TIP3    H260405   5.914   2.632  10.753 -2.3492 -3.2149  0.5829
12972TIP3   OH260406   4.857   5.144  15.291 -0.0071 -0.5628  0.3484
12972TIP3    H160407   4.858   5.065  15.236 -2.8615 -0.0683 -0.5584
12972TIP3    H260408   4.948   5.155  15.317  1.1578 -2.0362 -2.5678
12973TIP3   OH260409   1.607   6.739  14.424 -0.0582  0.0189 -0.1263
12973TIP3    H160410   1.560   6.672  14.473 -0.0879  0.0838 -0.0660
12973TIP3    H260411   1.672   6.690  14.373  2.0099  0.1236  2.1837
12974TIP3   OH260412   2.783   2.811   0.867  0.4535 -0.2949 -0.0959
12974TIP3    H160413   2.695   2.826   0.901  0.6186  1.1084 -0.2174
12974TIP3    H260414   2.784   2.855   0.782  1.2186 -0.4444 -0.1750
12975TIP3   OH260415   2.220   1.745   0.217 -0.4477  0.7419 -0.1773
12975TIP3    H160416   2.151   1.734   0.151  0.4602  0.0574 -1.0536
12975TIP3    H260417   2.198   1.681   0.285 -0.4853  0.2682 -0.6249
12976TIP3   OH260418   0.810   2.579   5.296 -0.2148  0.3685  0.2862
12976TIP3    H160419   0.729   2.533   5.313 -1.7293  2.5615 -0.5149
12976TIP3    H260420   0.821   2.638   5.372 -1.0517  2.2299 -0.9732
12977TIP3   OH260421   2.019   2.517  13.362  0.0629  0.1278  0.3536
12977TIP3    H160422   2.004   2.571  13.439  0.0071  2.1995 -1.0113
12977TIP3    H260423   2.112   2.495  13.366 -0.3144 -1.3563  1.9098
12978TIP3   OH260424   2.720   2.877   6.444 -0.0822  0.1756 -0.0559
12978TIP3    H160425   2.681   2.961   6.466 -1.5680 -0.4073 -0.3128
12978TIP3    H260426   2.803   2.876   6.491  0.1962  1.9644 -0.4343
12979TIP3   OH260427   0.392   1.157  15.434  0.4176  0.2046 -0.2439
12979TIP3    H160428   0.321   1.220  15.447 -0.4394 -0.4477 -1.5204
12979TIP3    H260429   0.356   1.074  15.465  0.2648 -0.3011 -1.6920
12980TIP3   OH260430   3.087   3.485   1.073 -1.2082 -0.3919 -0.0504
12980TIP3    H160431   3.122   3.432   1.001 -1.8716 -0.5187 -0.2909
12980TIP3    H260432   3.136   3.567   1.070 -1.9937  0.0541 -1.3681
12981TIP3   OH260433   4.086   6.808   0.623 -0.1620  0.1666 -0.9636
12981TIP3    H160434   4.177   6.835   0.629  0.1476 -0.9159 -0.4876
12981TIP3    H260435   4.083   6.724   0.669 -1.4307  0.2642 -0.8249
12982TIP3   OH260436   5.773   3.723  16.519  0.3161 -0.3427 -0.7173
12982TIP3    H160437   5.692   3.693  16.478 -1.2671 -1.3768  2.7914
12982TIP3    H260438   5.816   3.776  16.452 -2.4923 -1.0326 -3.2490
12983TIP3   OH260439   3.949   4.060   4.902  0.5273  0.3463 -0.2297
12983TIP3    H160440   3.947   4.145   4.859  0.3972  0.1373 -0.6425
12983TIP3    H260441   4.042   4.046   4.923  0.4338  1.0069  0.7018
12984TIP3   OH260442   0.578   3.933  10.916  0.3496 -0.6659 -0.1688
12984TIP3    H160443   0.585   4.028  10.925  1.3509 -0.7636  0.2437
12984TIP3    H260444   0.511   3.908  10.980  1.4475 -0.4329  1.1138
12985TIP3   OH260445   3.158   3.763  14.073 -0.0147 -0.0481  0.1454
12985TIP3    H160446   3.092   3.696  14.087 -0.8804  1.0300  1.4979
12985TIP3    H260447   3.120   3.843  14.110  1.5082  0.9040 -0.2313
12986TIP3   OH260448   2.052   2.508   2.962 -0.7570  0.3359  0.5129
12986TIP3    H160449   2.117   2.444   2.989 -1.6732 -0.5443  0.6956
12986TIP3    H260450   1.968   2.464   2.976 -1.3803  1.3216 -0.0279
12987TIP3   OH260451   3.840   5.080  11.823  0.5638 -0.0018  0.0094
12987TIP3    H160452   3.926   5.118  11.837  1.3051 -1.6464  0.0918
12987TIP3    H260453   3.833   5.073  11.728  0.0355  1.1315 -0.0580
12988TIP3   OH260454   4.610   6.815  16.646 -0.6512  0.0769  0.3168
12988TIP3    H160455   4.608   6.724  16.615  0.2397  0.1622 -0.0110
12988TIP3    H260456   4.691   6.821  16.697 -0.8209  0.6336  0.5265
12989TIP3   OH260457   2.673   4.080   2.827  0.0668  0.3652  0.4156
12989TIP3    H160458   2.617   4.140   2.877 -0.1317  0.1906  0.4057
12989TIP3    H260459   2.619   4.001   2.816  1.1480 -0.7395  2.4314
12990TIP3   OH260460   5.679   4.610   4.810 -0.3321  0.6065 -0.8930
12990TIP3    H160461   5.670   4.514   4.808 -0.9987  0.6630 -0.6199
12990TIP3    H260462   5.741   4.629   4.739  2.2240 -0.2883  0.9267
12991TIP3   OH260463   6.575   5.904  17.097  0.1900 -0.4668 -0.3021
12991TIP3    H160464   6.654   5.957  17.107  0.3210 -0.5425 -0.9048
12991TIP3    H260465   6.520   5.929  17.171  0.1960  0.6066 -0.6468
12992TIP3   OH260466   5.412   3.403   5.191  0.5896  0.1201  0.5978
12992TIP3    H160467   5.332   3.396   5.243  0.4238 -0.4399  0.2755
12992TIP3    H260468   5.383   3.393   5.100  0.8085  1.5680  0.3426
12993TIP3   OH260469   4.070   4.127  11.096 -0.7000  0.0323 -0.6533
12993TIP3    H160470   3.978   4.130  11.071 -0.7797 -0.1345 -0.3785
12993TIP3    H260471   4.072   4.151  11.188 -0.3802  0.8527 -0.8607
12994TIP3   OH260472   3.895   1.067  12.123 -0.3637 -0.4099  0.3287
12994TIP3    H160473   3.833   0.998  12.148 -0.2182 -0.8248 -0.4267
12994TIP3    H260474   3.933   1.037  12.041  0.0222  0.3723  0.2076
12995TIP3   OH260475   0.394   6.587   0.625  0.2066  0.7648 -0.3165
12995TIP3    H160476   0.342   6.521   0.672 -1.1201  2.2799  0.4373
12995TIP3    H260477   0.374   6.669   0.669  1.5192  1.7580 -1.4803
12996TIP3   OH260478   0.565   1.018   1.913 -0.0256  0.8983  0.2940
12996TIP3    H160479   0.499   1.083   1.889 -0.9702 -0.2446 -0.2825
12996TIP3    H260480   0.564   0.955   1.841 -0.6505 -0.9187  1.8144
12997TIP3   OH260481   2.703   6.010   5.105  0.4719  0.2131 -0.2770
12997TIP3    H160482   2.746   5.952   5.041  2.6254  1.5537 -0.1659
12997TIP3    H260483   2.653   5.951   5.161  3.0532 -1.7035  0.2070
12998TIP3   OH260484   4.311   6.823  16.333  0.1446 -0.8953 -0.2003
12998TIP3    H160485   4.386   6.881  16.345 -0.3061 -0.6384  1.9293
12998TIP3    H260486   4.243   6.879  16.297  0.4077 -0.6539 -0.3217
12999TIP3   OH260487   5.611   2.939   4.076  0.4665 -0.2910 -0.2596
12999TIP3    H160488   5.581   2.989   4.152 -0.0357 -2.3687  0.9604
12999TIP3    H260489   5.686   2.890   4.108  1.0887 -0.1757 -1.4991
13000TIP3   OH260490   5.515   1.616  14.724 -0.2014 -0.1911  0.2082
13000TIP3    H160491   5.540   1.644  14.812  1.5469  0.7929 -0.5445
13000TIP3    H260492   5.567   1.538  14.707 -0.1914 -0.1234 -0.0932
13001TIP3   OH260493   2.446   0.560  15.857 -0.2328 -0.1205  0.2543
13001TIP3    H160494   2.429   0.644  15.815  0.6244 -0.4078 -0.7004
13001TIP3    H260495   2.455   0.498  15.785 -0.6726 -1.0080  0.9405
13002TIP3   OH260496   6.010   0.475   4.743 -0.2242 -0.1060  0.7518
13002TIP3    H160497   6.088   0.526   4.765  0.4943 -1.7010  2.0713
13002TIP3    H260498   5.997   0.491   4.649  1.7355  0.1395  0.4891
13003TIP3   OH260499   4.063   1.819   5.232 -0.2119 -0.4839  0.2727
13003TIP3    H160500   3.986   1.857   5.274 -0.8946  0.9730 -2.1158
13003TIP3    H260501   4.029   1.744   5.183  0.3229 -1.2800  1.0944
13004TIP3   OH260502   0.424   6.281  11.284 -0.1571  0.2954  0.6262
13004TIP3    H160503   0.426   6.372  11.314  0.7237  0.5959 -0.2773
13004TIP3    H260504   0.401   6.230  11.361 -0.0582  1.2341  1.2843
13005TIP3   OH260505   2.496   6.307   3.601 -0.1712 -0.3373  0.9474
13005TIP3    H160506   2.467   6.399   3.598 -0.2490 -0.3712  0.6567
13005TIP3    H260507   2.456   6.273   3.681  0.2877  0.0240  1.3394
13006TIP3   OH260508   6.184   4.762   2.366  0.6784  0.4118 -0.7433
13006TIP3    H160509   6.254   4.817   2.332  0.5630  0.9734 -0.1040
13006TIP3    H260510   6.109   4.822   2.375  0.3774  0.0199 -0.5840
13007TIP3   OH260511   0.621   0.156  15.844  0.8842 -0.2827  0.0949
13007TIP3    H160512   0.596   0.063  15.844 -0.2534  0.0031 -0.3597
13007TIP3    H260513   0.565   0.196  15.910 -0.0173  0.3985 -1.0398
13008TIP3   OH260514   0.223   2.011  12.681  0.1039  0.0503  0.1377
13008TIP3    H160515   0.245   2.025  12.589 -1.0872  0.8388 -0.0550
13008TIP3    H260516   0.204   2.099  12.715 -2.5480 -0.4795  0.2719
13009TIP3   OH260517   6.688   3.116   5.089 -0.0131  0.5026 -1.1633
13009TIP3    H160518   6.655   3.199   5.057 -1.8261  0.7561  1.1160
13009TIP3    H260519   6.691   3.059   5.012 -1.3511  1.8852 -2.2808
13010TIP3   OH260520   2.959   3.889  14.990  0.6661  0.3821  0.1915
13010TIP3    H160521   2.867   3.884  14.963  0.6851  0.5942  0.0819
13010TIP3    H260522   3.008   3.879  14.908  0.7137  1.6478  0.0466
13011TIP3   OH260523   1.831   4.386   4.996  0.0132 -0.5111  0.2271
13011TIP3    H160524   1.749   4.336   4.991 -0.3306  0.1211 -0.6924
13011TIP3    H260525   1.880   4.358   4.918  0.5436 -0.6504  0.6072
13012TIP3   OH260526   3.309   3.398   1.377  0.0503  0.3365  0.0636
13012TIP3    H160527   3.235   3.358   1.332  2.2764 -1.9107 -1.9324
13012TIP3    H260528   3.271   3.446   1.450 -3.3998  0.1811 -1.4706
13013TIP3   OH260529   4.571   4.864   3.090 -0.0721  0.0576 -0.3908
13013TIP3    H160530   4.563   4.831   3.000 -0.5101 -0.6676 -0.1030
13013TIP3    H260531   4.590   4.786   3.142  1.3453  0.6434  0.0016
13014TIP3   OH260532   3.350   6.209   3.272  0.0549  0.6177  0.1905
13014TIP3    H160533   3.331   6.237   3.183  0.1523  2.7251  0.7730
13014TIP3    H260534   3.269   6.167   3.302  0.5178 -1.5429 -1.3340
13015TIP3   OH260535   4.075   5.545   2.550 -0.3357 -0.2137  0.1672
13015TIP3    H160536   4.105   5.468   2.502 -0.0990  0.2342 -0.4069
13015TIP3    H260537   4.013   5.510   2.614 -1.7380 -0.6968 -1.3693
13016TIP3   OH260538   0.522   1.059   2.496 -0.0168 -0.2498  0.2671
13016TIP3    H160539   0.616   1.065   2.517  0.0434 -0.8624  0.1692
13016TIP3    H260540   0.510   0.970   2.463 -0.8462 -0.5617  1.3491
13017TIP3   OH260541   1.017   1.197   2.862 -0.4996  0.0983 -0.2412
13017TIP3    H160542   1.086   1.149   2.908  0.0449  1.3035  0.2377
13017TIP3    H260543   1.042   1.191   2.769  0.9621  1.5623  0.0191
13018TIP3   OH260544   1.846   1.691   6.223  0.1620 -0.4568 -0.0358
13018TIP3    H160545   1.762   1.682   6.268 -0.2740  2.1328 -0.1525
13018TIP3    H260546   1.835   1.643   6.141  0.0730 -3.0655  1.3915
13019TIP3   OH260547   2.897   1.943  11.139  0.3908  0.1526 -0.1377
13019TIP3    H160548   2.842   1.940  11.217  0.2540  0.6772 -0.2047
13019TIP3    H260549   2.930   2.033  11.137 -0.0655  0.3175 -0.9833
13020TIP3   OH260550   2.183   2.441   3.617 -0.5091  0.5675  0.3496
13020TIP3    H160551   2.172   2.347   3.624  1.2418  0.2973  0.0631
13020TIP3    H260552   2.105   2.478   3.658 -1.2344 -0.9957  0.4427
13021TIP3   OH260553   0.920   6.546  13.504  0.8048  0.1011 -0.5130
13021TIP3    H160554   0.955   6.631  13.533  0.6743 -0.1068  0.2912
13021TIP3    H260555   0.983   6.515  13.439  1.3820  0.3590 -0.0893
13022TIP3   OH260556   3.013   0.727  12.579 -0.2292 -0.1171 -0.3560
13022TIP3    H160557   3.063   0.679  12.645 -0.3712  1.0308  0.6279
13022TIP3    H260558   3.074   0.794  12.548 -0.7267  0.4820 -0.0688
13023TIP3   OH260559   0.762   6.313   4.704 -0.5269  0.1681  0.1162
13023TIP3    H160560   0.850   6.275   4.708 -0.8322 -1.1096 -2.9461
13023TIP3    H260561   0.710   6.262   4.765  0.4983 -0.0941  0.7850
13024TIP3   OH260562   1.237   6.560   3.197  0.0828 -0.0165 -0.4307
13024TIP3    H160563   1.250   6.478   3.152  1.0628 -1.5097  2.3285
13024TIP3    H260564   1.324   6.599   3.203 -0.0783  0.3090 -0.1416
13025TIP3   OH260565   2.225   2.296   2.632  0.0894 -0.3484 -0.2541
13025TIP3    H160566   2.278   2.223   2.665 -0.9357 -1.5986 -1.2674
13025TIP3    H260567   2.140   2.285   2.674 -0.3441 -0.2724 -1.0937
13026TIP3   OH260568   6.755   2.659   1.430 -0.9661  0.0849 -0.5203
13026TIP3    H160569   6.797   2.652   1.515 -1.5229  2.2667  0.0118
13026TIP3    H260570   6.820   2.702   1.374 -1.7492  1.7630 -0.2073
13027TIP3   OH260571   4.199   0.401  15.212  0.0540 -0.5237  0.0401
13027TIP3    H160572   4.269   0.435  15.268 -0.4189  1.4318 -0.4640
13027TIP3    H260573   4.178   0.474  15.153 -1.0933 -1.7142 -1.1031
13028TIP3   OH260574   5.347   3.751  15.298 -0.6937 -0.4618 -0.1590
13028TIP3    H160575   5.328   3.677  15.241 -3.9369 -0.2332  0.3883
13028TIP3    H260576   5.291   3.737  15.375  2.6638 -0.1703  2.5576
13029TIP3   OH260577   4.975   5.231   6.442  0.2374 -0.1494 -0.2603
13029TIP3    H160578   5.059   5.240   6.486 -0.3826  0.2195  0.8917
13029TIP3    H260579   4.911   5.264   6.505 -0.9312 -1.7278 -0.5568
13030TIP3   OH260580   3.330   0.475  15.784 -0.0601 -0.2223  0.2172
13030TIP3    H160581   3.398   0.540  15.766 -0.9076  0.6030 -0.1145
13030TIP3    H260582   3.363   0.425  15.858  1.3763 -0.5359 -0.5865
13031TIP3   OH260583   1.316   0.526  15.527  0.1053 -0.1260  0.1857
13031TIP3    H160584   1.300   0.435  15.500 -1.0333  0.5570 -1.6800
13031TIP3    H260585   1.279   0.531  15.616 -3.5868 -0.5791 -1.1303
13032TIP3   OH260586   2.644   4.606   3.627  0.0421 -0.3812  0.2289
13032TIP3    H160587   2.737   4.604   3.651  0.5041  0.6119 -1.3455
13032TIP3    H260588   2.620   4.698   3.632 -0.4467 -0.4401 -0.8301
13033TIP3   OH260589   6.445   1.304   4.655 -0.5321 -0.3777  0.3286
13033TIP3    H160590   6.404   1.356   4.724 -1.3387 -1.3762  0.6411
13033TIP3    H260591   6.384   1.310   4.581  1.2837  2.3650 -1.1142
13034TIP3   OH260592   6.716   3.642  15.232 -0.1991  0.6665  0.3329
13034TIP3    H160593   6.711   3.639  15.328 -0.6536 -1.7613  0.2821
13034TIP3    H260594   6.775   3.715  15.214 -0.4784  1.4887  2.4365
13035TIP3   OH260595   2.743   1.405  15.657  0.0997 -0.3075 -0.0884
13035TIP3    H160596   2.788   1.484  15.686  1.0535 -1.0034  0.3813
13035TIP3    H260597   2.701   1.430  15.574  1.5775  0.3052 -0.6939
13036TIP3   OH260598   2.078   5.183   4.740 -0.8125 -0.0485 -0.2648
13036TIP3    H160599   2.001   5.155   4.790 -0.3064 -0.8149  0.0937
13036TIP3    H260600   2.112   5.102   4.702  1.7060 -0.2878  2.2113
13037TIP3   OH260601   0.496   4.890  16.306  0.0093  0.2247 -0.6921
13037TIP3    H160602   0.475   4.916  16.396 -1.3461 -1.7122 -0.3906
13037TIP3    H260603   0.477   4.968  16.254 -0.2180  1.0402  0.5627
13038TIP3   OH260604   2.497   4.565  15.148 -0.3907  0.5251 -0.2458
13038TIP3    H160605   2.548   4.645  15.160 -2.6064  2.0558 -0.3906
13038TIP3    H260606   2.562   4.496  15.132  1.5482  2.7118 -2.5711
13039TIP3   OH260607   0.108   2.506   5.842 -0.1266 -0.1621  0.1217
13039TIP3    H160608   0.120   2.502   5.937 -1.7226 -0.0383  0.3500
13039TIP3    H260609   0.141   2.593   5.818  0.1746 -0.1492  0.5738
13040TIP3   OH260610   5.051   0.951   4.826  0.4188  0.2364 -0.2549
13040TIP3    H160611   4.958   0.969   4.813  0.4121 -0.4639 -1.3299
13040TIP3    H260612   5.053   0.890   4.900  0.0254  0.2869 -0.1971
13041TIP3   OH260613   0.346   0.366  15.942 -0.2340  0.9823  0.2632
13041TIP3    H160614   0.294   0.287  15.957  1.1969  0.2505  1.5773
13041TIP3    H260615   0.316   0.428  16.009 -1.7363  1.8119 -1.0997
13042TIP3   OH260616   0.229   4.859  13.303 -0.1478 -0.5017  0.4029
13042TIP3    H160617   0.228   4.882  13.396  1.0536  1.2302  0.0391
13042TIP3    H260618   0.307   4.804  13.293  0.2656  0.1014  0.2672
13043TIP3   OH260619   2.631   1.507   4.807 -0.0094  0.0718  0.2757
13043TIP3    H160620   2.607   1.469   4.722 -0.2123  0.5236  0.1246
13043TIP3    H260621   2.561   1.479   4.866  0.4097 -0.6849  0.4246
13044TIP3   OH260622   5.426   0.373   5.291 -0.2479  0.4642 -0.5774
13044TIP3    H160623   5.360   0.410   5.233  1.1604  2.2041 -1.1647
13044TIP3    H260624   5.453   0.291   5.250 -1.0057  0.4615 -1.0730
13045TIP3   OH260625   6.616   4.336   5.581 -0.2014 -0.5248 -0.2754
13045TIP3    H160626   6.548   4.334   5.513  0.1539 -0.1206 -0.6521
13045TIP3    H260627   6.626   4.245   5.608  0.1893 -0.8171 -1.3293
13046TIP3   OH260628   2.158   4.783  16.842  0.1368 -0.1778  0.0105
13046TIP3    H160629   2.127   4.847  16.777  0.9200 -0.3937 -0.5887
13046TIP3    H260630   2.078   4.740  16.873 -0.3339  0.5931 -0.1039
13047TIP3   OH260631   3.065   4.327  15.364  0.1466  0.1618  0.2941
13047TIP3    H160632   3.131   4.264  15.337 -0.4514 -0.2213 -0.3009
13047TIP3    H260633   3.066   4.394  15.296  0.7694  0.8022  0.9159
13048TIP3   OH260634   6.840   0.975  11.584 -0.5522  0.2490 -0.3535
13048TIP3    H160635   6.902   0.945  11.518 -0.7924 -1.3772  0.0894
13048TIP3    H260636   6.894   1.011  11.654 -0.1108 -0.5777 -0.2454
13049TIP3   OH260637   6.131   6.466  12.513  0.0975  0.5118  0.0227
13049TIP3    H160638   6.038   6.470  12.490  0.2639  2.1297 -0.4895
13049TIP3    H260639   6.172   6.535  12.461  2.2501 -2.4720 -2.5846
13050TIP3   OH260640   6.450   0.990   2.381  0.0487 -0.2010  0.4837
13050TIP3    H160641   6.395   0.990   2.302  1.6316 -0.4566 -0.6654
13050TIP3    H260642   6.488   0.903   2.384  1.6953  0.4606  0.2671
13051TIP3   OH260643   1.324   1.515  14.952  0.0594  0.2232 -0.1883
13051TIP3    H160644   1.418   1.527  14.946 -0.1099  1.0745 -1.4780
13051TIP3    H260645   1.288   1.559  14.875 -1.4812  0.8530  0.8248
13052TIP3   OH260646   0.050   6.390  12.126  0.7038 -0.4005  0.2306
13052TIP3    H160647  -0.038   6.403  12.089  0.0728 -0.1737  1.7380
13052TIP3    H260648   0.106   6.451  12.078  0.2927 -1.3370 -1.5288
13053TIP3   OH260649   4.788   2.481   3.611 -0.1861  0.1281  0.3398
13053TIP3    H160650   4.800   2.570   3.577  2.1058 -0.3182 -0.1538
13053TIP3    H260651   4.737   2.494   3.692  0.1105  1.8924  0.2973
13054TIP3   OH260652   0.143   6.311   3.362 -0.0797 -0.0253  0.1688
13054TIP3    H160653   0.050   6.314   3.341  0.4083  1.0038 -2.1014
13054TIP3    H260654   0.151   6.360   3.444 -1.3869  0.8888 -0.2288
13055TIP3   OH260655   1.332   5.800  11.179 -0.2401  0.1111 -0.1817
13055TIP3    H160656   1.418   5.774  11.147  0.0724  1.7196 -0.7069
13055TIP3    H260657   1.344   5.810  11.274 -0.0475 -0.3960 -0.1490
13056TIP3   OH260658   1.554   6.509   2.398  0.0403 -0.5597 -0.4720
13056TIP3    H160659   1.489   6.472   2.459  0.9386 -2.1567 -0.4426
13056TIP3    H260660   1.501   6.559   2.336 -1.0171  0.0611  0.8482
13057TIP3   OH260661   1.334   0.109  13.555  0.1767  0.1207  0.3590
13057TIP3    H160662   1.375   0.031  13.592  0.2626 -0.7649 -1.5065
13057TIP3    H260663   1.380   0.182  13.598  1.1093 -0.8416  1.0603
13058TIP3   OH260664   1.850   4.648  12.502 -0.4610 -0.2508 -0.0621
13058TIP3    H160665   1.876   4.602  12.582 -2.2068 -1.8509 -0.3585
13058TIP3    H260666   1.928   4.646  12.447  0.2788 -0.5352  0.9694
13059TIP3   OH260667   2.313   2.797  12.919  0.4783 -0.0180 -0.2853
13059TIP3    H160668   2.248   2.740  12.879 -1.7445  1.0603  1.5648
13059TIP3    H260669   2.311   2.877  12.866  0.8539 -0.2449 -0.6509
13060TIP3   OH260670   2.484   6.110  12.925  0.1216 -0.0663 -0.1078
13060TIP3    H160671   2.443   6.089  13.010 -0.1569 -0.5287 -0.3503
13060TIP3    H260672   2.521   6.027  12.896  0.4977  0.1667 -0.2881
13061TIP3   OH260673   2.940   5.842  16.207  0.1906  0.0343  0.4792
13061TIP3    H160674   2.850   5.835  16.239  0.6442  1.3185  2.1576
13061TIP3    H260675   2.953   5.936  16.193  1.7201  0.0219  1.6621
13062TIP3   OH260676   3.351   6.572   6.692  0.6632  0.0318  0.8485
13062TIP3    H160677   3.445   6.586   6.681  0.4906  2.5030  1.7459
13062TIP3    H260678   3.344   6.495   6.747  2.0309 -1.6964 -1.2349
13063TIP3   OH260679   5.063   4.115  16.801  0.4670  0.1157 -0.6304
13063TIP3    H160680   5.041   4.118  16.708 -1.0418  2.0508 -0.2655
13063TIP3    H260681   5.123   4.188  16.815 -1.1263  1.3047  0.2973
13064TIP3   OH260682   5.254   5.600   5.181  0.3480 -0.0455 -0.1556
13064TIP3    H160683   5.158   5.606   5.174  0.4163 -0.7544 -3.3683
13064TIP3    H260684   5.272   5.620   5.272 -2.7598  1.4881  0.2816
13065TIP3   OH260685   3.421   1.276   2.823  0.7460 -0.2024 -0.5374
13065TIP3    H160686   3.457   1.237   2.903 -0.7998 -0.3859  0.1061
13065TIP3    H260687   3.333   1.306   2.848 -0.5715 -1.9977 -2.6202
13066TIP3   OH260688   5.342   5.550   4.929  0.0461  0.3699 -0.1980
13066TIP3    H160689   5.268   5.576   4.874  0.0289 -0.6657 -0.6689
13066TIP3    H260690   5.314   5.570   5.018  0.0687  2.0570 -0.5262
13067TIP3   OH260691   2.604   4.380  11.752  0.0272  0.0109 -0.1646
13067TIP3    H160692   2.544   4.318  11.794 -0.4480  0.4287 -0.2182
13067TIP3    H260693   2.551   4.423  11.685  0.6499 -0.2939 -0.8634
13068TIP3   OH260694   3.276   5.462   1.833 -0.7541  0.1760 -0.3316
13068TIP3    H160695   3.205   5.522   1.811 -0.5840  1.6917  2.6401
13068TIP3    H260696   3.290   5.475   1.927  2.4526 -1.1701 -0.4792
13069TIP3   OH260697   6.305   4.837   1.845  0.3019  0.6218  0.1877
13069TIP3    H160698   6.384   4.783   1.836 -0.7192 -1.0065  0.5517
13069TIP3    H260699   6.243   4.798   1.784 -1.5606 -0.7508  2.7577
13070TIP3   OH260700   1.396   2.064   4.559  0.0752  1.1897  0.6028
13070TIP3    H160701   1.442   2.102   4.633 -0.6835  0.1376  1.6412
13070TIP3    H260702   1.304   2.064   4.585  0.0838 -2.0280  1.0221
13071TIP3   OH260703   5.855   6.555  13.559 -0.0327  0.3589  0.7777
13071TIP3    H160704   5.843   6.461  13.574 -3.0476  0.9513  3.1931
13071TIP3    H260705   5.943   6.573  13.590  0.7539 -1.6689 -0.0806
13072TIP3   OH260706   2.304   6.250   5.900 -0.1223 -0.2218 -0.1407
13072TIP3    H160707   2.328   6.179   5.960  2.5086 -2.4257 -3.4226
13072TIP3    H260708   2.345   6.328   5.938 -0.5624 -0.9912  2.0646
13073TIP3   OH260709   3.630   1.790   0.867  0.1113 -0.6313 -0.4431
13073TIP3    H160710   3.695   1.740   0.818  1.2124  0.6251 -0.3380
13073TIP3    H260711   3.627   1.875   0.823 -0.0645 -0.0316  0.6750
13074TIP3   OH260712   4.786   1.648   4.955 -0.1472  0.1647 -0.7148
13074TIP3    H160713   4.859   1.586   4.962  0.0465  0.1000 -2.7556
13074TIP3    H260714   4.712   1.595   4.926 -0.6681  0.4826 -0.0109
13075TIP3   OH260715   0.946   5.817   0.250 -0.5336  0.0149 -0.2461
13075TIP3    H160716   0.932   5.792   0.341 -1.1513  0.9115 -0.0825
13075TIP3    H260717   1.040   5.811   0.237 -0.5442 -1.2020  0.1211
13076TIP3   OH260718   6.306   0.261   0.941 -0.0692 -0.1959 -0.4943
13076TIP3    H160719   6.400   0.258   0.923 -0.0036 -0.6350 -0.1133
13076TIP3    H260720   6.277   0.345   0.907  0.3453 -0.3256 -1.1811
13077TIP3   OH260721   5.003   3.046  14.214 -0.1259  0.4809 -0.8224
13077TIP3    H160722   5.073   3.097  14.255 -0.4077  1.5004 -1.5583
13077TIP3    H260723   5.047   2.968  14.181  0.1737 -0.1735  1.0295
13078TIP3   OH260724   2.913   4.765   0.498 -0.4380 -0.4027  0.1489
13078TIP3    H160725   2.950   4.805   0.576 -1.1598 -1.0575  0.8417
13078TIP3    H260726   2.971   4.691   0.480  0.1814  0.2017 -0.4114
13079TIP3   OH260727   1.077   6.443  16.839  0.3192  0.4511 -0.1784
13079TIP3    H160728   1.049   6.372  16.897 -1.2669  0.7741 -0.5029
13079TIP3    H260729   0.996   6.480  16.805  1.0838  2.7660  0.3665
13080TIP3   OH260730   5.924   0.741   4.096 -0.1548 -0.3373 -0.6204
13080TIP3    H160731   5.920   0.802   4.170 -1.1248 -1.1370  0.0203
13080TIP3    H260732   5.962   0.792   4.024 -1.5534  1.2183 -0.3058
13081TIP3   OH260733   5.639   1.832   4.592  0.1015 -0.4351 -0.1293
13081TIP3    H160734   5.600   1.772   4.657 -1.1198 -1.6000 -1.8516
13081TIP3    H260735   5.724   1.793   4.574 -0.7751 -1.8816 -1.4106
13082TIP3   OH260736   2.833   2.559   3.123 -0.4227  0.0130  0.1452
13082TIP3    H160737   2.855   2.486   3.065 -0.9690  0.5810 -0.8066
13082TIP3    H260738   2.757   2.600   3.082 -1.2115  0.0803  1.5907
13083TIP3   OH260739   5.214   3.413   1.734  0.0805  0.2904  0.2548
13083TIP3    H160740   5.181   3.383   1.649  2.1818  0.0423 -0.5308
13083TIP3    H260741   5.168   3.496   1.750 -0.8127  0.0190 -0.8056
13084TIP3   OH260742   6.830   3.480   3.645 -0.0178 -0.1829  0.4926
13084TIP3    H160743   6.795   3.568   3.656  0.1997  0.2325 -1.7074
13084TIP3    H260744   6.923   3.488   3.668  0.3026  0.5023 -0.9354
13085TIP3   OH260745   1.675   3.986   5.418  0.0248  0.1662 -0.2580
13085TIP3    H160746   1.663   3.893   5.399  1.8075 -0.1658  0.0456
13085TIP3    H260747   1.682   4.028   5.332 -0.0121 -0.0979 -0.3888
13086TIP3   OH260748   1.266   4.346   0.650  0.0581 -1.1109  0.6473
13086TIP3    H160749   1.244   4.255   0.667 -4.0260 -0.2395  1.0312
13086TIP3    H260750   1.209   4.397   0.707 -1.5398  1.7057 -3.0145
13087TIP3   OH260751   2.499   2.842   5.928  0.2820  0.3143  0.1494
13087TIP3    H160752   2.444   2.776   5.886  0.6403  0.7350 -1.0184
13087TIP3    H260753   2.447   2.872   6.003  0.1224 -1.2744  0.7062
13088TIP3   OH260754   6.450   3.160  16.295 -0.3555 -0.5133 -0.5022
13088TIP3    H160755   6.436   3.088  16.233  0.8630 -1.8792  0.7240
13088TIP3    H260756   6.473   3.117  16.377 -0.4348  1.2806  0.5135
13089TIP3   OH260757   2.029   2.925   1.061 -0.3267  0.0500 -0.0191
13089TIP3    H160758   2.010   2.833   1.038 -0.5668  0.3728 -1.1711
13089TIP3    H260759   2.111   2.921   1.110  1.0651 -0.5695 -2.2481
13090TIP3   OH260760   2.048   6.841  15.920 -0.5012 -0.0669  0.1549
13090TIP3    H160761   1.960   6.823  15.887  0.4882 -1.1056 -2.1590
13090TIP3    H260762   2.052   6.937  15.925 -1.0999  0.1280 -1.8397
13091TIP3   OH260763   2.626   5.001  12.706  0.0431 -0.5630 -0.6150
13091TIP3    H160764   2.686   5.050  12.763  0.7535 -0.9416 -1.0115
13091TIP3    H260765   2.596   5.064  12.642 -1.1369 -0.0107  0.4347
13092TIP3   OH260766   4.899   5.683  11.684 -0.4292  0.1066 -0.0560
13092TIP3    H160767   4.909   5.589  11.666 -0.1537 -0.2900  1.8930
13092TIP3    H260768   4.915   5.726  11.600 -1.7910 -1.6451 -1.2806
13093TIP3   OH260769   3.090   1.372   4.705 -0.2442 -0.0934 -0.0558
13093TIP3    H160770   3.181   1.396   4.720  0.0404 -0.0013 -1.7255
13093TIP3    H260771   3.094   1.285   4.665 -0.9000 -0.1371 -0.0483
13094TIP3   OH260772   1.915   5.081  14.327  0.6192 -0.5598 -0.0332
13094TIP3    H160773   1.979   5.124  14.269  1.1388 -0.2732  0.7335
13094TIP3    H260774   1.871   5.017  14.271  0.1434  0.6593 -1.1023
13095TIP3   OH260775   2.496   2.142  12.975 -0.1122 -0.8847 -0.0456
13095TIP3    H160776   2.586   2.128  12.943  0.8136 -0.5798  2.2128
13095TIP3    H260777   2.447   2.170  12.897  1.8986 -0.4220 -1.2275
13096TIP3   OH260778   6.761   1.725   5.589 -0.0614  0.0971  0.3437
13096TIP3    H160779   6.824   1.682   5.531  0.5244  0.5195  0.6544
13096TIP3    H260780   6.813   1.752   5.665 -0.8692 -0.6816  1.1854
13097TIP3   OH260781   6.559   2.146   4.816 -0.1827  0.3356  0.2369
13097TIP3    H160782   6.589   2.132   4.906  1.4384  2.8830  0.1691
13097TIP3    H260783   6.588   2.234   4.794  0.7804 -0.7158 -3.3025
13098TIP3   OH260784   4.884   2.682  15.658 -0.1067  0.5549 -0.0365
13098TIP3    H160785   4.842   2.711  15.739 -3.1407 -0.4128 -1.1390
13098TIP3    H260786   4.894   2.762  15.606 -0.7899  0.7824  0.1789
13099TIP3   OH260787   2.718   5.564  16.525  0.4291 -0.1429 -0.3082
13099TIP3    H160788   2.720   5.468  16.525  0.5472 -0.1421 -0.8544
13099TIP3    H260789   2.749   5.589  16.612  0.2668 -0.6040 -0.1165
13100TIP3   OH260790   2.155   6.856  15.299 -0.2965  0.1869  0.0812
13100TIP3    H160791   2.177   6.813  15.382  1.0128 -3.9119 -2.1421
13100TIP3    H260792   2.072   6.817  15.273  0.2766 -0.0871 -1.4247
13101TIP3   OH260793   6.725   0.015  15.597  0.4154 -0.1265  0.0190
13101TIP3    H160794   6.650   0.072  15.580  0.9098  0.5108 -0.0814
13101TIP3    H260795   6.775   0.015  15.515  0.3777 -0.7750 -0.0068
13102TIP3   OH260796   3.958   2.820  13.084  0.1983  0.0879  0.0131
13102TIP3    H160797   3.904   2.882  13.132 -0.5726 -0.7430  0.2557
13102TIP3    H260798   3.993   2.870  13.010  1.1762  1.3164  1.2446
13103TIP3   OH260799   4.296   1.273   1.919 -0.1067 -0.3884  0.0738
13103TIP3    H160800   4.240   1.208   1.877 -2.3107  1.9139 -0.8066
13103TIP3    H260801   4.369   1.284   1.858 -0.8862 -0.4438 -0.9011
13104TIP3   OH260802   1.973   6.299  11.541  0.1644  0.8242 -0.4696
13104TIP3    H160803   1.956   6.368  11.477 -1.7194  0.6014 -0.2696
13104TIP3    H260804   1.888   6.284  11.583  0.3645 -1.9338 -0.8501
13105TIP3   OH260805   3.827   3.547   3.747 -0.2893 -0.0836  0.3680
13105TIP3    H160806   3.891   3.482   3.774  0.5606  0.7118  0.3347
13105TIP3    H260807   3.773   3.562   3.824  0.1872 -0.0567  0.6992
13106TIP3   OH260808   4.953   2.447  13.305  0.1751 -0.4670 -0.1214
13106TIP3    H160809   5.012   2.372  13.315 -0.6373 -1.1309 -0.1824
13106TIP3    H260810   4.935   2.476  13.394  1.7808  0.7170 -0.1388
13107TIP3   OH260811   1.270   3.195   6.604 -0.0169  0.6913  0.5516
13107TIP3    H160812   1.248   3.276   6.649  0.7344  1.2378 -0.0243
13107TIP3    H260813   1.353   3.214   6.560  0.5177 -0.6118  0.9542
13108TIP3   OH260814   4.731   4.293  16.615 -0.8950 -0.2422  0.3202
13108TIP3    H160815   4.739   4.315  16.708  1.6447 -0.3845  0.2231
13108TIP3    H260816   4.695   4.371  16.574  0.8216  0.9904  1.0449
13109TIP3   OH260817   2.981   1.584   3.922  0.3210  0.2462 -0.4443
13109TIP3    H160818   2.945   1.597   4.009 -1.0250  1.0498 -1.0704
13109TIP3    H260819   3.046   1.515   3.931  1.6133  1.6182  1.5471
13110TIP3   OH260820   4.613   3.075   9.888  0.2344  0.5870  0.0920
13110TIP3    H160821   4.530   3.063   9.841  0.2654  0.5702  0.0411
13110TIP3    H260822   4.588   3.112   9.972  0.2025  0.8885 -0.0487
13111TIP3   OH260823   4.057   6.694   5.159  0.2259 -0.1899 -0.5364
13111TIP3    H160824   4.054   6.751   5.083 -3.8211  1.3674  0.4801
13111TIP3    H260825   4.096   6.747   5.228  0.3076 -0.1608 -0.6062
13112TIP3   OH260826   5.348   4.207  13.686 -0.3107 -0.2735 -0.1484
13112TIP3    H160827   5.320   4.242  13.602 -2.0589  1.1269  0.9467
13112TIP3    H260828   5.391   4.281  13.729  1.8997 -1.3778 -0.3230
13113TIP3   OH260829   6.354   4.015   1.199  0.0528  0.0029  0.5310
13113TIP3    H160830   6.306   3.934   1.183  0.1711  0.1842 -0.9009
13113TIP3    H260831   6.416   3.993   1.269 -0.6436 -0.8222  0.9107
13114TIP3   OH260832   2.507   0.456  14.598  0.0429  0.2006 -0.6271
13114TIP3    H160833   2.515   0.516  14.524 -1.5274 -0.3282 -1.2803
13114TIP3    H260834   2.557   0.379  14.573 -0.1166  0.2007 -0.9439
13115TIP3   OH260835   3.865   1.115  16.533 -0.3002  0.0540  0.5710
13115TIP3    H160836   3.940   1.150  16.582 -0.3787  0.8659  0.1381
13115TIP3    H260837   3.882   1.142  16.442 -0.8744 -0.1811  0.3908
13116TIP3   OH260838   5.778   5.511  13.799  0.2618 -0.2460  0.2250
13116TIP3    H160839   5.698   5.478  13.759 -0.8704  2.0159  0.4774
13116TIP3    H260840   5.782   5.468  13.885 -1.2926  0.4413  0.6667
13117TIP3   OH260841   5.866   3.961   4.255 -0.2171  0.1505  0.3334
13117TIP3    H160842   5.800   4.007   4.308  0.4123  1.1337  0.2938
13117TIP3    H260843   5.823   3.944   4.172 -1.1713 -1.2711  1.0663
13118TIP3   OH260844   5.349   3.270  13.536 -0.2184 -0.3300  0.6190
13118TIP3    H160845   5.414   3.340  13.538  1.2622 -1.6312 -0.1317
13118TIP3    H260846   5.278   3.305  13.482  0.9917  0.2055 -0.6884
13119TIP3   OH260847   0.046   4.669  16.839  0.4330  0.2320 -0.4584
13119TIP3    H160848  -0.037   4.645  16.881  0.3021  0.7648 -0.4136
13119TIP3    H260849   0.094   4.717  16.906  0.5930  0.3140 -0.6313
13120TIP3   OH260850   0.351   0.524  12.974 -0.1672  0.4312  1.0317
13120TIP3    H160851   0.445   0.511  12.968 -0.1871 -0.8611  2.7470
13120TIP3    H260852   0.333   0.530  13.068 -1.9795 -1.0644  0.8371
13121TIP3   OH260853   0.890   1.094   0.696  0.1099  0.2213 -0.2274
13121TIP3    H160854   0.968   1.068   0.646  2.2401  0.6931  2.5680
13121TIP3    H260855   0.853   1.167   0.647  0.7686 -0.7014 -2.1960
13122TIP3   OH260856   1.593   5.629  12.280 -0.1968 -0.1851  0.6120
13122TIP3    H160857   1.648   5.677  12.218 -1.1021 -2.4907 -2.2145
13122TIP3    H260858   1.504   5.658  12.260 -0.5144 -1.0569  0.7198
13123TIP3   OH260859   2.267   1.492   5.564  0.4743 -0.2068 -1.0496
13123TIP3    H160860   2.272   1.565   5.502  3.1048  1.0366  0.5057
13123TIP3    H260861   2.325   1.426   5.527 -0.7673 -0.9820 -1.6919
13124TIP3   OH260862   1.790   3.216   3.012  0.0492  0.0774  0.6992
13124TIP3    H160863   1.808   3.139   2.958 -1.1991 -0.4522  1.0028
13124TIP3    H260864   1.719   3.189   3.070  0.8692  0.8564  2.1255
13125TIP3   OH260865   0.227   0.819   0.777  0.4168  0.2778 -0.3992
13125TIP3    H160866   0.189   0.886   0.835  0.4057  0.1205 -0.2232
13125TIP3    H260867   0.308   0.793   0.821  0.6120  0.4469 -0.6598
13126TIP3   OH260868   4.040   5.369   2.833 -0.1599  0.1858 -0.1905
13126TIP3    H160869   4.030   5.448   2.886  0.4299 -0.2017  0.5142
13126TIP3    H260870   4.125   5.334   2.858 -0.2882 -0.5186 -0.7137
13127TIP3   OH260871   6.634   5.581   2.394  0.1764 -0.5282 -0.8979
13127TIP3    H160872   6.613   5.562   2.486 -0.1596 -0.2627 -0.9149
13127TIP3    H260873   6.572   5.651   2.370  0.0971 -0.7672 -1.3964
13128TIP3   OH260874   0.970   0.709  14.655  0.1892  0.1462  0.4045
13128TIP3    H160875   0.883   0.749  14.657  0.1172 -0.0217  2.1252
13128TIP3    H260876   1.016   0.745  14.730  0.5082 -2.0877  1.3765
13129TIP3   OH260877   1.977   5.024   4.522 -0.7975  0.4001 -0.1124
13129TIP3    H160878   1.921   5.081   4.470 -0.2836  1.2032  0.1989
13129TIP3    H260879   2.048   4.999   4.462 -0.5448  0.8098  0.0175
13130TIP3   OH260880   1.158   5.116   0.779  0.4896 -0.4667  0.3393
13130TIP3    H160881   1.082   5.158   0.738 -0.0475 -0.0123  1.7428
13130TIP3    H260882   1.210   5.084   0.705 -1.0059 -0.7007 -0.6562
13131TIP3   OH260883   0.843   0.853  15.994 -0.2161 -0.5337 -0.7421
13131TIP3    H160884   0.829   0.800  15.915 -0.0571  1.9356 -2.5690
13131TIP3    H260885   0.800   0.936  15.974 -0.1387  0.1905  1.8166
13132TIP3   OH260886   5.749   0.230   6.044 -0.5246  0.7250  0.5240
13132TIP3    H160887   5.762   0.251   6.137  0.0767 -0.5886  0.7645
13132TIP3    H260888   5.837   0.207   6.012 -0.8968  0.0545 -0.0663
13133TIP3   OH260889   5.621   0.044   0.113 -0.3317  0.1459  0.6430
13133TIP3    H160890   5.600   0.134   0.089 -1.1395 -0.4388 -0.9786
13133TIP3    H260891   5.546   0.015   0.164 -1.8750 -0.7067 -1.9063
13134TIP3   OH260892   0.463   4.646  16.776 -0.5028 -0.5894 -0.4214
13134TIP3    H160893   0.451   4.562  16.732 -0.2708 -0.5213 -0.6147
13134TIP3    H260894   0.438   4.711  16.710  0.7113 -0.4487 -0.7641
13135TIP3   OH260895   1.883   1.646   4.751 -0.2053 -0.0589  0.1145
13135TIP3    H160896   1.885   1.680   4.661  0.9351  1.4373  0.6565
13135TIP3    H260897   1.817   1.577   4.749 -0.5197  0.2321 -1.7675
13136TIP3   OH260898   3.948   6.749  16.146 -0.2918  0.0247 -0.1975
13136TIP3    H160899   3.968   6.671  16.095 -0.1294 -1.9373  2.6481
13136TIP3    H260900   3.890   6.718  16.216 -1.6039  2.8066  0.0911
13137TIP3   OH260901   0.283   0.044   0.655 -0.1873  0.4851  0.1277
13137TIP3    H160902   0.316   0.090   0.578  0.7599 -0.0473  0.1870
13137TIP3    H260903   0.190   0.030   0.638 -0.2638  1.4847 -0.3414
13138TIP3   OH260904   5.191   2.432   3.040  0.9482  0.2040 -0.0555
13138TIP3    H160905   5.106   2.395   3.064  0.3831  1.7693  0.4528
13138TIP3    H260906   5.239   2.437   3.123  0.3854  2.1385  0.1893
13139TIP3   OH260907   2.420   0.509  12.693 -0.0333  0.9970  0.0283
13139TIP3    H160908   2.413   0.426  12.739  1.1752  0.6128 -0.4227
13139TIP3    H260909   2.330   0.535  12.675 -0.4576 -1.3136 -1.7034
13140TIP3   OH260910   4.762   0.072   3.534  0.5694  0.2965 -0.1212
13140TIP3    H160911   4.791   0.160   3.511  3.6512 -0.6976 -0.5583
13140TIP3    H260912   4.817   0.047   3.608 -0.3309 -1.2287  0.0736
13141TIP3   OH260913   2.372   5.567   6.120 -0.8670 -0.1525 -0.4400
13141TIP3    H160914   2.342   5.536   6.206  2.6071 -2.3678  0.1837
13141TIP3    H260915   2.405   5.655   6.138  1.5424 -1.2590  1.0803
13142TIP3   OH260916   4.482   3.637  16.310 -0.5027  0.2691 -0.0038
13142TIP3    H160917   4.451   3.723  16.340 -0.6479 -0.4865  2.2060
13142TIP3    H260918   4.405   3.596  16.272 -1.4250 -0.2145  2.2224
13143TIP3   OH260919   4.241   2.593  10.239 -0.5850  0.1896 -0.4804
13143TIP3    H160920   4.218   2.537  10.165 -0.1963  0.7701 -1.0501
13143TIP3    H260921   4.188   2.559  10.312  0.3120 -1.5050 -0.5642
13144TIP3   OH260922   1.405   3.920   3.554  0.6905  0.0466  0.6279
13144TIP3    H160923   1.420   4.012   3.576 -2.7298  0.4722  1.6307
13144TIP3    H260924   1.425   3.914   3.460 -1.0972  2.3746  0.0313
13145TIP3   OH260925   6.608   6.056  15.791 -0.3852  0.0255  0.4724
13145TIP3    H160926   6.638   6.064  15.700  0.1115 -3.5023  0.1833
13145TIP3    H260927   6.671   6.106  15.842 -0.0900  1.2278 -1.0119
13146TIP3   OH260928   2.042   1.530   0.072 -0.3105  0.5325 -0.0774
13146TIP3    H160929   2.060   1.442   0.105  1.1502  0.0836 -1.9020
13146TIP3    H260930   2.013   1.516  -0.018 -1.0795  1.8658 -0.0461
13147TIP3   OH260931   5.871   0.480   4.231 -0.5682  0.0691 -0.7353
13147TIP3    H160932   5.941   0.437   4.181  1.4746 -0.7369  2.5014
13147TIP3    H260933   5.869   0.570   4.197  2.5334  0.3014 -0.6235
13148TIP3   OH260934   4.599   3.069   2.436 -0.2768  0.1588 -0.8296
13148TIP3    H160935   4.667   3.133   2.458 -0.5689  0.6243 -1.2646
13148TIP3    H260936   4.535   3.118   2.385 -0.5404 -0.4655 -1.1153
13149TIP3   OH260937   5.488   2.520  12.196 -0.3985  0.4162 -0.6183
13149TIP3    H160938   5.466   2.473  12.116 -2.8887 -0.3511  0.4313
13149TIP3    H260939   5.407   2.563  12.222  0.8040  2.0870  0.5897
13150TIP3   OH260940   0.797   3.988  11.335 -0.4101  0.0863  0.0622
13150TIP3    H160941   0.757   3.922  11.279 -3.7545  1.5193  0.4998
13150TIP3    H260942   0.797   4.068  11.282 -0.6350  0.7324  1.0007
13151TIP3   OH260943   1.898   6.654   1.666  0.4424 -0.2037 -0.4355
13151TIP3    H160944   1.956   6.703   1.723  2.0126 -1.5866 -0.7665
13151TIP3    H260945   1.928   6.673   1.578 -0.9968  0.7223 -0.7588
13152TIP3   OH260946   4.265   0.411  14.415 -0.2212  0.1033 -0.0130
13152TIP3    H160947   4.320   0.360  14.475 -0.7417  0.3448  0.6780
13152TIP3    H260948   4.187   0.431  14.465 -0.2113  1.2363 -0.4214
13153TIP3   OH260949   5.562   0.912  15.274  0.1766  0.1343  0.0088
13153TIP3    H160950   5.581   0.845  15.208  0.3469  1.3126 -1.1778
13153TIP3    H260951   5.644   0.962  15.282 -0.1513  0.6201  0.3736
13154TIP3   OH260952   1.483   1.705  13.101  0.4894  0.0612 -0.0057
13154TIP3    H160953   1.389   1.690  13.084  0.7143 -1.8207  0.1623
13154TIP3    H260954   1.507   1.775  13.041 -1.2425  1.2946  0.6570
13155TIP3   OH260955   0.942   5.867  11.509  0.1356 -0.6359  0.4610
13155TIP3    H160956   0.850   5.879  11.533  0.2050  0.4620  0.2425
13155TIP3    H260957   0.950   5.774  11.489 -0.9614 -0.7171  0.3395
13156TIP3   OH260958   1.176   0.187   4.993 -0.5091  0.1225  0.8259
13156TIP3    H160959   1.092   0.213   5.031 -0.3518  0.9631  0.6211
13156TIP3    H260960   1.240   0.243   5.037 -0.0600 -0.4848  0.9489
13157TIP3   OH260961   4.322   5.956  16.385  0.2264  0.6008 -0.0785
13157TIP3    H160962   4.243   5.914  16.418  0.6584 -0.8428 -0.7794
13157TIP3    H260963   4.307   5.964  16.291  1.8702 -2.0859 -0.6849
13158TIP3   OH260964   5.841   1.669   0.939  0.1386 -0.7859 -0.2204
13158TIP3    H160965   5.934   1.665   0.917  0.4876  2.2679  0.1609
13158TIP3    H260966   5.832   1.611   1.015  2.3110  0.5797  1.2230
13159TIP3   OH260967   5.269   5.657  11.838  0.1132 -0.3403 -0.4027
13159TIP3    H160968   5.193   5.690  11.887  0.1094  1.0230 -1.2633
13159TIP3    H260969   5.280   5.720  11.766  1.8817 -0.6776 -0.4747
13160TIP3   OH260970   5.523   1.986   0.709  0.3803  0.1118  0.3202
13160TIP3    H160971   5.536   1.959   0.800 -0.9103 -0.4197  0.3746
13160TIP3    H260972   5.428   1.992   0.699  0.4957  0.0600 -1.0209
13161TIP3   OH260973   5.638   5.710   1.372 -0.7315 -0.0640  0.1080
13161TIP3    H160974   5.554   5.690   1.330 -0.2422 -1.4493 -0.2939
13161TIP3    H260975   5.630   5.672   1.460 -0.3541 -0.6752 -0.1145
13162TIP3   OH260976   1.192   6.249   6.490  0.0435  0.3599 -0.1181
13162TIP3    H160977   1.114   6.284   6.448 -1.6622 -1.3877  1.3981
13162TIP3    H260978   1.175   6.155   6.499  0.9866  0.3509  2.8479
13163TIP3   OH260979   1.800   6.083   0.516  0.7820  0.1900  0.1433
13163TIP3    H160980   1.796   6.178   0.509 -0.1501  0.0942 -0.7738
13163TIP3    H260981   1.716   6.059   0.556  0.0349 -0.4074 -1.7050
13164TIP3   OH260982   3.247   1.334  15.075 -0.1519 -0.2615 -0.8061
13164TIP3    H160983   3.204   1.352  14.992 -0.9766 -0.0072 -0.3318
13164TIP3    H260984   3.184   1.362  15.142 -0.1416 -1.9085 -0.0676
13165TIP3   OH260985   2.573   6.342  10.546 -0.0612  0.2195  0.4420
13165TIP3    H160986   2.626   6.263  10.535 -0.6723 -0.2084  0.5199
13165TIP3    H260987   2.635   6.409  10.575  0.3887 -0.3446  0.7936
13166TIP3   OH260988   6.303   5.653  11.940 -0.1181 -0.2823  0.1098
13166TIP3    H160989   6.263   5.713  12.002  0.9534 -0.2597  0.8072
13166TIP3    H260990   6.250   5.574  11.944 -2.0586  0.8527 -1.4374
13167TIP3   OH260991   0.315   3.453  11.738 -0.4497 -0.4309  0.0752
13167TIP3    H160992   0.277   3.366  11.750  0.1484 -0.7042  0.0407
13167TIP3    H260993   0.380   3.461  11.808  0.5641 -0.6265 -0.8243
13168TIP3   OH260994   5.663   6.778   5.022 -0.3952 -0.3861 -0.4044
13168TIP3    H160995   5.664   6.683   5.033  0.5778 -0.4862 -1.1667
13168TIP3    H260996   5.674   6.791   4.928 -1.4944  0.4802 -0.4295
13169TIP3   OH260997   5.761   5.588   5.128 -0.1878 -0.5074  0.6225
13169TIP3    H160998   5.704   5.624   5.196 -0.5449 -0.5354  0.3375
13169TIP3    H260999   5.726   5.621   5.046  1.2248  0.8797  0.5284
13170TIP3   OH261000   6.204   4.102   1.989 -0.3610  0.4007 -0.1478
13170TIP3    H161001   6.296   4.108   1.967 -0.3129 -1.0784 -0.4532
13170TIP3    H261002   6.203   4.081   2.083 -0.3445 -0.5688 -0.3564
13171TIP3   OH261003   1.879   6.693   5.004  0.1234 -0.4565 -0.8014
13171TIP3    H161004   1.836   6.686   5.090  0.4815  1.9697 -0.3419
13171TIP3    H261005   1.806   6.696   4.942 -0.1291 -2.7493 -0.7028
13172TIP3   OH261006   6.039   0.220  12.733  0.0789  0.2090  0.6515
13172TIP3    H161007   6.099   0.162  12.779  0.0758  0.1583  0.5910
13172TIP3    H261008   5.959   0.217  12.786 -0.3179 -0.7429  0.0233
13173TIP3   OH261009   2.689   0.768  11.773  0.4395 -0.3710 -0.6930
13173TIP3    H161010   2.782   0.782  11.786  0.4635 -0.8363 -0.3207
13173TIP3    H261011   2.665   0.825  11.700  0.9197  0.0837 -0.4947
13174TIP3   OH261012   1.377   1.263   3.038  0.7416 -0.0336  0.0578
13174TIP3    H161013   1.401   1.295   2.951  0.2885  1.4055  0.4314
13174TIP3    H261014   1.340   1.339   3.082 -0.7429 -1.1837  0.8899
13175TIP3   OH261015   6.660   1.972   5.584 -0.7707 -0.4390  0.2618
13175TIP3    H161016   6.691   2.038   5.645  0.7852 -1.5122  0.6841
13175TIP3    H261017   6.685   1.889   5.623  0.5361 -1.1672 -1.9072
13176TIP3   OH261018   5.705   5.213   4.872  0.1437  0.2803  0.2011
13176TIP3    H161019   5.634   5.161   4.910 -0.0757  0.7135  0.3929
13176TIP3    H261020   5.666   5.299   4.854  0.1168 -0.0539 -1.4676
13177TIP3   OH261021   2.849   5.816  15.076  0.1461  0.6836  0.6021
13177TIP3    H161022   2.882   5.897  15.116 -3.2142  1.0310  3.0841
13177TIP3    H261023   2.913   5.749  15.100  1.7588  2.1371  0.5491
13178TIP3   OH261024   0.973   5.291   6.840 -0.2399 -0.4739 -0.4223
13178TIP3    H161025   1.038   5.221   6.831 -0.5126 -0.9187  0.8540
13178TIP3    H261026   1.023   5.372   6.827  0.7063 -0.7793  0.9859
13179TIP3   OH261027   0.236   3.746   4.231  0.1423  0.3097  0.3819
13179TIP3    H161028   0.296   3.777   4.299  1.1229 -0.5964 -0.0375
13179TIP3    H261029   0.256   3.799   4.154  0.3582  0.0525  0.2602
13180TIP3   OH261030   1.176   6.414  16.469  0.3906 -0.1333 -0.0656
13180TIP3    H161031   1.229   6.360  16.528 -1.1478 -0.4476  1.0785
13180TIP3    H261032   1.128   6.350  16.416 -0.1300  0.1251  0.0905
13181TIP3   OH261033   2.022   5.525   5.379  0.0594 -0.5669  0.1492
13181TIP3    H161034   2.038   5.558   5.467  0.5701 -1.6200  0.4687
13181TIP3    H261035   1.987   5.600   5.331  0.0139  0.0848  1.1744
13182TIP3   OH261036   0.179   4.406   5.006 -0.1678  0.3606 -0.0111
13182TIP3    H161037   0.202   4.359   4.926  0.0891 -0.0688  0.3123
13182TIP3    H261038   0.113   4.351   5.048  0.7735 -0.1824  0.8133
13183TIP3   OH261039   1.134   5.364   4.501  0.1914  0.0116 -0.1227
13183TIP3    H161040   1.094   5.366   4.414 -1.4131 -0.7571  0.5563
13183TIP3    H261041   1.117   5.452   4.536 -1.1577 -0.3626  0.2324
13184TIP3   OH261042   3.516   3.102   1.888 -0.0040  0.2651 -0.0244
13184TIP3    H161043   3.583   3.051   1.842 -0.4711  0.1388 -0.5894
13184TIP3    H261044   3.503   3.179   1.833 -0.3001  0.3011  0.0922
13185TIP3   OH261045   5.562   0.461  14.060 -0.1270  0.0396 -0.3553
13185TIP3    H161046   5.518   0.526  14.115  0.4034  1.8919 -2.0170
13185TIP3    H261047   5.655   0.483  14.065  0.1508 -1.0433 -0.4101
13186TIP3   OH261048   6.330   2.114   1.279  0.0482 -0.1860 -0.1164
13186TIP3    H161049   6.383   2.045   1.319  2.1125  1.2197 -0.2323
13186TIP3    H261050   6.337   2.188   1.339 -2.4452 -0.1221  0.2109
13187TIP3   OH261051   1.222   5.269   3.454 -0.1860 -0.0257 -0.2634
13187TIP3    H161052   1.285   5.232   3.517 -0.0998  0.2857 -0.1680
13187TIP3    H261053   1.137   5.237   3.484  0.0487 -1.7177 -1.2597
13188TIP3   OH261054   5.762   3.026  10.944 -0.0094  0.0546  0.2522
13188TIP3    H161055   5.747   2.962  10.875 -1.6626  0.5662  0.0728
13188TIP3    H261056   5.776   3.109  10.898  1.2499 -0.0066  0.4976
13189TIP3   OH261057   5.365   4.865   2.102  0.7943 -0.2055 -0.1793
13189TIP3    H161058   5.356   4.835   2.192 -1.5309 -0.6901 -0.4787
13189TIP3    H261059   5.386   4.785   2.053  2.8542  0.1925 -0.0185
13190TIP3   OH261060   5.172   1.171  13.879 -0.1206 -0.1384  0.4104
13190TIP3    H161061   5.160   1.092  13.826 -1.7947  0.2229  0.1964
13190TIP3    H261062   5.116   1.157  13.955 -0.2995  0.7716  0.4535
13191TIP3   OH261063   6.345   0.750   2.728 -0.2178  0.2979 -0.4948
13191TIP3    H161064   6.252   0.752   2.750 -0.1561  1.1293 -0.2843
13191TIP3    H261065   6.346   0.746   2.632 -0.4668 -0.8403 -0.4635
13192TIP3   OH261066   5.189   4.805  15.762 -0.1344  0.3207 -0.7541
13192TIP3    H161067   5.157   4.776  15.677  1.3467  1.2157 -1.6424
13192TIP3    H261068   5.249   4.736  15.790 -0.3510  0.2001 -0.5727
13193TIP3   OH261069   5.517   5.225   4.457  0.2157 -0.3311  0.2058
13193TIP3    H161070   5.509   5.162   4.385 -0.7575 -2.1649  1.8296
13193TIP3    H261071   5.430   5.265   4.462  0.2300 -0.3391  0.4793
13194TIP3   OH261072   2.445   5.582  14.645 -0.0309 -0.1824 -0.4125
13194TIP3    H161073   2.435   5.491  14.672 -0.9095  0.3200  1.0642
13194TIP3    H261074   2.450   5.631  14.727  3.4084  0.8515 -1.1086
13195TIP3   OH261075   1.197   5.972  12.539 -0.3952  0.7610  0.1692
13195TIP3    H161076   1.178   5.880  12.556 -3.1689  1.2581  0.2046
13195TIP3    H261077   1.290   5.981  12.560 -0.2357 -1.8336  0.9644
13196TIP3   OH261078   4.207   1.551  12.368 -0.6347 -0.1335  0.3497
13196TIP3    H161079   4.119   1.514  12.361 -0.3361 -0.5011 -3.0151
13196TIP3    H261080   4.256   1.511  12.296  1.4992  2.1243  0.4206
13197TIP3   OH261081   2.836   0.203   4.374 -0.2501 -0.0467  0.0554
13197TIP3    H161082   2.771   0.270   4.352  1.4609  1.1719 -1.6088
13197TIP3    H261083   2.866   0.227   4.462 -1.8096 -0.4988  0.7587
13198TIP3   OH261084   2.631   5.220  10.727 -0.0272  0.1300  0.2935
13198TIP3    H161085   2.667   5.273  10.799 -1.8320  0.5341  0.9390
13198TIP3    H261086   2.677   5.251  10.649 -0.2506  1.8826  0.8276
13199TIP3   OH261087   5.139   5.569  10.838  0.5894 -0.0876  0.1534
13199TIP3    H161088   5.118   5.495  10.781  1.2726  0.9066 -1.4815
13199TIP3    H261089   5.234   5.581  10.827  0.2869  1.8858 -0.7857
13200TIP3   OH261090   3.067   5.358   0.794 -0.9721 -0.4139 -0.4227
13200TIP3    H161091   3.062   5.314   0.878 -0.0882 -1.2612 -0.7817
13200TIP3    H261092   2.988   5.411   0.788 -2.0832 -1.9772  0.0367
13201TIP3   OH261093   0.841   3.353   3.238 -0.1915  0.0101  0.2433
13201TIP3    H161094   0.878   3.381   3.322 -0.4604  1.2428 -0.0220
13201TIP3    H261095   0.773   3.418   3.219 -0.5905 -0.6341 -0.6074
13202TIP3   OH261096   2.027   4.192  13.747 -0.2272  1.1457 -0.4452
13202TIP3    H161097   2.025   4.243  13.666  1.3180  1.1028 -0.5426
13202TIP3    H261098   2.119   4.171  13.760 -0.8714 -2.6368 -1.0129
13203TIP3   OH261099   3.497   5.893   1.468  0.1395  0.4629  0.2774
13203TIP3    H161100   3.539   5.946   1.536 -0.9891  0.0522  1.3342
13203TIP3    H261101   3.407   5.881   1.499  0.2270 -1.6820 -0.1444
13204TIP3   OH261102   0.214   1.780   0.348 -0.1880 -0.2701 -0.3735
13204TIP3    H161103   0.238   1.849   0.410 -1.7815 -0.4136  0.4514
13204TIP3    H261104   0.138   1.737   0.387  0.7802 -2.5559 -0.8486
13205TIP3   OH261105   5.862   6.611   5.311 -0.0594  0.5461 -0.1342
13205TIP3    H161106   5.865   6.515   5.322 -1.5526  0.6020  1.1940
13205TIP3    H261107   5.901   6.626   5.225  0.2091 -1.2620 -0.3858
13206TIP3   OH261108   4.717   1.967  12.372 -0.5505  0.2051  0.5120
13206TIP3    H161109   4.718   1.877  12.405 -0.0613 -0.2639 -0.7308
13206TIP3    H261110   4.769   1.964  12.292 -2.1879  1.1800 -0.6431
13207TIP3   OH261111   6.464   5.933   0.698 -0.5062  0.2802  0.1655
13207TIP3    H161112   6.372   5.955   0.682 -0.8071 -0.9897  0.0673
13207TIP3    H261113   6.463   5.877   0.775 -0.2124 -2.3731 -1.6243
13208TIP3   OH261114   5.887   3.864   0.987 -0.9637 -0.3387  0.1527
13208TIP3    H161115   5.846   3.933   1.037 -0.9227 -1.6315  2.0657
13208TIP3    H261116   5.867   3.783   1.035 -0.1194 -1.5382 -1.3992
13209TIP3   OH261117   4.748   1.313   6.364 -0.2799 -0.2874 -0.2782
13209TIP3    H161118   4.783   1.288   6.278  0.1107 -1.3122  0.1695
13209TIP3    H261119   4.727   1.230   6.406 -0.8865  0.2321  0.4521
13210TIP3   OH261120   6.737   6.535   5.992  0.8476  0.0212 -0.4380
13210TIP3    H161121   6.678   6.536   6.068  0.2008  1.4173 -0.9155
13210TIP3    H261122   6.679   6.544   5.917  1.6489  3.0462 -0.8507
13211TIP3   OH261123   3.147   0.426   6.432 -0.2892  0.6830 -0.2850
13211TIP3    H161124   3.219   0.424   6.368  0.1938  1.7638  0.1894
13211TIP3    H261125   3.164   0.505   6.484 -2.3821  1.5546 -0.8097
13212TIP3   OH261126   6.573   0.538  15.179 -0.2414 -0.0311 -0.3555
13212TIP3    H161127   6.587   0.625  15.142  0.1558 -0.5476 -1.4688
13212TIP3    H261128   6.641   0.528  15.245 -0.9314  0.8920  0.5289
13213TIP3   OH261129   4.137   0.477  16.127 -0.5987 -0.3882  0.3930
13213TIP3    H161130   4.112   0.557  16.079  0.8320  0.1152  0.4477
13213TIP3    H261131   4.188   0.508  16.202 -1.6690 -1.2583  1.5178
13214TIP3   OH261132   0.021   1.010   6.233  0.0556 -0.1489 -0.3061
13214TIP3    H161133  -0.044   1.075   6.207  0.6202  0.1007 -1.1244
13214TIP3    H261134  -0.030   0.933   6.259 -0.5903  0.3657 -0.0207
13215TIP3   OH261135   6.723   2.241  12.824 -0.1911  0.6515 -0.2454
13215TIP3    H161136   6.755   2.152  12.810  0.4841  1.0276 -1.2335
13215TIP3    H261137   6.755   2.290  12.748 -0.2528  1.8136  0.4510
13216TIP3   OH261138   4.877   5.211  16.993 -0.2874 -0.4140  0.1971
13216TIP3    H161139   4.822   5.146  17.036  1.5811 -2.5713 -0.4948
13216TIP3    H261140   4.816   5.259  16.936 -1.6163 -2.1604  0.0494
13217TIP3   OH261141   6.161   1.113   5.630 -0.2902  0.5009 -0.3740
13217TIP3    H161142   6.066   1.103   5.637 -0.5852  3.4773  1.1364
13217TIP3    H261143   6.193   1.110   5.720  0.5946  2.8169 -0.5619
13218TIP3   OH261144   5.278   2.804   4.225 -0.4811  0.5740  0.3866
13218TIP3    H161145   5.325   2.732   4.268 -3.5834 -1.6355  0.4666
13218TIP3    H261146   5.297   2.792   4.132  2.8279  2.7526  0.6239
13219TIP3   OH261147   2.448   3.918  14.124  0.4092 -0.1031 -0.4434
13219TIP3    H161148   2.496   3.946  14.203 -0.6061  0.4309  0.0003
13219TIP3    H261149   2.376   3.980  14.117 -0.8016 -1.4764 -0.5346
13220TIP3   OH261150   6.254   0.541   1.889  0.2658 -0.1886  0.7603
13220TIP3    H161151   6.334   0.556   1.839 -1.2045 -0.4626 -1.8923
13220TIP3    H261152   6.255   0.608   1.957  1.7915  1.1172 -0.4655
13221TIP3   OH261153   3.905   2.249  11.292  0.7254 -0.2367  0.0346
13221TIP3    H161154   3.922   2.242  11.199  1.6069 -0.8156  0.2255
13221TIP3    H261155   3.992   2.246  11.333  0.2771 -1.4557  0.9515
13222TIP3   OH261156   1.804   3.409  11.800  0.0076 -0.2691 -0.2238
13222TIP3    H161157   1.735   3.448  11.853  1.2132 -1.2252  2.2053
13222TIP3    H261158   1.758   3.361  11.731 -1.6079  1.5678 -0.5195
13223TIP3   OH261159   3.634   1.326   5.290 -0.1848 -0.1167 -0.0597
13223TIP3    H161160   3.718   1.365   5.315 -0.3139  0.6863 -0.8417
13223TIP3    H261161   3.627   1.341   5.196 -1.1093 -0.3623 -0.0423
13224TIP3   OH261162   0.707   1.905  15.614 -0.4010 -0.0886 -0.6094
13224TIP3    H161163   0.717   1.961  15.537 -1.2887  0.0834 -0.6087
13224TIP3    H261164   0.742   1.820  15.587 -1.8955 -0.4148 -1.6721
13225TIP3   OH261165   5.077   3.346   1.514 -0.3492 -0.3703  0.0084
13225TIP3    H161166   5.044   3.271   1.465 -2.1308  1.1618 -1.2786
13225TIP3    H261167   5.014   3.416   1.497  1.2145  1.4379  1.1695
13226TIP3   OH261168   1.267   6.137  16.544  0.0795  0.2182  0.7641
13226TIP3    H161169   1.352   6.172  16.517 -0.9913  1.7567 -0.8504
13226TIP3    H261170   1.266   6.047  16.513  0.6010  0.6262 -0.4833
13227TIP3   OH261171   1.377   1.261  16.691  0.7742  0.1085 -0.0130
13227TIP3    H161172   1.366   1.354  16.709 -0.0914 -0.1583  0.9344
13227TIP3    H261173   1.327   1.246  16.610  0.5336  0.3811  0.0834
13228TIP3   OH261174   0.388   3.973  16.761 -0.3479 -0.2664  0.2125
13228TIP3    H161175   0.339   3.954  16.681 -0.3052 -0.6026  0.2664
13228TIP3    H261176   0.334   3.936  16.831 -0.0914 -0.4980  0.2866
13229TIP3   OH261177   5.307   1.187  12.544 -0.1573  0.0738 -0.2236
13229TIP3    H161178   5.240   1.123  12.565 -0.7600  0.7916  0.0973
13229TIP3    H261179   5.371   1.178  12.615 -0.2579 -0.1478 -0.1600
13230TIP3   OH261180   4.386   6.550   4.669  0.2847 -0.3304 -0.5766
13230TIP3    H161181   4.337   6.606   4.609 -1.3939 -0.8186  0.2814
13230TIP3    H261182   4.322   6.487   4.700  1.1008 -0.0853  1.7473
13231TIP3   OH261183   0.097   1.870  13.264  0.3197 -0.4904  0.9631
13231TIP3    H161184   0.015   1.880  13.216  0.7412 -2.2697 -0.2202
13231TIP3    H261185   0.119   1.777  13.256  2.2273 -0.1465  1.6103
13232TIP3   OH261186   4.755   3.690   0.977 -0.1623 -0.1814 -0.7704
13232TIP3    H161187   4.819   3.757   0.953 -0.5334  0.3244 -0.3713
13232TIP3    H261188   4.803   3.607   0.971  0.1423  0.0532 -1.8740
13233TIP3   OH261189   1.245   1.824   6.216  0.3389 -0.8561 -0.2120
13233TIP3    H161190   1.173   1.877   6.183 -0.5322 -2.6776 -1.4120
13233TIP3    H261191   1.238   1.741   6.169  2.6236 -1.4738  0.3820
13234TIP3   OH261192   1.684   0.798   5.570 -0.1779 -0.0842  0.0468
13234TIP3    H161193   1.618   0.742   5.529 -0.2081 -1.0542  1.3279
13234TIP3    H261194   1.673   0.783   5.664  1.7897 -0.2067  0.3120
13235TIP3   OH261195   0.593   2.609  11.068  0.3399  0.0905 -0.3444
13235TIP3    H161196   0.681   2.599  11.030  1.0567  0.1670  1.1992
13235TIP3    H261197   0.562   2.693  11.035  0.5165 -0.3040 -1.5334
13236TIP3   OH261198   5.824   4.593   6.575  0.7904  0.3623  0.5974
13236TIP3    H161199   5.732   4.566   6.577  0.4787  1.2857 -0.0372
13236TIP3    H261200   5.863   4.541   6.505  1.4763 -2.0437  2.6443
13237TIP3   OH261201   5.911   3.860  13.311 -0.0544  0.0817  0.6501
13237TIP3    H161202   5.921   3.955  13.320 -0.7130 -0.0014  2.8622
13237TIP3    H261203   5.817   3.845  13.323 -0.1834 -0.7501 -1.1432
13238TIP3   OH261204   3.697   1.430  12.274  0.1117  0.4307  0.3019
13238TIP3    H161205   3.609   1.425  12.312  1.0647  0.2476  2.6645
13238TIP3    H261206   3.717   1.523  12.271 -0.9602  0.6572 -2.4023
13239TIP3   OH261207   5.514   2.319   4.296 -0.4299 -0.1416 -0.0565
13239TIP3    H161208   5.432   2.273   4.312 -0.2797 -0.7208 -0.8880
13239TIP3    H261209   5.582   2.261   4.332 -0.4271  0.6964  1.3400
13240TIP3   OH261210   5.286   2.455   3.309 -0.1380  0.2604  0.4231
13240TIP3    H161211   5.233   2.389   3.353  2.3144 -0.9359  1.7197
13240TIP3    H261212   5.290   2.528   3.371  0.4394 -0.0010  0.6936
13241TIP3   OH261213   5.720   5.748  15.378  0.3190  0.4267  0.3035
13241TIP3    H161214   5.746   5.720  15.466  0.1398  2.5379  1.1034
13241TIP3    H261215   5.801   5.777  15.337  0.2143  0.7340  0.3070
13242TIP3   OH261216   5.553   4.559   1.592  0.8472  0.5849  0.1509
13242TIP3    H161217   5.560   4.498   1.666 -1.6333  1.2948  1.0742
13242TIP3    H261218   5.531   4.643   1.632  2.4025  1.7363 -1.2395
13243TIP3   OH261219   2.979   0.664   2.529 -0.1778 -0.0809  0.3441
13243TIP3    H161220   3.062   0.645   2.485 -0.0787 -0.4160  0.6691
13243TIP3    H261221   3.004   0.691   2.618 -0.4582 -1.5122  0.8962
13244TIP3   OH261222   0.778   0.453   5.326 -0.0818 -0.4523  0.0588
13244TIP3    H161223   0.819   0.515   5.387 -0.0783 -1.5338  1.2126
13244TIP3    H261224   0.833   0.375   5.332 -0.1726 -0.6336 -1.2453
13245TIP3   OH261225   0.750   1.377   2.612 -0.1764  0.3497 -0.4111
13245TIP3    H161226   0.823   1.408   2.559 -0.9275  0.0740 -1.6469
13245TIP3    H261227   0.721   1.454   2.661  0.6454  0.5654 -0.2609
13246TIP3   OH261228   5.294   0.967   1.521 -0.5819  0.3924  0.1676
13246TIP3    H161229   5.253   0.884   1.498  2.1723 -1.4525  1.4001
13246TIP3    H261230   5.279   1.024   1.445 -1.8426 -1.4693 -1.0465
13247TIP3   OH261231   5.448   3.003  15.539  0.7741  0.1391 -0.0476
13247TIP3    H161232   5.467   2.949  15.463 -1.7490 -1.3141  0.2553
13247TIP3    H261233   5.353   3.012  15.539  0.7890  0.9276  2.3897
13248TIP3   OH261234   4.137   6.000  11.619 -0.3751  0.4757 -0.4248
13248TIP3    H161235   4.091   5.998  11.703 -1.9466 -0.2676 -1.2654
13248TIP3    H261236   4.208   5.937  11.629 -0.4531  0.5046  0.3917
13249TIP3   OH261237   4.375   6.310   1.410 -0.1967 -0.1404 -0.8275
13249TIP3    H161238   4.400   6.393   1.369  0.8199  0.2847  0.5905
13249TIP3    H261239   4.412   6.314   1.498 -1.0389 -1.6621 -0.3634
13250TIP3   OH261240   5.373   0.684   0.974  0.0480 -0.6167  0.3728
13250TIP3    H161241   5.287   0.722   0.952  0.9951  0.1808 -2.3802
13250TIP3    H261242   5.361   0.590   0.964 -0.5842 -0.5370  0.3364
13251TIP3   OH261243   0.166   5.322  16.185  0.1583  0.6153  0.2490
13251TIP3    H161244   0.155   5.227  16.194 -0.4888  0.4101 -2.0750
13251TIP3    H261245   0.079   5.358  16.202  0.4186  0.8396  1.1957
13252TIP3   OH261246   6.286   4.330  15.139 -0.5818  0.1640 -0.2968
13252TIP3    H161247   6.375   4.296  15.125 -1.1186 -1.3159 -0.2422
13252TIP3    H261248   6.287   4.362  15.229 -0.2227 -0.2280 -0.1562
13253TIP3   OH261249   6.074   5.264  16.665 -0.1257  0.0468 -0.3524
13253TIP3    H161250   6.075   5.170  16.647 -0.0958  0.2415 -1.4057
13253TIP3    H261251   6.155   5.297  16.627 -0.8178  0.7229 -1.2807
13254TIP3   OH261252   4.578   3.321  11.688  0.2025  0.1448  0.6485
13254TIP3    H161253   4.595   3.415  11.689 -1.6376  0.5697 -1.1067
13254TIP3    H261254   4.569   3.300  11.595 -2.1646 -1.1933  1.1191
13255TIP3   OH261255   3.388   4.174  14.006 -0.0639 -0.1050 -0.1034
13255TIP3    H161256   3.366   4.232  13.933  0.0898  0.6812  0.4586
13255TIP3    H261257   3.367   4.225  14.084  2.5615  0.2646  0.4658
13256TIP3   OH261258   4.459   1.352  14.122  0.4643 -0.3516  0.1195
13256TIP3    H161259   4.519   1.324  14.191 -0.0151  0.2903  0.8139
13256TIP3    H261260   4.482   1.444  14.106  1.3425 -0.7901 -1.4122
13257TIP3   OH261261   0.197   2.529  14.584  0.5733 -0.6408  0.1025
13257TIP3    H161262   0.205   2.452  14.528 -0.2179 -1.0206  0.4920
13257TIP3    H261263   0.244   2.598  14.537 -1.3416 -0.5381 -1.8144
13258TIP3   OH261264   0.871   4.595   6.046  0.0347  0.1757  0.0991
13258TIP3    H161265   0.868   4.533   6.119 -0.1225 -0.5439 -0.4958
13258TIP3    H261266   0.893   4.679   6.086 -0.1994 -0.1726  0.9863
13259TIP3   OH261267   2.299   3.251  11.288  0.0600 -0.3665 -0.3146
13259TIP3    H161268   2.262   3.178  11.239  0.9366 -0.2386 -1.1919
13259TIP3    H261269   2.301   3.323  11.225  1.4845 -0.2875 -0.1970
13260TIP3   OH261270   1.230   6.408  14.787 -0.1134 -0.0856  0.0262
13260TIP3    H161271   1.161   6.417  14.721 -1.4387 -0.3265  1.3401
13260TIP3    H261272   1.242   6.314  14.797 -0.8937 -0.0938  1.0773
13261TIP3   OH261273   3.946   1.467  12.693  0.8572  0.1839  0.1292
13261TIP3    H161274   4.023   1.456  12.748  2.1015 -0.2241 -1.6077
13261TIP3    H261275   3.889   1.394  12.718  1.4755 -0.1111  0.7161
13262TIP3   OH261276   6.089   2.432  13.266 -0.5843  0.1727 -0.1207
13262TIP3    H161277   6.019   2.469  13.320 -1.1248 -1.3768  0.2887
13262TIP3    H261278   6.043   2.379  13.201  0.1722  0.2094 -0.7046
13263TIP3   OH261279   4.279   5.753   3.727 -0.1718  0.0116 -0.0123
13263TIP3    H161280   4.277   5.842   3.762  1.6281  0.3325 -0.6297
13263TIP3    H261281   4.188   5.723   3.734 -0.5236  1.3001  1.6615
13264TIP3   OH261282   6.395   0.272   2.765  0.1115 -0.0155  0.0895
13264TIP3    H161283   6.443   0.251   2.684  1.7958  0.7632  0.8250
13264TIP3    H261284   6.361   0.187   2.795  0.0521 -0.4156 -1.0642
13265TIP3   OH261285   3.691   4.662  11.158 -0.0702  0.3637  0.1654
13265TIP3    H161286   3.671   4.588  11.216 -1.6392  1.1159  0.6591
13265TIP3    H261287   3.643   4.643  11.077  2.4053 -0.8614 -1.1132
13266TIP3   OH261288   5.764   3.572  15.736 -0.3734  0.1053 -0.0802
13266TIP3    H161289   5.835   3.581  15.672  0.0368  0.2864  0.3957
13266TIP3    H261290   5.688   3.609  15.692  0.1327  1.1882 -0.0956
13267TIP3   OH261291   3.193   5.610   3.045  0.6968 -0.1244  0.0835
13267TIP3    H161292   3.233   5.568   3.121  1.3364  1.5189  0.7003
13267TIP3    H261293   3.267   5.640   2.992  0.3005  1.3274  0.3073
13268TIP3   OH261294   2.586   2.334   5.338 -0.3044 -0.5057  0.0454
13268TIP3    H161295   2.566   2.411   5.284 -1.3507  0.2365  1.4455
13268TIP3    H261296   2.650   2.365   5.401 -1.3163 -0.5500  1.1211
13269TIP3   OH261297   1.167   3.731   5.140  0.8242 -0.0015 -0.2356
13269TIP3    H161298   1.218   3.791   5.193  0.7521  0.0672 -0.2428
13269TIP3    H261299   1.094   3.705   5.196  0.0170  1.0825 -0.7238
13270TIP3   OH261300   4.042   3.720   5.628 -0.1200 -0.1944 -0.1234
13270TIP3    H161301   4.055   3.756   5.541  0.3436 -0.8495 -0.3277
13270TIP3    H261302   4.126   3.733   5.672  0.2342 -1.5116 -0.3809
13271TIP3   OH261303   4.824   2.516   2.030  0.1379 -0.1633 -0.2634
13271TIP3    H161304   4.807   2.555   1.944 -0.4177 -1.0930 -0.5916
13271TIP3    H261305   4.899   2.565   2.064  2.1026 -1.4569 -2.4034
13272TIP3   OH261306   3.168   3.654  13.706 -0.1260  0.2271 -0.4270
13272TIP3    H161307   3.252   3.697  13.722 -1.4839  2.2235  2.2524
13272TIP3    H261308   3.168   3.581  13.768 -0.8910  1.1319  0.6817
13273TIP3   OH261309   1.286   5.233  12.416 -0.3666  0.3153  0.3963
13273TIP3    H161310   1.363   5.245  12.360 -0.7076  1.6038  0.1730
13273TIP3    H261311   1.250   5.321  12.427 -1.6642 -0.2239  0.7099
13274TIP3   OH261312   3.938   5.726   3.225  0.1170  0.1580  0.0998
13274TIP3    H161313   3.978   5.687   3.148  0.9301  0.5466  0.3010
13274TIP3    H261314   3.936   5.820   3.206  0.7773  0.3149  0.7265
13275TIP3   OH261315   3.023   0.943   2.989  0.6254  0.3976  0.0924
13275TIP3    H161316   3.013   0.958   3.083 -0.7322  1.1059 -0.1317
13275TIP3    H261317   2.943   0.896   2.965  0.0506  1.8794 -1.0182
13276TIP3   OH261318   6.114   4.213  12.578 -0.2621  0.2122 -0.5181
13276TIP3    H161319   6.061   4.237  12.503 -1.2571 -1.0868 -0.2527
13276TIP3    H261320   6.115   4.118  12.578  0.6048  0.1987  0.5140
13277TIP3   OH261321   3.320   0.599  14.525 -0.0622  0.4170 -0.4198
13277TIP3    H161322   3.279   0.610  14.439 -0.0684  1.0748 -0.3416
13277TIP3    H261323   3.335   0.689  14.555 -0.8495  0.2087  0.6488
13278TIP3   OH261324   5.679   3.366   0.894 -0.5931  0.0267  0.2928
13278TIP3    H161325   5.656   3.436   0.955 -1.7966  0.8215 -1.0216
13278TIP3    H261326   5.715   3.297   0.950  0.2468  1.5022  1.6765
13279TIP3   OH261327   1.154   6.826   5.223  0.7123  0.3751 -0.4606
13279TIP3    H161328   1.075   6.771   5.229  1.5173 -0.6538  2.1700
13279TIP3    H261329   1.125   6.904   5.176 -1.9657  0.1353  0.5949
13280TIP3   OH261330   1.382   5.298   1.295 -0.3578  0.5966 -0.0702
13280TIP3    H161331   1.419   5.213   1.318 -0.3882  0.1030 -1.6860
13280TIP3    H261332   1.287   5.283   1.295 -0.3261  0.1775 -1.8139
13281TIP3   OH261333   3.171   5.092  16.615  0.2082  0.3807  0.0586
13281TIP3    H161334   3.205   5.130  16.696 -1.4611 -2.3726  2.2423
13281TIP3    H261335   3.189   4.998  16.624  0.8591  0.0601 -3.3159
13282TIP3   OH261336   1.455   4.864   4.120  0.2046  0.3712  0.0938
13282TIP3    H161337   1.464   4.869   4.216 -0.7239 -0.1398  0.2204
13282TIP3    H261338   1.380   4.806   4.106  0.7517 -0.1119 -0.9615
13283TIP3   OH261339   0.758   1.565   3.503 -0.0711 -0.0983 -0.3458
13283TIP3    H161340   0.688   1.625   3.476 -0.9420 -0.1334  1.6697
13283TIP3    H261341   0.715   1.480   3.510  0.2725 -0.2146  0.4221
13284TIP3   OH261342   1.236   5.780   0.246 -0.2944  0.2197  0.1874
13284TIP3    H161343   1.324   5.802   0.277 -0.6568 -0.7730  2.0256
13284TIP3    H261344   1.185   5.765   0.325 -1.2342 -2.6390 -0.8132
13285TIP3   OH261345   0.601   1.112  11.741  0.4332  0.1532  0.0960
13285TIP3    H161346   0.556   1.139  11.661  0.0480  0.6839  0.4879
13285TIP3    H261347   0.546   1.041  11.776  1.5176 -1.2884 -1.0049
13286TIP3   OH261348   4.340   4.083   3.450  0.3162  0.0135 -1.0706
13286TIP3    H161349   4.315   4.130   3.370  0.7793 -1.3885 -2.0833
13286TIP3    H261350   4.262   4.031   3.472 -0.7041  2.2033  0.8490
13287TIP3   OH261351   3.448   6.455  15.067 -0.1597 -0.2803 -0.2129
13287TIP3    H161352   3.420   6.371  15.032  1.7710 -0.3212 -1.8549
13287TIP3    H261353   3.536   6.439  15.102 -0.2922  0.7670  0.6617
13288TIP3   OH261354   5.506   1.651  15.572  0.4952 -0.5652  0.3424
13288TIP3    H161355   5.581   1.649  15.512 -0.6832 -1.4209 -1.1698
13288TIP3    H261356   5.534   1.600  15.647  1.2955 -1.2299 -0.3848
13289TIP3   OH261357   4.403   1.129   4.405 -0.3941 -0.0213  0.6177
13289TIP3    H161358   4.395   1.118   4.500 -2.7428  1.4150  0.6569
13289TIP3    H261359   4.354   1.056   4.368  3.1731 -2.5537  0.2679
13290TIP3   OH261360   1.486   1.579  16.854 -0.5584  0.3552 -0.4383
13290TIP3    H161361   1.430   1.654  16.833  0.4136  1.4954  0.8548
13290TIP3    H261362   1.561   1.588  16.794 -0.1397  0.8079  0.1359
13291TIP3   OH261363   1.090   2.503   1.301 -0.0851 -0.4851 -1.0353
13291TIP3    H161364   1.165   2.454   1.334  0.6835  0.3676 -1.4869
13291TIP3    H261365   1.028   2.504   1.375  0.3656 -1.1304 -0.6352
13292TIP3   OH261366   1.744   1.782  11.355  0.1938 -0.0400 -0.5410
13292TIP3    H161367   1.696   1.865  11.364  1.1893  0.5051 -0.0493
13292TIP3    H261368   1.837   1.808  11.358  0.5185 -1.0967 -1.1725
13293TIP3   OH261369   4.229   0.139   1.568  0.5032 -0.4501  0.0032
13293TIP3    H161370   4.321   0.113   1.572  0.8359  0.7576  1.1973
13293TIP3    H261371   4.182   0.070   1.615  1.4132  1.1027  3.5098
13294TIP3   OH261372   6.205   3.552  15.992  0.8806  0.8783 -0.0397
13294TIP3    H161373   6.161   3.571  16.074  0.1586  1.9067 -0.6512
13294TIP3    H261374   6.234   3.461  16.001  1.3533  1.1649  1.5741
13295TIP3   OH261375   0.185   1.308   1.674 -0.3283 -0.4443 -0.4230
13295TIP3    H161376   0.121   1.317   1.745  0.7180  0.1206  0.4750
13295TIP3    H261377   0.216   1.398   1.658 -1.1216 -0.4332 -2.1758
13296TIP3   OH261378   1.427   0.722  13.050  0.2269 -0.0785  0.3157
13296TIP3    H161379   1.362   0.749  13.114 -1.3405 -0.9926 -0.8105
13296TIP3    H261380   1.460   0.639  13.082 -0.0700 -0.2112  0.2777
13297TIP3   OH261381   5.565   3.017   3.131 -0.0662 -0.2564  0.4712
13297TIP3    H161382   5.604   2.951   3.188  1.4950  0.2564  0.0601
13297TIP3    H261383   5.553   2.971   3.047  2.8513  0.4171 -0.4135
13298TIP3   OH261384   5.363   6.340  15.454  0.0024 -0.1394 -0.2329
13298TIP3    H161385   5.353   6.421  15.505  1.8788 -0.9920  1.6445
13298TIP3    H261386   5.444   6.352  15.405 -0.2090 -0.5106 -0.6786
13299TIP3   OH261387   0.699   5.097  11.251 -0.2262 -0.1538 -0.4224
13299TIP3    H161388   0.611   5.065  11.229  0.2387 -2.1384  0.4011
13299TIP3    H261389   0.758   5.030  11.217  0.9727  0.9661 -0.6100
13300TIP3   OH261390   3.691   2.455   1.940  0.0502 -0.1074  0.5918
13300TIP3    H161391   3.709   2.370   1.899 -0.8862  0.1359 -0.3532
13300TIP3    H261392   3.740   2.452   2.022  1.3939 -0.8928 -0.1975
13301TIP3   OH261393   4.939   4.943   4.398 -0.4687 -0.2389 -0.7477
13301TIP3    H161394   4.954   4.936   4.492  1.0581  1.7035 -0.7647
13301TIP3    H261395   4.997   4.878   4.359  0.5193  0.3928 -0.3850
13302TIP3   OH261396   3.856   2.206   0.227 -0.3536  0.3007  0.2739
13302TIP3    H161397   3.847   2.163   0.312  1.6372  0.1073  0.4478
13302TIP3    H261398   3.787   2.168   0.173 -1.0027 -0.3274  1.5162
13303TIP3   OH261399   2.290   5.898  15.571 -0.5670  0.0352  0.3090
13303TIP3    H161400   2.301   5.990  15.548  2.2938  0.1218  1.5616
13303TIP3    H261401   2.216   5.869  15.519 -2.3481  3.3125  0.7437
13304TIP3   OH261402   3.356   0.070   3.565 -0.0087  0.0127  0.9692
13304TIP3    H161403   3.270   0.091   3.602 -1.4307 -2.0358 -0.8931
13304TIP3    H261404   3.344  -0.015   3.523  3.1367 -0.6494  1.1429
13305TIP3   OH261405   1.788   6.199  10.036  0.8763 -0.4630  0.6473
13305TIP3    H161406   1.801   6.111  10.002 -0.9736 -1.4286  2.2777
13305TIP3    H261407   1.805   6.191  10.130 -0.4230  0.6445  1.0023
13306TIP3   OH261408   5.265   4.817  15.120  0.0118  0.3684  0.1516
13306TIP3    H161409   5.205   4.825  15.195 -0.1569 -0.1021  0.0677
13306TIP3    H261410   5.348   4.789  15.158 -0.3615 -0.9226  0.0531
13307TIP3   OH261411   5.326   4.419  14.433 -0.0752 -0.1369  0.4700
13307TIP3    H161412   5.350   4.334  14.468  0.3575 -0.4874 -0.6315
13307TIP3    H261413   5.243   4.441  14.476  1.2013  0.2325  2.9172
13308TIP3   OH261414   2.964   1.111   1.705  1.1398 -0.2968  0.5113
13308TIP3    H161415   2.928   1.196   1.733  1.0978 -0.3288  0.5550
13308TIP3    H261416   3.003   1.074   1.785  0.6524 -0.5753  0.6279
13309TIP3   OH261417   5.734   4.822   4.321  0.0848 -0.5243 -0.4555
13309TIP3    H161418   5.730   4.749   4.259 -0.7474  0.1518 -1.2165
13309TIP3    H261419   5.644   4.853   4.328  0.0441 -0.9991  1.6165
13310TIP3   OH261420   6.279   4.860  13.831 -0.0255 -0.1723  0.7070
13310TIP3    H161421   6.196   4.863  13.785 -0.2957 -0.6333  1.1567
13310TIP3    H261422   6.264   4.906  13.913  0.4302  0.5699  0.3850
13311TIP3   OH261423   1.648   0.035  11.749  0.3481 -0.2094  0.2770
13311TIP3    H161424   1.601   0.091  11.811 -3.3907  0.3041 -2.6524
13311TIP3    H261425   1.708   0.095  11.705  1.5321 -0.1547  1.8519
13312TIP3   OH261426   0.409   3.455  12.984  0.1821  0.1197 -0.1181
13312TIP3    H161427   0.372   3.460  13.073 -2.4267 -0.0868 -1.1166
13312TIP3    H261428   0.465   3.377  12.986 -0.2126 -0.1575  1.2258
13313TIP3   OH261429   3.350   3.952   2.969 -0.7356  0.0287  0.5889
13313TIP3    H161430   3.273   3.896   2.979  0.4224 -1.6083  0.8209
13313TIP3    H261431   3.380   3.970   3.058  0.4030 -1.2205  0.4901
13314TIP3   OH261432   4.680   1.275  16.281 -0.0234 -0.6960 -0.1088
13314TIP3    H161433   4.700   1.340  16.214 -0.6959 -0.0555  0.3009
13314TIP3    H261434   4.763   1.263  16.328  0.2334 -0.5145 -0.5076
13315TIP3   OH261435   6.216   0.936  10.610  0.1398 -0.5396 -0.1149
13315TIP3    H161436   6.280   0.920  10.540 -0.0361  0.0322 -0.4109
13315TIP3    H261437   6.167   0.854  10.615 -0.0415 -0.4873 -0.8781
13316TIP3   OH261438   1.067   2.424  16.201 -0.1885 -0.1310 -0.4549
13316TIP3    H161439   1.041   2.427  16.109 -0.0943  0.3921 -0.4651
13316TIP3    H261440   1.031   2.504  16.238  1.0093  0.3723 -0.3550
13317TIP3   OH261441   3.408   0.186   5.283  0.3208  0.0749  0.4651
13317TIP3    H161442   3.477   0.127   5.254 -1.5193 -1.4170 -1.2363
13317TIP3    H261443   3.426   0.268   5.237  1.8020  0.2474  1.2946
13318TIP3   OH261444   5.142   2.964   4.961  0.0589  0.3902 -1.0472
13318TIP3    H161445   5.103   3.023   5.025  1.0232 -1.4806  1.4247
13318TIP3    H261446   5.073   2.901   4.940 -0.5400  1.5074 -2.6445
13319TIP3   OH261447   4.642   2.241   3.976  0.2842 -0.6663  0.2733
13319TIP3    H161448   4.636   2.166   4.035 -0.2435  1.0728  2.5834
13319TIP3    H261449   4.724   2.284   4.001  0.0559  0.1127 -0.2785
13320TIP3   OH261450   1.152   2.230  13.606 -0.8787  0.2900 -0.0076
13320TIP3    H161451   1.213   2.278  13.662 -1.3102 -0.0514  0.7902
13320TIP3    H261452   1.080   2.207  13.665 -0.3174 -2.0518 -0.1248
13321TIP3   OH261453   0.953   0.123  13.083 -0.6185 -0.2571 -0.0623
13321TIP3    H161454   0.946   0.180  13.160  0.3065 -0.6561  0.3322
13321TIP3    H261455   1.035   0.076  13.095 -0.6457 -0.6059 -1.1164
13322TIP3   OH261456   5.810   0.619  13.839  0.3620  0.1051 -0.0574
13322TIP3    H161457   5.837   0.701  13.881 -3.1519  0.8827  1.0701
13322TIP3    H261458   5.790   0.643  13.749 -0.7284  0.5827  0.2899
13323TIP3   OH261459   3.968   0.288  15.964  0.5636  0.5877 -0.1322
13323TIP3    H161460   3.940   0.335  15.886  0.8278  1.2335  0.1532
13323TIP3    H261461   4.046   0.336  15.994  0.9320 -0.1246  0.0776
13324TIP3   OH261462   1.841   1.620   2.995  0.2096  0.0708  0.2219
13324TIP3    H161463   1.812   1.700   2.953  1.5054  0.0030 -0.8693
13324TIP3    H261464   1.776   1.554   2.970  0.5637  0.1967 -1.1036
13325TIP3   OH261465   4.571   3.362   5.491  0.0041  0.6738  0.2667
13325TIP3    H161466   4.557   3.315   5.574 -2.5087  0.9405  0.0571
13325TIP3    H261467   4.568   3.454   5.516 -3.2028  0.8349 -0.3416
13326TIP3   OH261468   3.764   6.093  12.555 -0.0707  0.2822  0.9350
13326TIP3    H161469   3.776   5.998  12.544  0.0347  0.1118  2.3524
13326TIP3    H261470   3.671   6.103  12.573 -0.6173  0.7473 -1.6804
13327TIP3   OH261471   5.246   4.537  16.383 -0.0458  0.0869  0.8371
13327TIP3    H161472   5.335   4.557  16.353 -0.2443 -1.1999 -0.7793
13327TIP3    H261473   5.256   4.455  16.432 -0.4670 -0.7441 -0.4102
13328TIP3   OH261474   3.207   0.609   3.570  0.3468 -0.1914 -0.0590
13328TIP3    H161475   3.286   0.618   3.517  1.1806  1.0641  1.3199
13328TIP3    H261476   3.217   0.674   3.640 -1.4743 -0.6471  0.6911
13329TIP3   OH261477   3.308   0.025   0.259  0.2364  0.6748  0.4625
13329TIP3    H161478   3.299   0.117   0.236 -0.6782  0.5623  0.3361
13329TIP3    H261479   3.285   0.021   0.352  0.0534  0.5465  0.4136
13330TIP3   OH261480   0.444   5.932   0.606  0.2120 -0.5115 -0.2487
13330TIP3    H161481   0.456   6.022   0.636 -0.1260 -0.3812 -0.5007
13330TIP3    H261482   0.355   5.908   0.635  0.7792 -1.2319  0.9985
13331TIP3   OH261483   6.575   3.674   3.469  0.1221 -0.5544  0.2423
13331TIP3    H161484   6.648   3.715   3.516 -0.4785  0.5209  0.2770
13331TIP3    H261485   6.549   3.600   3.524 -1.4047  1.4105  2.3856
13332TIP3   OH261486   2.190   1.432  13.957 -0.0356 -0.1255  0.3139
13332TIP3    H161487   2.197   1.524  13.982 -2.1423  0.1660  0.0091
13332TIP3    H261488   2.256   1.387  14.010  0.5250  1.4443  1.0026
13333TIP3   OH261489   4.685   5.880  12.219 -0.4891  0.0478 -0.2714
13333TIP3    H161490   4.590   5.877  12.231 -0.5335  0.8651 -0.3514
13333TIP3    H261491   4.707   5.795  12.181 -1.2270 -0.0552 -0.4876
13334TIP3   OH261492   6.371   4.926   3.729 -0.4589  0.3605  0.1555
13334TIP3    H161493   6.369   4.836   3.764 -0.4965  0.5616  0.6886
13334TIP3    H261494   6.375   4.981   3.807 -3.2631  0.9461 -0.0276
13335TIP3   OH261495   2.331   5.127   4.985  0.6442  0.2644 -0.5295
13335TIP3    H161496   2.355   5.035   4.977  0.4308  0.0184  1.2458
13335TIP3    H261497   2.239   5.131   4.960  1.2564  0.4436 -2.9574
13336TIP3   OH261498   6.389   1.239   5.536 -0.3065  0.0430 -0.2176
13336TIP3    H161499   6.308   1.193   5.559  0.9923 -2.0169  0.4297
13336TIP3    H261500   6.421   1.273   5.620  1.8210 -3.1576  0.4283
13337TIP3   OH261501   3.682   2.655  14.993  0.2384  0.2254  0.3423
13337TIP3    H161502   3.616   2.724  14.986 -0.1690 -0.2457 -0.6379
13337TIP3    H261503   3.764   2.701  15.008 -0.3028  0.8238  1.6170
13338TIP3   OH261504   2.240   2.077  16.116 -0.2673  0.1763  0.0087
13338TIP3    H161505   2.290   2.062  16.036 -0.8866  0.8774 -0.5165
13338TIP3    H261506   2.186   2.154  16.097  0.7755  1.3901  1.6450
13339TIP3   OH261507   1.269   2.536   2.964 -0.3107 -0.2588 -0.0198
13339TIP3    H161508   1.261   2.600   3.035 -1.7353 -0.7673  0.3103
13339TIP3    H261509   1.244   2.584   2.886 -0.4139 -0.1400  0.0848
13340TIP3   OH261510   1.385   4.665  11.835 -0.0410 -0.9755 -0.1681
13340TIP3    H161511   1.428   4.745  11.865 -0.5536 -0.4422 -0.8124
13340TIP3    H261512   1.450   4.596  11.847  0.9942 -0.1972 -1.0945
13341TIP3   OH261513   2.649   0.019   1.453  1.0265  0.1905 -0.3837
13341TIP3    H161514   2.657   0.074   1.376 -0.1032 -1.2262 -1.5796
13341TIP3    H261515   2.626   0.079   1.524 -1.7523  1.1360 -1.9356
13342TIP3   OH261516   2.142   2.220   0.581 -0.0229  0.0300  0.0802
13342TIP3    H161517   2.179   2.286   0.641  0.2506 -0.9551  1.0288
13342TIP3    H261518   2.050   2.215   0.606 -0.6645  1.7746 -1.6321
13343TIP3   OH261519   4.024   2.839  12.242 -0.2412  0.4639 -0.2026
13343TIP3    H161520   3.937   2.811  12.270 -0.3309 -0.4781 -1.3352
13343TIP3    H261521   4.036   2.797  12.157  0.9215  1.3920 -0.5236
13344TIP3   OH261522   1.578   4.742  12.413 -0.1030  0.5634  0.4920
13344TIP3    H161523   1.646   4.675  12.415  1.2596  1.8899  1.0982
13344TIP3    H261524   1.515   4.713  12.478  1.7124  1.0426  2.6042
13345TIP3   OH261525   2.640   4.326  15.121 -0.0652  0.7495  0.0678
13345TIP3    H161526   2.621   4.329  15.215  0.6033  1.5710  0.1868
13345TIP3    H261527   2.702   4.253  15.112 -0.4477  0.4011  0.1944
13346TIP3   OH261528   4.616   5.658   0.612  0.2341 -0.4895 -0.7903
13346TIP3    H161529   4.656   5.706   0.539  1.4528 -1.0606 -0.5330
13346TIP3    H261530   4.573   5.725   0.665  1.1897  0.2182 -0.8922
13347TIP3   OH261531   1.487   1.295   0.675  0.1429 -0.1714 -0.5672
13347TIP3    H161532   1.482   1.361   0.744  0.5016 -0.4016 -0.3173
13347TIP3    H261533   1.486   1.211   0.722  0.1341 -0.3348 -0.8569
13348TIP3   OH261534   6.260   1.429   0.594 -0.4031  0.1365  0.0483
13348TIP3    H161535   6.180   1.471   0.625 -0.4160 -0.1900  0.4771
13348TIP3    H261536   6.327   1.454   0.657 -0.1579  0.4389 -0.3294
13349TIP3   OH261537   6.328   1.553  15.397 -0.2489 -0.3089  0.1279
13349TIP3    H161538   6.329   1.547  15.493  0.9299  0.4602  0.1717
13349TIP3    H261539   6.352   1.465  15.368  2.0829  0.1155  0.5932
13350TIP3   OH261540   0.221   3.834  15.556 -0.3458  0.2084 -0.0448
13350TIP3    H161541   0.227   3.844  15.650 -0.5468  0.2354 -0.0324
13350TIP3    H261542   0.231   3.740  15.540  0.2034  0.2657 -0.0414
13351TIP3   OH261543   5.065   1.371  13.727  0.1344  0.0347 -0.0736
13351TIP3    H161544   5.124   1.314  13.776  0.2273  0.9784  0.9645
13351TIP3    H261545   5.010   1.311  13.676  0.8327 -0.9264  0.2691
13352TIP3   OH261546   3.284   6.705   3.419  0.6026  0.0818  0.1574
13352TIP3    H161547   3.329   6.745   3.344 -0.8421  0.1492 -0.7190
13352TIP3    H261548   3.313   6.614   3.419  1.7637  0.4359  0.4500
13353TIP3   OH261549   2.398   3.166  13.772 -0.3149 -0.2672 -0.8203
13353TIP3    H161550   2.488   3.176  13.801 -1.3393  1.0712  2.3267
13353TIP3    H261551   2.399   3.193  13.680  2.4012 -0.1395 -0.8297
13354TIP3   OH261552   3.425   1.817  16.564  0.6788  0.2240  0.2577
13354TIP3    H161553   3.452   1.733  16.603 -3.3138 -1.3182  0.1245
13354TIP3    H261554   3.431   1.803  16.470 -0.8584 -0.2969  0.2190
13355TIP3   OH261555   6.773   1.081   4.579 -0.2615  0.4944  0.3934
13355TIP3    H161556   6.853   1.030   4.566 -1.0020 -0.6145  0.0340
13355TIP3    H261557   6.762   1.131   4.498 -0.9795 -0.8782 -0.3892
13356TIP3   OH261558   4.249   6.805  14.811  0.0295  0.4573  0.3137
13356TIP3    H161559   4.157   6.779  14.810  0.4728 -1.3026 -0.9627
13356TIP3    H261560   4.296   6.723  14.830  1.3496  1.2297  0.4808
13357TIP3   OH261561   4.988   5.030   2.650  0.4820 -0.5285  0.2571
13357TIP3    H161562   4.924   4.979   2.699  1.5119 -1.4429  0.7186
13357TIP3    H261563   4.951   5.118   2.645 -0.5795 -0.9185  0.9114
13358TIP3   OH261564   5.051   1.121  14.999 -0.3252  0.1739  0.1743
13358TIP3    H161565   5.129   1.115  14.944 -0.4147 -0.0903  0.0741
13358TIP3    H261566   4.979   1.099  14.940 -0.7129  2.3263 -0.2653
13359TIP3   OH261567   3.070   5.304  15.752  0.1740 -0.3731 -0.2821
13359TIP3    H161568   3.103   5.215  15.752 -1.6016 -1.0936 -1.2878
13359TIP3    H261569   2.989   5.299  15.803 -0.5570  0.3884 -1.3300
13360TIP3   OH261570   0.994   6.408  11.497 -0.0873 -0.1123  0.6063
13360TIP3    H161571   1.023   6.400  11.588  0.2558 -0.2080  0.4890
13360TIP3    H261572   0.981   6.318  11.468 -0.5978 -0.0707  0.6847
13361TIP3   OH261573   6.637   2.566   5.890 -0.1254  0.6271 -0.1070
13361TIP3    H161574   6.648   2.591   5.981  1.0026 -1.8169  0.5135
13361TIP3    H261575   6.725   2.569   5.853 -0.3363  0.1275 -0.6834
13362TIP3   OH261576   6.337   5.892  16.264  0.0045  0.4393  0.1998
13362TIP3    H161577   6.253   5.908  16.308  0.0245  0.3669  0.2655
13362TIP3    H261578   6.321   5.914  16.172 -0.5432 -1.1132 -0.1036
13363TIP3   OH261579   3.992   5.489  15.365  0.1431  0.7383  0.6451
13363TIP3    H161580   3.957   5.567  15.407 -0.0776  0.2195  1.4639
13363TIP3    H261581   4.074   5.472  15.412  0.2319  0.5297  0.4156
13364TIP3   OH261582   3.616   1.204   3.422 -0.1659 -0.2084 -0.3276
13364TIP3    H161583   3.543   1.251   3.382 -1.0589 -1.6861 -0.4832
13364TIP3    H261584   3.639   1.257   3.498 -0.7573  0.7775 -0.8109
13365TIP3   OH261585   6.090   2.392  14.744 -0.3722  0.4099  0.7063
13365TIP3    H161586   6.063   2.465  14.687 -0.6364  0.1724  0.5256
13365TIP3    H261587   6.114   2.434  14.827  0.6466  0.8310  0.2165
13366TIP3   OH261588   1.322   4.709   3.578  0.2342  0.7855  0.3780
13366TIP3    H161589   1.345   4.801   3.566  1.2203  0.7276  1.6180
13366TIP3    H261590   1.243   4.711   3.632 -0.5565  0.9111 -0.7528
13367TIP3   OH261591   0.457   1.158   0.188  0.4187  0.2415  0.4143
13367TIP3    H161592   0.397   1.201   0.249  0.4642  3.4570 -1.5550
13367TIP3    H261593   0.536   1.212   0.191  2.3896 -2.4518  1.1100
13368TIP3   OH261594   4.556   0.727   0.895 -0.2126  0.1583  0.2345
13368TIP3    H161595   4.644   0.728   0.933 -1.3190  1.6492  3.1250
13368TIP3    H261596   4.538   0.635   0.876  2.2055 -0.0915 -1.1590
13369TIP3   OH261597   4.199   3.712  14.629  0.4579 -0.1677  0.0252
13369TIP3    H161598   4.127   3.650  14.631 -0.6070  1.0326  0.3640
13369TIP3    H261599   4.237   3.708  14.717 -0.5649  0.7109  0.5291
13370TIP3   OH261600   6.723   0.652  16.390 -1.0628  0.5009  0.2407
13370TIP3    H161601   6.775   0.677  16.466 -0.0393 -0.0638 -0.2513
13370TIP3    H261602   6.632   0.662  16.418 -0.6914  1.2203  1.2167
13371TIP3   OH261603   0.708   5.517   5.394  0.5453 -0.4480 -0.0106
13371TIP3    H161604   0.625   5.553   5.425  0.5829 -0.8578  0.5722
13371TIP3    H261605   0.750   5.480   5.472  0.8280 -1.1120 -0.4621
13372TIP3   OH261606   1.027   0.582  15.641  0.8912 -0.1872 -0.0359
13372TIP3    H161607   1.010   0.616  15.554 -1.9459 -1.2750 -0.0090
13372TIP3    H261608   1.060   0.493  15.626  0.6762 -0.2721 -0.0067
13373TIP3   OH261609   6.253   2.792  13.736  0.0074 -0.2658  0.4106
13373TIP3    H161610   6.210   2.707  13.723 -0.2986 -0.2353  1.1443
13373TIP3    H261611   6.190   2.856  13.704  1.0824 -0.3851 -2.1284
13374TIP3   OH261612   6.069   2.702  15.417 -0.7983  0.5442 -0.0318
13374TIP3    H161613   6.132   2.754  15.368 -0.3775 -0.7112 -0.8584
13374TIP3    H261614   5.995   2.692  15.357  0.1939 -1.9819 -0.9282
13375TIP3   OH261615   5.352   4.127  15.465  0.0298  0.1354 -0.1790
13375TIP3    H161616   5.441   4.159  15.477  0.0144  0.1959 -0.2318
13375TIP3    H261617   5.317   4.177  15.392  0.0462 -0.0861 -0.3378
13376TIP3   OH261618   0.650   5.185   0.528  0.2454  0.1834  0.3705
13376TIP3    H161619   0.683   5.226   0.608  1.7541  0.1495 -0.1978
13376TIP3    H261620   0.625   5.097   0.553  1.3401 -0.0438  0.6740
13377TIP3   OH261621   2.262   6.589   3.367 -1.1138  0.5015 -0.2105
13377TIP3    H161622   2.275   6.666   3.312 -0.7351 -0.4022 -1.4429
13377TIP3    H261623   2.344   6.579   3.415 -0.9274  0.4901 -0.5331
13378TIP3   OH261624   5.766   2.861  14.365 -0.8629 -0.2821 -0.8428
13378TIP3    H161625   5.704   2.906  14.307  1.7888  3.4354 -1.1274
13378TIP3    H261626   5.851   2.900  14.344  1.4004 -3.9141  0.6727
13379TIP3   OH261627   6.378   3.649  13.374  0.1633 -0.0128 -0.4269
13379TIP3    H161628   6.357   3.605  13.291 -0.8831 -3.0394  1.2550
13379TIP3    H261629   6.311   3.717  13.382  0.1712  0.2194 -1.9447
13380TIP3   OH261630   5.859   0.943  12.927 -0.2220 -0.1537 -0.2874
13380TIP3    H161631   5.804   0.993  12.988  0.8943 -0.9971  1.4748
13380TIP3    H261632   5.797   0.886  12.881 -0.9402 -0.4776  1.0402
13381TIP3   OH261633   0.489   5.759   2.096 -0.1828  0.0812 -0.0344
13381TIP3    H161634   0.428   5.706   2.045 -0.6969 -0.1483  0.8059
13381TIP3    H261635   0.553   5.790   2.032 -1.5522  0.8847 -1.0635
13382TIP3   OH261636   4.111   1.802   3.915 -0.0736 -0.3026  0.0730
13382TIP3    H161637   4.140   1.712   3.927  1.6966  0.0202 -1.3459
13382TIP3    H261638   4.172   1.855   3.967  0.3278  0.2166 -0.8956
13383TIP3   OH261639   2.061   3.021  11.486 -0.2358  0.3586  0.1002
13383TIP3    H161640   2.018   3.001  11.570 -0.4346 -0.9884 -0.2949
13383TIP3    H261641   1.991   3.055  11.431 -0.7280 -1.2783 -0.3521
13384TIP3   OH261642   2.729   6.116  16.766 -0.4949 -0.1001  0.0595
13384TIP3    H161643   2.677   6.191  16.796  1.5932  1.0300  1.1000
13384TIP3    H261644   2.731   6.125  16.671 -1.2506  0.4897  0.0922
13385TIP3   OH261645   1.451   6.061   3.562  0.0266  0.1443  0.0296
13385TIP3    H161646   1.377   6.003   3.544 -0.3914  0.8625 -0.6200
13385TIP3    H261647   1.508   6.053   3.485  1.3188 -1.4109  1.0909
13386TIP3   OH261648   6.162   3.132  11.937  0.1072  0.4109  0.1575
13386TIP3    H161649   6.087   3.072  11.933  2.3055 -2.4780 -1.5182
13386TIP3    H261650   6.201   3.116  12.023  1.6376 -2.0116 -0.8883
13387TIP3   OH261651   5.113   5.877  11.077 -0.5451  0.3553  0.1094
13387TIP3    H161652   5.159   5.929  11.142  3.3131 -2.2679 -0.2124
13387TIP3    H261653   5.081   5.800  11.125  0.2952 -0.4792 -0.6273
13388TIP3   OH261654   6.831   2.993  13.446 -0.4476  0.0249  0.6374
13388TIP3    H161655   6.921   3.014  13.468  0.2301 -0.8688 -1.1062
13388TIP3    H261656   6.790   3.078  13.429  1.4770  0.3392 -3.5071
13389TIP3   OH261657   2.280   6.557   4.264 -0.2031  0.0768 -0.3679
13389TIP3    H161658   2.231   6.501   4.323 -1.2425  1.2037 -0.1158
13389TIP3    H261659   2.347   6.598   4.319 -0.7606  0.6323 -0.0814
13390TIP3   OH261660   4.662   0.635   1.589  0.3388  0.0009 -0.1128
13390TIP3    H161661   4.571   0.631   1.616  0.5164  1.0761  0.7082
13390TIP3    H261662   4.672   0.562   1.527 -1.1566  0.0966 -0.5034
13391TIP3   OH261663   5.226   5.985  11.339 -0.5891  0.3846  0.2188
13391TIP3    H161664   5.208   6.006  11.430  1.3688  0.7527  0.5509
13391TIP3    H261665   5.305   6.034  11.318  0.7137 -1.9982 -0.7810
13392TIP3   OH261666   4.873   0.788  10.602 -0.2449 -0.0318  0.3377
13392TIP3    H161667   4.797   0.751  10.556 -0.1744 -0.3663  0.4891
13392TIP3    H261668   4.887   0.729  10.676  0.1217  0.0649  0.3484
13393TIP3   OH261669   3.683   3.221   3.036  0.2434 -0.4347 -0.1176
13393TIP3    H161670   3.745   3.256   2.973 -1.3480  0.7274 -1.1066
13393TIP3    H261671   3.707   3.262   3.119 -1.2501  2.7838 -1.1382
13394TIP3   OH261672   2.118   3.493   4.862  0.3919  0.3514 -0.8223
13394TIP3    H161673   2.039   3.438   4.857  0.0312  0.9345 -2.1666
13394TIP3    H261674   2.183   3.445   4.810  0.6960  0.2362 -0.3390
13395TIP3   OH261675   4.937   3.059   5.651 -0.4407  0.1179 -0.6665
13395TIP3    H161676   4.955   2.966   5.636 -1.0157  0.2673 -2.5664
13395TIP3    H261677   4.851   3.060   5.692 -0.1625 -0.2136 -0.0684
13396TIP3   OH261678   1.769   1.250   2.709 -0.0353  0.4151 -0.2794
13396TIP3    H161679   1.681   1.215   2.702 -0.8788  2.7281 -3.3729
13396TIP3    H261680   1.790   1.244   2.803 -2.4954 -2.2474  0.2353
13397TIP3   OH261681   1.005   0.445  14.265 -0.5804 -0.1434  0.5630
13397TIP3    H161682   1.068   0.509  14.297 -0.9109  0.5586 -0.1574
13397TIP3    H261683   1.001   0.460  14.170 -1.2777 -0.6737  0.4963
13398TIP3   OH261684   3.464   4.398   2.683 -0.0610  0.2901 -0.0042
13398TIP3    H161685   3.415   4.455   2.623  1.1502  1.4474  0.0363
13398TIP3    H261686   3.404   4.327   2.704 -0.8807  0.3963 -1.7921
13399TIP3   OH261687   4.116   0.907   3.000 -0.2202 -0.1572 -0.0337
13399TIP3    H161688   4.160   0.966   3.062  0.2319 -0.8247  0.2853
13399TIP3    H261689   4.036   0.880   3.045 -0.2021 -0.1541  0.0007
13400TIP3   OH261690   5.020   1.792   5.411  0.1485  1.0262  0.1416
13400TIP3    H161691   4.945   1.734   5.401  0.2091  0.8774  0.5638
13400TIP3    H261692   5.069   1.757   5.485  1.9264 -0.3161 -1.5638
13401TIP3   OH261693   4.942   6.538   3.068  0.1186  0.4932  0.3952
13401TIP3    H161694   4.859   6.569   3.033 -0.5873  0.0073  1.5991
13401TIP3    H261695   5.001   6.613   3.062 -0.4875  0.9268 -0.1810
13402TIP3   OH261696   0.233   0.550   4.381 -0.4859  0.1396  0.1616
13402TIP3    H161697   0.305   0.531   4.321 -2.9122 -2.1458 -2.2738
13402TIP3    H261698   0.206   0.639   4.358  1.9358  1.3869  1.7067
13403TIP3   OH261699   6.595   1.299   1.998  0.1425  0.4310 -0.3866
13403TIP3    H161700   6.542   1.373   1.970 -1.2226 -0.7611 -1.1178
13403TIP3    H261701   6.602   1.308   2.093 -0.1286  1.3872 -0.4504
13404TIP3   OH261702   3.348   0.857   5.341  0.1560 -0.1598 -0.0822
13404TIP3    H161703   3.342   0.822   5.252  1.4979  2.0953 -1.1426
13404TIP3    H261704   3.374   0.948   5.329 -0.2221  0.3801  2.6296
13405TIP3   OH261705   2.127   2.324  13.796  0.1423 -0.4395 -0.1635
13405TIP3    H161706   2.096   2.414  13.796 -0.4373 -0.5869 -2.3220
13405TIP3    H261707   2.187   2.319  13.871 -1.3003  1.1725  1.1799
13406TIP3   OH261708   0.278   2.391   4.537  0.0439  0.3210  0.4026
13406TIP3    H161709   0.265   2.352   4.623 -1.1917  1.8182  0.9546
13406TIP3    H261710   0.300   2.483   4.556 -0.5672  0.7509 -0.8650
13407TIP3   OH261711   3.788   6.309   0.559  0.4511  0.0828  0.1580
13407TIP3    H161712   3.773   6.382   0.500 -2.0669  1.1289  1.9223
13407TIP3    H261713   3.732   6.238   0.525  0.6051 -0.0148  0.1077
13408TIP3   OH261714   3.269   6.833   2.944  0.1673 -0.0377 -0.0857
13408TIP3    H161715   3.202   6.777   2.984 -0.8135  0.4748 -0.9423
13408TIP3    H261716   3.315   6.872   3.018  0.7528 -1.8160  0.5157
13409TIP3   OH261717   6.650   6.813   5.671 -0.4126  0.6397 -0.2891
13409TIP3    H161718   6.688   6.743   5.619 -1.2880  1.4402 -2.1040
13409TIP3    H261719   6.590   6.769   5.731  2.5501 -0.5537  2.0219
13410TIP3   OH261720   1.116   6.381  15.799 -0.2739  0.1065  0.2392
13410TIP3    H161721   1.040   6.343  15.755  0.0335 -1.4321  0.9610
13410TIP3    H261722   1.185   6.316  15.787  1.9233  2.7125 -2.9814
13411TIP3   OH261723   5.830   6.462   2.700 -0.0913  0.4468  0.5504
13411TIP3    H161724   5.792   6.540   2.660  0.0929 -0.6169 -1.8478
13411TIP3    H261725   5.755   6.404   2.715 -0.1839  0.9004  2.0178
13412TIP3   OH261726   3.884   5.478  16.000  0.2290  0.3084 -0.1617
13412TIP3    H161727   3.955   5.448  15.944  0.9493  0.5954  0.5716
13412TIP3    H261728   3.817   5.410  15.994  0.8196 -0.2526 -0.4049
13413TIP3   OH261729   1.459   3.822  13.632 -0.5152  0.1781 -0.7009
13413TIP3    H161730   1.487   3.820  13.541  0.3867 -3.0097 -0.4775
13413TIP3    H261731   1.534   3.859  13.679 -1.2628  2.5414 -1.2278
13414TIP3   OH261732   6.365   6.132   2.137 -0.1970 -0.0932 -0.2216
13414TIP3    H161733   6.280   6.150   2.178  1.7246  1.2891  3.7763
13414TIP3    H261734   6.389   6.215   2.095 -0.5917 -0.3408 -0.9497
13415TIP3   OH261735   4.604   4.622   4.363 -0.2896  0.8398  0.7165
13415TIP3    H161736   4.677   4.664   4.407 -0.1751  0.6769  0.6826
13415TIP3    H261737   4.537   4.613   4.431 -0.4257  1.3351  0.6543
13416TIP3   OH261738   6.611   3.924   0.333 -0.0163  0.0756  0.0057
13416TIP3    H161739   6.616   3.837   0.372 -3.0323 -0.2744 -0.1988
13416TIP3    H261740   6.701   3.942   0.304  0.6848 -2.9681 -0.0287
13417TIP3   OH261741   4.223   1.805   2.537  0.1627  0.5803 -0.1170
13417TIP3    H161742   4.163   1.879   2.535 -0.0299  0.4204 -0.3089
13417TIP3    H261743   4.305   1.840   2.500 -0.5238  0.1804 -2.1691
13418TIP3   OH261744   1.454   4.102   5.974  0.2536  0.1804 -0.5053
13418TIP3    H161745   1.359   4.112   5.967  0.3196  0.1256 -1.7765
13418TIP3    H261746   1.466   4.023   6.027 -0.3998  0.4785  0.0923
13419TIP3   OH261747   3.639   4.547  13.174  0.1108  0.2024 -0.2354
13419TIP3    H161748   3.595   4.545  13.260 -0.4806  0.7049 -0.5157
13419TIP3    H261749   3.684   4.463  13.168 -0.7411 -0.2978  0.1112
13420TIP3   OH261750   4.869   2.677   3.429  0.1903 -0.1835  0.0683
13420TIP3    H161751   4.920   2.658   3.351  1.4767 -0.4865  0.9542
13420TIP3    H261752   4.784   2.706   3.396  0.4044 -1.1576 -1.4110
13421TIP3   OH261753   1.208   4.267   5.883  0.7199  0.3589  0.0142
13421TIP3    H161754   1.188   4.182   5.843  0.1627  0.8303 -0.7543
13421TIP3    H261755   1.122   4.306   5.898  0.8553 -0.1016  2.4308
13422TIP3   OH261756   6.367   3.138   3.086 -0.1455 -0.3133 -0.1436
13422TIP3    H161757   6.454   3.167   3.060  0.0524  0.5056  1.3292
13422TIP3    H261758   6.316   3.141   3.006  0.2824  2.5932 -0.4197
13423TIP3   OH261759   5.281   0.388  15.281  0.4260  0.3737  0.5423
13423TIP3    H161760   5.203   0.346  15.316  0.4703 -0.4639 -0.3099
13423TIP3    H261761   5.316   0.325  15.218  1.4909  0.9593  0.5141
13424TIP3   OH261762   4.733   6.184   4.267  0.2163  0.1699  0.6658
13424TIP3    H161763   4.791   6.108   4.262  1.1715  0.9224 -0.2807
13424TIP3    H261764   4.790   6.258   4.247 -0.9282  1.0165  0.4653
13425TIP3   OH261765   1.458   0.553   4.853  0.2621  0.3425 -0.1815
13425TIP3    H161766   1.492   0.637   4.821 -1.0894  1.2186  0.5980
13425TIP3    H261767   1.475   0.555   4.947 -0.0094 -0.1517 -0.1241
13426TIP3   OH261768   0.445   0.876  13.909 -0.2932 -0.3496  0.2183
13426TIP3    H161769   0.479   0.834  13.830  2.2627 -0.8320  1.4863
13426TIP3    H261770   0.408   0.804  13.960 -3.4115  0.1457 -1.0736
13427TIP3   OH261771   6.319   3.100   2.000  0.2322 -0.3665 -0.0389
13427TIP3    H161772   6.368   3.173   2.039 -0.6110 -0.8757  2.0547
13427TIP3    H261773   6.248   3.142   1.952  0.6763  0.2420 -0.1748
13428TIP3   OH261774   4.246   3.416   4.381  0.2706  0.0150 -0.2296
13428TIP3    H161775   4.185   3.484   4.353 -0.2640 -0.1158  0.5982
13428TIP3    H261776   4.287   3.386   4.299  0.6141  1.4114 -0.5818
13429TIP3   OH261777   5.932   2.132   4.607 -0.0368 -0.1619  0.2164
13429TIP3    H161778   5.961   2.041   4.614  1.5464  0.2818 -0.0137
13429TIP3    H261779   6.006   2.176   4.564 -1.4528  0.9030 -1.2216
13430TIP3   OH261780   6.065   6.294   5.029 -0.4266  0.0516 -0.0080
13430TIP3    H161781   6.133   6.234   4.999 -0.0767  1.3473 -2.0051
13430TIP3    H261782   5.983   6.255   4.998 -0.5242 -0.8731  1.3212
13431TIP3   OH261783   4.945   5.850  11.470  0.1278  0.4277 -0.6682
13431TIP3    H161784   5.007   5.895  11.527  1.7769  0.6657 -2.5477
13431TIP3    H261785   4.969   5.877  11.382 -0.2697 -2.3581 -1.7374
13432TIP3   OH261786   3.362   3.369   0.400 -0.0906  0.4158  0.5096
13432TIP3    H161787   3.430   3.314   0.361  0.9272  2.7255 -1.2252
13432TIP3    H261788   3.384   3.458   0.372 -3.8811  1.3154 -0.1566
13433TIP3   OH261789   3.774   3.739  12.846 -0.0029 -0.2172 -0.1314
13433TIP3    H161790   3.860   3.715  12.811  0.1112  2.0365 -1.5806
13433TIP3    H261791   3.793   3.806  12.911 -0.5992 -0.7605  0.6228
13434TIP3   OH261792   1.817   5.222   0.391  0.1834 -0.0952 -0.2743
13434TIP3    H161793   1.892   5.178   0.350 -0.4604 -1.4696 -0.0138
13434TIP3    H261794   1.857   5.290   0.446  1.1639  0.1599 -1.2551
13435TIP3   OH261795   2.051   6.227   6.008 -0.1030 -0.0715  0.3681
13435TIP3    H161796   2.081   6.141   6.038 -1.0893 -1.2987 -1.9155
13435TIP3    H261797   2.102   6.243   5.929 -0.6299  1.0133  0.2384
13436TIP3   OH261798   6.641   4.898   0.139  0.5034  0.0918  0.2748
13436TIP3    H161799   6.610   4.987   0.157  1.2302  0.1557  1.3087
13436TIP3    H261800   6.652   4.895   0.044  1.5811  1.4917  0.3250
13437TIP3   OH261801   2.438   6.541   0.737  0.0067  0.7878  0.3912
13437TIP3    H161802   2.506   6.551   0.671  1.8757 -1.3057  1.8344
13437TIP3    H261803   2.465   6.599   0.808 -0.0761  0.4480  0.7021
13438TIP3   OH261804   0.118   3.417   3.958 -0.6573  0.2686  0.6283
13438TIP3    H161805   0.150   3.414   3.868 -2.7074  2.2954 -0.2723
13438TIP3    H261806   0.085   3.328   3.975  0.8438 -0.4681 -0.1400
13439TIP3   OH261807   0.223   2.014   1.400 -0.7007 -0.1209  0.2520
13439TIP3    H161808   0.216   2.085   1.336 -1.6888  1.1973  1.7346
13439TIP3    H261809   0.242   2.059   1.483  1.5577 -1.8466  0.7546
13440TIP3   OH261810   0.688   4.936   5.859 -0.2245 -0.5496 -0.0828
13440TIP3    H161811   0.695   5.024   5.820 -0.6645 -0.7686 -0.6769
13440TIP3    H261812   0.594   4.919   5.861 -0.2551 -0.2997  1.6534
13441TIP3   OH261813   2.132   5.333   3.446  0.0451 -0.0536 -0.4836
13441TIP3    H161814   2.044   5.308   3.472 -0.0134  1.3568  0.8656
13441TIP3    H261815   2.131   5.336   3.351 -0.9326 -1.4871 -0.5295
13442TIP3   OH261816   5.604   3.744  15.566  0.2995 -0.4286  0.7372
13442TIP3    H161817   5.684   3.720  15.519  1.1263 -0.9308  2.3041
13442TIP3    H261818   5.538   3.683  15.533  0.4698  0.1694 -0.7786
13443TIP3   OH261819   1.817   0.226  16.467  0.2206 -0.1250  0.2736
13443TIP3    H161820   1.890   0.170  16.493 -0.4454 -1.3679 -0.4272
13443TIP3    H261821   1.843   0.260  16.381  0.6761  0.7940  0.7471
13444TIP3   OH261822   2.907   3.672   3.499  0.1791  0.3444  0.2410
13444TIP3    H161823   2.998   3.684   3.527 -0.4310  1.0628  2.0764
13444TIP3    H261824   2.864   3.629   3.573 -0.7902 -0.8323 -0.9572
13445TIP3   OH261825   0.550   0.296   1.120  0.4786 -0.9396  0.1473
13445TIP3    H161826   0.576   0.231   1.185 -1.4495 -0.5928  1.3461
13445TIP3    H261827   0.522   0.245   1.044 -0.1043 -1.4861  0.7189
13446TIP3   OH261828   2.178   0.181   0.549  0.4781  0.6233  0.2352
13446TIP3    H161829   2.260   0.171   0.598  1.8185  1.1030 -1.7973
13446TIP3    H261830   2.170   0.100   0.499 -0.1734  0.6801  0.2451
13447TIP3   OH261831   2.144   4.110  11.296  0.4125 -0.2937 -0.0295
13447TIP3    H161832   2.186   4.068  11.222  1.1406  1.4402 -0.6454
13447TIP3    H261833   2.055   4.128  11.266  1.1962  2.0052 -1.2300
13448TIP3   OH261834   2.176   3.855  11.170 -0.2990  0.2715  0.0194
13448TIP3    H161835   2.166   3.770  11.213 -0.6306  0.6150  0.6381
13448TIP3    H261836   2.185   3.834  11.077  1.7766 -0.5647  0.3538
13449TIP3   OH261837   1.853   5.539   3.467 -0.1072  0.1068 -0.2938
13449TIP3    H161838   1.930   5.512   3.515 -0.6691  1.2587  1.3513
13449TIP3    H261839   1.884   5.553   3.377  1.7012  1.0120  0.4264
13450TIP3   OH261840   0.104   4.927   2.320 -0.3615 -0.6461  0.6441
13450TIP3    H161841   0.130   4.967   2.403 -1.4525  2.5910 -0.4143
13450TIP3    H261842   0.013   4.902   2.334 -0.0201 -1.7508  0.9445
13451TIP3   OH261843   2.042   5.072  11.309  0.5734 -0.7128  0.2471
13451TIP3    H161844   2.009   5.133  11.374  1.4448  0.0618 -0.0017
13451TIP3    H261845   1.978   5.001  11.306 -1.7736  1.3036 -1.1664
13452TIP3   OH261846   1.311   4.978   2.325  0.6873  0.0561  0.9439
13452TIP3    H161847   1.331   5.027   2.405  1.6651 -0.6706  1.1762
13452TIP3    H261848   1.366   5.018   2.258  0.3426  0.2522  0.7736
13453TIP3   OH261849   2.122   2.955  14.476  0.0665  0.1745 -0.0221
13453TIP3    H161850   2.030   2.979  14.492  0.6558  1.2043  2.1507
13453TIP3    H261851   2.155   3.024  14.418 -0.3029  0.3120 -0.0717
13454TIP3   OH261852   3.574   1.464   0.836  0.7552 -1.0311 -0.2391
13454TIP3    H161853   3.617   1.548   0.849  1.0655 -1.3461  0.9630
13454TIP3    H261854   3.509   1.480   0.768  2.1199 -0.3129 -1.4173
13455TIP3   OH261855   0.692   5.423   2.003  0.3221 -0.4314 -0.3321
13455TIP3    H161856   0.766   5.477   1.975  1.7405 -1.7868  0.6160
13455TIP3    H261857   0.728   5.369   2.074 -1.4545 -1.4825 -0.1855
13456TIP3   OH261858   1.745   2.362  12.803 -0.0991 -0.1783 -0.4041
13456TIP3    H161859   1.676   2.429  12.798  1.9590  2.1216  0.1252
13456TIP3    H261860   1.698   2.279  12.796 -2.7691  1.2893 -1.4684
13457TIP3   OH261861   5.034   3.265   3.550  0.0649  0.1111 -0.2710
13457TIP3    H161862   5.064   3.332   3.489  1.3113 -1.7504 -1.7968
13457TIP3    H261863   5.113   3.240   3.599 -0.2692 -0.6261 -0.0982
13458TIP3   OH261864   3.426   6.852  12.017  0.1479 -0.4403 -0.0350
13458TIP3    H161865   3.408   6.788  11.948  0.0917 -1.9542  1.3298
13458TIP3    H261866   3.521   6.855  12.023  0.1817 -2.7255  1.8955
13459TIP3   OH261867   0.501   3.270   0.887  0.4875  0.5750  0.5570
13459TIP3    H161868   0.537   3.219   0.960  1.7886  2.1417  1.0611
13459TIP3    H261869   0.482   3.356   0.924 -0.4223  0.8969 -0.5844
13460TIP3   OH261870   2.810   2.824  14.635 -0.2076  0.0443  0.2148
13460TIP3    H161871   2.888   2.789  14.677  0.1362  1.0113  0.4087
13460TIP3    H261872   2.842   2.867  14.555 -0.2705  1.9876  1.1796
13461TIP3   OH261873   1.152   3.506  13.814 -0.1194  0.3348 -0.3052
13461TIP3    H161874   1.165   3.453  13.735  0.4616 -0.8153  0.5227
13461TIP3    H261875   1.173   3.595  13.787  1.3380 -0.2304 -1.1323
13462TIP3   OH261876   1.257   5.931  10.830  0.1527 -0.0458 -0.2480
13462TIP3    H161877   1.245   5.976  10.747  0.7240 -0.1907 -0.4159
13462TIP3    H261878   1.175   5.944  10.877  0.1114  0.6980 -0.5153
13463TIP3   OH261879   1.620   1.316  15.185  0.1192  0.5134 -0.2023
13463TIP3    H161880   1.573   1.275  15.114 -1.0695 -0.0693  0.8892
13463TIP3    H261881   1.570   1.294  15.264  1.1831  1.4371  0.7769
13464TIP3   OH261882   4.714   2.159   1.323 -0.4047 -0.4122  0.1050
13464TIP3    H161883   4.745   2.202   1.243  1.5027  0.9516  1.4752
13464TIP3    H261884   4.620   2.149   1.310 -0.0658 -1.0270 -2.6345
13465TIP3   OH261885   0.892   3.307   2.111  0.1209  1.1627  0.0287
13465TIP3    H161886   0.843   3.225   2.109  0.6092  0.7303  2.6920
13465TIP3    H261887   0.839   3.368   2.060 -0.3553 -0.6898 -1.8566
13466TIP3   OH261888   6.756   4.221  12.867 -0.4747  0.0311  0.4066
13466TIP3    H161889   6.795   4.281  12.930 -0.3785  0.1014  0.2811
13466TIP3    H261890   6.826   4.201  12.806 -0.7220  0.4322 -0.0183
13467TIP3   OH261891   5.271   5.393   4.475  0.1199 -0.3878  0.0922
13467TIP3    H161892   5.281   5.488   4.483  0.3256 -0.3026 -1.0668
13467TIP3    H261893   5.242   5.379   4.385 -0.3357 -1.3976  0.3841
13468TIP3   OH261894   6.090   2.322   3.804 -0.0846 -0.7765 -0.5912
13468TIP3    H161895   6.167   2.366   3.770 -0.6251  0.2841 -0.4914
13468TIP3    H261896   6.025   2.392   3.815 -0.0138 -1.0251  2.4469
13469TIP3   OH261897   5.182   4.667   0.135  0.0909 -0.3418 -0.3242
13469TIP3    H161898   5.103   4.625   0.170 -0.6067  0.6742 -0.6198
13469TIP3    H261899   5.154   4.703   0.051  0.6864  0.5883 -0.1338
13470TIP3   OH261900   0.459   4.470   5.258  0.8033  0.3186 -0.7064
13470TIP3    H161901   0.396   4.399   5.254  1.6857 -0.5393  0.1267
13470TIP3    H261902   0.413   4.541   5.301 -0.7527  1.0225 -3.2988
13471TIP3   OH261903   3.698   2.490  16.298  0.0911 -0.5998 -0.7128
13471TIP3    H161904   3.669   2.453  16.382  2.3184 -1.9396 -0.4528
13471TIP3    H261905   3.628   2.550  16.273 -0.0517  0.9225  2.7801
13472TIP3   OH261906   4.372   4.150  17.063  0.0855  0.0797  0.5050
13472TIP3    H161907   4.434   4.177  17.132  1.5254  0.0989 -0.7563
13472TIP3    H261908   4.427   4.108  16.997 -1.3335 -0.3495 -0.4306
13473TIP3   OH261909   6.489   1.783   2.747 -0.0483  0.2167  0.1727
13473TIP3    H161910   6.399   1.783   2.714  0.2677 -1.1490 -0.7817
13473TIP3    H261911   6.525   1.700   2.716  0.7585 -0.4564  2.7441
13474TIP3   OH261912   3.166   5.651   2.708  0.2219 -0.3134 -1.0749
13474TIP3    H161913   3.107   5.611   2.771 -0.7352  0.2821 -1.5757
13474TIP3    H261914   3.220   5.578   2.676 -1.0819 -1.0986 -1.5356
13475TIP3   OH261915   0.722   0.269   5.099  0.2561  0.1360  0.3822
13475TIP3    H161916   0.745   0.311   5.016 -0.0172 -2.1158 -0.9015
13475TIP3    H261917   0.634   0.300   5.118  0.2164  0.4574 -0.3104
13476TIP3   OH261918   6.464   5.350  14.181 -0.3407 -0.3408 -0.7995
13476TIP3    H161919   6.428   5.412  14.245  0.5013 -0.0001 -0.6366
13476TIP3    H261920   6.440   5.264  14.216  0.7470 -0.1914  0.4064
13477TIP3   OH261921   6.730   1.083  13.587  0.6822 -0.7757 -0.4245
13477TIP3    H161922   6.706   1.058  13.677  0.9103 -1.1610 -0.4686
13477TIP3    H261923   6.756   1.000  13.546  0.7774 -0.5665 -0.7844
13478TIP3   OH261924   6.611   6.575  14.264  0.0216 -0.3407  0.3386
13478TIP3    H161925   6.672   6.595  14.193  1.1051 -2.3556  0.6391
13478TIP3    H261926   6.642   6.628  14.338 -0.9051  1.5011 -0.5192
13479TIP3   OH261927   5.698   2.991   3.427 -0.2131 -0.0577 -0.2446
13479TIP3    H161928   5.611   3.010   3.460 -0.1798 -0.1700 -0.0908
13479TIP3    H261929   5.750   3.069   3.449 -0.8756  1.1425 -2.6059
13480TIP3   OH261930   6.064   3.855   2.801  0.0851  0.0753  0.3153
13480TIP3    H161931   6.083   3.764   2.822 -0.5407 -0.0040  0.5578
13480TIP3    H261932   6.115   3.873   2.721 -0.3410 -0.6939 -0.1351
13481TIP3   OH261933   0.962   2.030  13.969  0.1751 -0.2806  0.1640
13481TIP3    H161934   1.042   2.000  13.925  0.4859 -0.1092  0.6075
13481TIP3    H261935   0.953   1.971  14.044 -0.0254 -0.1894  0.2113
13482TIP3   OH261936   1.436   5.803  13.093  0.0676 -0.3100 -0.5879
13482TIP3    H161937   1.513   5.759  13.057  0.9965  2.7351 -2.7587
13482TIP3    H261938   1.365   5.780  13.033 -0.0347 -0.7661 -0.2964
13483TIP3   OH261939   3.438   0.208  10.773 -0.7774  0.8030  0.1524
13483TIP3    H161940   3.515   0.179  10.823  0.1795  0.4627 -1.4657
13483TIP3    H261941   3.470   0.281  10.721 -1.9383  1.5888  0.4966
13484TIP3   OH261942   1.907   6.539  12.877 -0.1170 -0.1440  0.2858
13484TIP3    H161943   1.841   6.536  12.946 -1.1527  1.2665 -0.5900
13484TIP3    H261944   1.881   6.612  12.822  1.4037 -0.4363 -0.8955
13485TIP3   OH261945   5.918   5.517  16.673  0.0890  0.0179 -0.6283
13485TIP3    H161946   5.968   5.554  16.601 -0.3755  1.4550 -0.2493
13485TIP3    H261947   5.945   5.425  16.677 -0.5275 -0.3381 -3.1662
13486TIP3   OH261948   4.453   3.161   3.907 -0.4326  0.0396  0.0474
13486TIP3    H161949   4.533   3.208   3.931  0.2614 -1.1678  0.1691
13486TIP3    H261950   4.401   3.162   3.987  1.1514 -2.4928  1.2536
13487TIP3   OH261951   3.726   1.300   6.670  0.7768 -0.9858 -0.1875
13487TIP3    H161952   3.772   1.223   6.704  2.3538 -0.0069 -0.0278
13487TIP3    H261953   3.791   1.370   6.671 -1.2841  1.0668  2.0563
13488TIP3   OH261954   4.496   6.665   2.260 -0.0182  0.2646  0.3773
13488TIP3    H161955   4.518   6.632   2.347  0.6873 -0.2481  0.0157
13488TIP3    H261956   4.486   6.586   2.207  0.2716  0.5951 -0.1736
13489TIP3   OH261957   5.482   6.638   3.010  0.1235  0.0647 -0.0903
13489TIP3    H161958   5.441   6.566   3.056 -0.0808 -0.5962 -1.2726
13489TIP3    H261959   5.482   6.611   2.918  3.8346 -0.3414 -0.1330
13490TIP3   OH261960   6.108   2.256   1.819  0.0256 -0.3550 -0.2939
13490TIP3    H161961   6.019   2.235   1.789 -0.4875  0.5883  0.4818
13490TIP3    H261962   6.121   2.348   1.794  1.1689 -0.7506 -1.2406
13491TIP3   OH261963   2.882   0.952   3.256 -0.0930  0.1314 -0.6643
13491TIP3    H161964   2.812   1.016   3.246  0.6114  0.7330 -1.9787
13491TIP3    H261965   2.901   0.952   3.350 -0.4553  1.4822 -0.5686
13492TIP3   OH261966   5.150   1.147   5.824  0.2815 -0.2728  0.5683
13492TIP3    H161967   5.166   1.193   5.741 -2.8507  1.3584  0.7260
13492TIP3    H261968   5.155   1.216   5.890  1.3071 -1.2969  1.6076
13493TIP3   OH261969   6.647   5.790   3.570 -0.1349 -0.7252 -0.2037
13493TIP3    H161970   6.591   5.750   3.502  0.4037  0.8813 -1.6500
13493TIP3    H261971   6.693   5.716   3.609 -0.3462 -1.6955 -1.7103
13494TIP3   OH261972   3.866   5.883   5.093  0.2535 -0.4191 -0.4315
13494TIP3    H161973   3.795   5.944   5.075 -2.3860 -2.0651  3.2912
13494TIP3    H261974   3.856   5.814   5.026 -1.8932 -0.7317  0.1379
13495TIP3   OH261975   0.523   3.962   1.468 -0.1387 -0.0668  0.7014
13495TIP3    H161976   0.517   4.019   1.544  0.4941  0.0783  0.6540
13495TIP3    H261977   0.589   3.897   1.491  0.6895  0.4856 -0.0259
13496TIP3   OH261978   6.839   6.376  12.743 -0.0885  0.3796  0.1980
13496TIP3    H161979   6.843   6.471  12.738  3.2780  0.5326  2.4407
13496TIP3    H261980   6.928   6.347  12.722 -0.6398 -2.1692  1.0071
13497TIP3   OH261981   3.753   1.443  13.272  0.6333 -0.1526 -0.0786
13497TIP3    H161982   3.724   1.447  13.363 -1.1023  0.2382 -0.5954
13497TIP3    H261983   3.681   1.482  13.222  1.5412 -0.3439 -1.6218
13498TIP3   OH261984   3.185   6.219   5.117  0.1258  0.0383  0.0103
13498TIP3    H161985   3.223   6.305   5.098  1.9389 -0.8145 -0.4301
13498TIP3    H261986   3.136   6.232   5.198 -0.7740  1.7880 -0.7576
13499TIP3   OH261987   0.567   5.209   0.874 -0.0102 -0.0011  0.1387
13499TIP3    H161988   0.487   5.230   0.825  1.4538  0.9474 -2.0057
13499TIP3    H261989   0.536   5.160   0.950 -2.5032 -1.1153 -1.4421
13500TIP3   OH261990   1.491   2.788   4.470  0.3451  0.6213 -0.7083
13500TIP3    H161991   1.581   2.757   4.467  0.9226  1.5346  2.6212
13500TIP3    H261992   1.498   2.883   4.463 -0.4688  0.6506 -1.3020
13501TIP3   OH261993   1.504   3.608   1.263 -0.0537  0.1439 -0.3265
13501TIP3    H161994   1.592   3.570   1.258 -0.9163 -1.8883 -1.5896
13501TIP3    H261995   1.513   3.682   1.323  2.1505 -0.9972  0.8847
13502TIP3   OH261996   2.469   0.164   4.215 -0.0368  0.2165  0.3576
13502TIP3    H161997   2.424   0.131   4.293  1.4647 -1.1427  0.7109
13502TIP3    H261998   2.536   0.224   4.249  0.1548  0.1711  0.0695
13503TIP3   OH261999   2.380   2.199   4.243 -0.5704 -0.1451  0.3636
13503TIP3    H162000   2.384   2.265   4.174 -1.6121 -0.4852 -0.0381
13503TIP3    H262001   2.371   2.116   4.196  0.7469 -0.5949  0.8555
13504TIP3   OH262002   5.235   2.160  16.698 -0.1946  0.3586  0.5178
13504TIP3    H162003   5.286   2.212  16.636 -1.0168  2.3839  1.4428
13504TIP3    H262004   5.227   2.075  16.657  2.3519  0.5184 -0.4704
13505TIP3   OH262005   0.312   1.728  14.904 -0.7554 -0.1766 -0.4137
13505TIP3    H162006   0.283   1.653  14.956 -2.9977  0.2031 -1.0199
13505TIP3    H262007   0.317   1.695  14.814  1.2875 -0.3454 -0.2919
13506TIP3   OH262008   2.504   3.168  12.750 -0.4125 -0.5696 -0.2726
13506TIP3    H162009   2.530   3.218  12.672 -0.2268 -0.9830 -0.4792
13506TIP3    H262010   2.582   3.166  12.805 -0.9129  0.8425  0.5390
13507TIP3   OH262011   0.949   5.105   5.235 -0.3113 -0.2595  0.2035
13507TIP3    H162012   0.955   5.019   5.193 -1.2142  0.6979 -2.0694
13507TIP3    H262013   0.929   5.165   5.163  4.1461  2.5527  0.9298
13508TIP3   OH262014   1.220   0.022  14.446  0.1716  0.1686  0.3770
13508TIP3    H162015   1.220   0.085  14.518  0.1028 -1.9536  2.3795
13508TIP3    H262016   1.184  -0.058  14.485 -0.1106 -1.0233 -2.1204
13509TIP3   OH262017   2.668   4.762  15.160  0.0231  0.7779 -0.4146
13509TIP3    H162018   2.670   4.816  15.239  0.0234  0.2712 -0.0643
13509TIP3    H262019   2.667   4.826  15.088  1.0313  1.2551 -0.0422
13510TIP3   OH262020   6.703   5.859   3.850 -0.0988 -0.0623 -0.3401
13510TIP3    H162021   6.797   5.842   3.837 -0.6762 -2.9226 -1.5504
13510TIP3    H262022   6.660   5.809   3.781 -2.6095 -0.1577  1.1748
13511TIP3   OH262023   5.482   5.821   1.017 -0.0971 -0.5313  0.1161
13511TIP3    H162024   5.424   5.834   0.941 -2.2397 -2.3468  1.3240
13511TIP3    H262025   5.534   5.744   0.994  0.5514 -0.0080 -0.2069
13512TIP3   OH262026   5.679   2.639   2.958  0.1365  0.0321  0.0913
13512TIP3    H162027   5.708   2.684   3.038  0.1399 -0.3455  0.3028
13512TIP3    H262028   5.691   2.546   2.977  1.2958 -0.0279 -0.7839
13513TIP3   OH262029   4.285   2.890   1.570  0.1555 -0.2868 -0.1748
13513TIP3    H162030   4.270   2.978   1.604  0.3846 -0.1548 -0.4085
13513TIP3    H262031   4.254   2.893   1.480  0.9361 -0.1970 -0.4504
13514TIP3   OH262032   2.667   5.404   6.086  0.0065 -0.6735  0.4252
13514TIP3    H162033   2.654   5.391   5.992 -2.7830  1.0029  0.4579
13514TIP3    H262034   2.715   5.486   6.093 -0.7052 -0.2412  0.4206
13515TIP3   OH262035   3.808   5.955   5.347  0.6795  0.5030 -0.4488
13515TIP3    H162036   3.761   6.036   5.328 -0.3534 -0.2811 -1.3432
13515TIP3    H262037   3.839   5.924   5.262 -0.2860 -0.8241 -0.3528
13516TIP3   OH262038   0.708   1.649   1.568 -0.1798  0.0859  0.0252
13516TIP3    H162039   0.759   1.690   1.498  0.3816 -0.0305  0.3583
13516TIP3    H262040   0.644   1.594   1.522  2.0739 -2.3631 -0.4755
13517TIP3   OH262041   0.671   6.037   0.400 -0.3003  0.0938  0.6712
13517TIP3    H162042   0.622   5.984   0.337  0.6795  0.4399 -0.4136
13517TIP3    H262043   0.710   5.973   0.459  0.0965 -0.3433 -0.0520
13518TIP3   OH262044   6.674   6.461  13.795 -0.1216 -0.6385 -0.5924
13518TIP3    H162045   6.590   6.482  13.836 -0.7445 -1.4746 -1.3744
13518TIP3    H262046   6.665   6.369  13.769  1.2667 -0.9201 -0.1608
13519TIP3   OH262047   2.828   6.107   3.225 -0.1745  0.1442  0.0562
13519TIP3    H162048   2.837   6.012   3.235  1.8889  0.5376  3.1215
13519TIP3    H262049   2.765   6.132   3.292  0.6372  1.1029  0.4830
13520TIP3   OH262050   3.247   2.043  13.443 -0.3247 -0.4566 -0.0080
13520TIP3    H162051   3.248   2.113  13.508 -1.5314  0.1121 -0.5695
13520TIP3    H262052   3.218   1.965  13.491 -1.3060 -0.0178  0.1361
13521TIP3   OH262053   1.098   0.044   5.655 -0.9613 -0.7049  0.4807
13521TIP3    H162054   1.083   0.074   5.565 -2.0491  0.5377  1.0543
13521TIP3    H262055   1.030   0.087   5.706 -0.3917 -1.4542  1.9011
13522TIP3   OH262056   2.138   5.382  10.403  0.4661  0.1754 -0.1188
13522TIP3    H162057   2.148   5.436  10.481  0.5076  2.2040 -1.4457
13522TIP3    H262058   2.211   5.321  10.405  0.2827 -0.0214  1.5629
13523TIP3   OH262059   6.525   3.447   1.429  0.3191  0.3485  0.1381
13523TIP3    H162060   6.559   3.482   1.347  1.0178 -1.5358 -0.4186
13523TIP3    H262061   6.457   3.510   1.456 -0.4649  0.6078 -2.2560
13524TIP3   OH262062   2.532   1.575  17.135  0.1893 -0.9218 -0.2196
13524TIP3    H162063   2.591   1.510  17.173 -0.6670 -1.2650  0.5934
13524TIP3    H262064   2.502   1.535  17.053 -0.7376 -1.8371  0.5227
13525TIP3   OH262065   0.561   1.947  15.195  0.2162  0.0037  0.3319
13525TIP3    H162066   0.544   1.985  15.109 -2.2609 -0.0258  0.7338
13525TIP3    H262067   0.534   2.014  15.257 -2.1728 -1.4422  1.0339
13526TIP3   OH262068   2.123   3.765   1.410 -0.1684 -0.4375 -0.4805
13526TIP3    H162069   2.087   3.684   1.446 -0.1624 -0.5214 -0.6594
13526TIP3    H262070   2.047   3.818   1.388 -0.2388 -1.0318 -1.8236
13527TIP3   OH262071   0.613   6.031  11.998 -0.1685 -0.1473  0.4329
13527TIP3    H162072   0.703   6.027  11.966 -0.0462  1.1416  0.5443
13527TIP3    H262073   0.571   6.096  11.941 -0.5917  0.4008  1.3447
13528TIP3   OH262074   6.787   5.175  12.095  0.3368  0.3384 -0.3646
13528TIP3    H162075   6.862   5.225  12.062  0.0086  2.2222  1.4902
13528TIP3    H262076   6.760   5.120  12.022  1.8551  1.6033 -1.9595
13529TIP3   OH262077   5.091   6.272   2.954  0.6741 -0.1779  0.0443
13529TIP3    H162078   5.130   6.295   2.870 -0.5037  0.6068 -0.3059
13529TIP3    H262079   5.010   6.322   2.958  0.5124 -0.5060  1.4815
13530TIP3   OH262080   0.772   5.773   5.372  0.2828  0.2571 -0.1424
13530TIP3    H162081   0.776   5.678   5.386  0.7323  0.2072 -0.5910
13530TIP3    H262082   0.753   5.782   5.279  0.3275  0.6100 -0.1153
13531TIP3   OH262083   4.733   6.635   2.507 -0.2567 -0.5096  0.1555
13531TIP3    H162084   4.794   6.613   2.578  0.0435  0.1864  0.1227
13531TIP3    H262085   4.706   6.725   2.526  2.3120  0.9353 -2.3115
13532TIP3   OH262086   4.904   4.477  15.912 -0.1044  0.1049  0.1874
13532TIP3    H162087   4.994   4.499  15.887  1.0047 -2.7059  1.2000
13532TIP3    H262088   4.911   4.447  16.003 -2.3209  1.0131  0.7227
13533TIP3   OH262089   4.732   1.677  13.153  0.2655  0.4698  0.3073
13533TIP3    H162090   4.724   1.607  13.218  1.5419  0.9110  0.9821
13533TIP3    H262091   4.741   1.632  13.070  1.4488 -0.2041  0.7766
13534TIP3   OH262092   2.057   2.374   4.728 -0.2346 -0.5572 -0.2313
13534TIP3    H162093   2.132   2.369   4.669 -0.3282  1.2167 -0.5693
13534TIP3    H262094   2.092   2.351   4.813  0.4367 -0.8758 -0.5863
13535TIP3   OH262095   1.947   1.273   5.741  0.4324 -0.2623  1.1012
13535TIP3    H162096   1.973   1.327   5.666 -1.6198  0.8986  1.1359
13535TIP3    H262097   1.986   1.316   5.817  0.8425 -0.2675  0.8954
13536TIP3   OH262098   4.060   6.454  14.248 -0.1508  0.0896 -0.8966
13536TIP3    H162099   4.096   6.464  14.336  2.4218  2.8760 -2.0842
13536TIP3    H262100   4.118   6.390  14.206 -1.1847 -0.9947 -0.7526
13537TIP3   OH262101   4.910   0.678   3.480  0.1162 -0.4676 -0.1679
13537TIP3    H162102   4.816   0.665   3.486  0.0017 -1.0488 -2.3709
13537TIP3    H262103   4.920   0.767   3.446  0.4027 -0.2551  0.4433
13538TIP3   OH262104   4.355   6.644  12.798 -0.2054  0.6631 -0.7083
13538TIP3    H162105   4.400   6.675  12.877  0.0529  0.5166 -0.7997
13538TIP3    H262106   4.275   6.696  12.796 -0.3879  0.4175 -0.1509
13539TIP3   OH262107   4.795   2.209  12.236 -0.2789  0.3859  0.4166
13539TIP3    H162108   4.749   2.126  12.236  0.2931  0.0581  0.0561
13539TIP3    H262109   4.829   2.218  12.146  1.0335  0.2163  0.8664
13540TIP3   OH262110   0.034   4.263   4.307 -0.1851  0.2341 -0.4261
13540TIP3    H162111   0.012   4.263   4.400 -0.9932 -0.1958 -0.6078
13540TIP3    H262112  -0.048   4.283   4.262  0.1922  0.4329 -1.0545
13541TIP3   OH262113   4.730   5.716   0.379 -0.2483  1.1097 -0.4053
13541TIP3    H162114   4.698   5.771   0.307  1.0594 -0.4466 -2.2916
13541TIP3    H262115   4.733   5.628   0.342  0.0803  0.1703  1.7241
13542TIP3   OH262116   6.122   1.601   0.967  0.7397 -0.1284 -0.1619
13542TIP3    H162117   6.106   1.677   1.024  1.4783 -0.2923  0.2750
13542TIP3    H262118   6.156   1.534   1.025  0.1682 -0.7801 -0.5641
13543TIP3   OH262119   6.630   5.638   4.256  0.0012 -0.0071  0.0186
13543TIP3    H162120   6.713   5.680   4.236 -0.2065  0.2073 -0.4036
13543TIP3    H262121   6.628   5.632   4.352 -0.1861  1.3867  0.1106
13544TIP3   OH262122   1.013   0.938   5.294 -0.5217 -0.2433  0.3792
13544TIP3    H162123   0.934   0.908   5.249 -0.7707 -1.3139  1.4630
13544TIP3    H262124   0.981   0.985   5.371 -0.0997  0.6168  0.0401
13545TIP3   OH262125   4.201   1.894  16.424 -0.6238  0.5938  0.1359
13545TIP3    H162126   4.129   1.899  16.488  0.5704  0.2811  1.5581
13545TIP3    H262127   4.263   1.961  16.452  0.5633 -0.4735  0.1647
13546TIP3   OH262128   1.327   3.675   0.791 -0.0060  0.1152 -0.2887
13546TIP3    H162129   1.363   3.642   0.873 -1.1295  0.8813  0.5413
13546TIP3    H262130   1.284   3.599   0.752 -0.5811  0.0262  0.4829
13547TIP3   OH262131   1.759   3.630   4.685 -0.7289  0.1055 -0.0823
13547TIP3    H162132   1.822   3.659   4.619  0.4270 -0.1360  0.8770
13547TIP3    H262133   1.687   3.693   4.680  0.0422  0.9638 -0.5295
13548TIP3   OH262134   6.120   6.253  15.187 -0.6747 -0.6391 -0.4680
13548TIP3    H162135   6.030   6.223  15.183 -0.5056 -1.1578 -0.5344
13548TIP3    H262136   6.145   6.266  15.095 -0.6164 -0.7039 -0.4616
13549TIP3   OH262137   2.259   5.934   0.505 -0.1233  0.3472 -0.3838
13549TIP3    H162138   2.213   5.984   0.437 -0.9822 -0.6236 -0.5408
13549TIP3    H262139   2.343   5.910   0.465 -0.7523 -0.4868 -1.2377
13550TIP3   OH262140   1.379   1.835   4.413 -0.1447 -0.0520  0.0109
13550TIP3    H162141   1.357   1.912   4.464  1.9012  1.9230 -1.8852
13550TIP3    H262142   1.298   1.783   4.411 -1.2669  1.4626  2.2138
13551TIP3   OH262143   0.476   6.445  16.943 -0.0479 -0.2519 -0.2857
13551TIP3    H162144   0.409   6.440  16.875  0.6067  2.6435 -1.2939
13551TIP3    H262145   0.556   6.415  16.900  0.1122  0.3976 -0.4673
13552TIP3   OH262146   6.280   5.892  14.402 -0.3164  0.3250  0.6327
13552TIP3    H162147   6.291   5.987  14.395 -1.2734  0.3273 -1.1293
13552TIP3    H262148   6.297   5.859  14.314 -0.7753 -1.0722  1.0453
13553TIP3   OH262149   1.048   4.607  15.772  0.1774  0.4277  0.3482
13553TIP3    H162150   1.071   4.618  15.865 -1.2146  1.5518  0.5980
13553TIP3    H262151   1.017   4.516  15.766  0.3662  0.3156  0.9474
13554TIP3   OH262152   6.059   4.583  16.922  0.0142 -0.2959 -0.1635
13554TIP3    H162153   6.104   4.513  16.970 -0.2231 -1.0649 -1.0528
13554TIP3    H262154   6.118   4.604  16.850 -0.7370 -0.8441 -0.9460
13555TIP3   OH262155   6.715   5.500  17.037 -0.1331  0.1989  0.1523
13555TIP3    H162156   6.649   5.552  17.083  0.0515  0.1595  0.4665
13555TIP3    H262157   6.797   5.521  17.082  0.1350  0.5782 -0.5137
13556TIP3   OH262158   1.601   2.315  12.335 -0.4058 -0.1011 -0.1725
13556TIP3    H162159   1.509   2.288  12.336 -0.3408 -0.3216 -0.2182
13556TIP3    H262160   1.597   2.411  12.335 -0.6357 -0.1031  0.2983
13557TIP3   OH262161   5.527   5.189   3.513 -0.1461 -0.0304 -0.1114
13557TIP3    H162162   5.512   5.281   3.536 -0.7432 -0.3148  0.6819
13557TIP3    H262163   5.439   5.151   3.505  0.0586 -0.2570 -1.6735
13558TIP3   OH262164   1.983   3.679   5.148  0.2746 -0.2187  0.2968
13558TIP3    H162165   1.919   3.653   5.081  1.7284 -0.7429 -0.9376
13558TIP3    H262166   1.993   3.773   5.136 -0.6745 -0.0235  0.8965
13559TIP3   OH262167   3.682   2.538  12.227  0.3467  0.3567 -0.3394
13559TIP3    H162168   3.644   2.559  12.313 -0.4127 -0.8771 -0.3460
13559TIP3    H262169   3.735   2.615  12.205  0.6220  0.6708  1.2663
13560TIP3   OH262170   2.496   4.919  15.559 -0.6351 -0.3699 -0.2178
13560TIP3    H162171   2.466   4.969  15.635 -0.2252 -0.9619  0.3446
13560TIP3    H262172   2.441   4.841  15.560  0.5602 -1.2328  0.5369
13561TIP3   OH262173   1.526   6.021  12.871  0.4917 -0.8146  0.3650
13561TIP3    H162174   1.612   5.978  12.865  0.6238 -0.4792 -0.4087
13561TIP3    H262175   1.527   6.064  12.956  1.6141  0.2067 -0.1202
13562TIP3   OH262176   4.999   5.353   5.080 -0.3648 -0.2410 -0.3452
13562TIP3    H162177   4.927   5.322   5.135 -1.6339  0.4208 -1.5527
13562TIP3    H262178   5.011   5.444   5.106 -0.5075 -0.1224 -0.6908
13563TIP3   OH262179   6.756   0.327   2.378 -0.2628 -0.2283 -0.2617
13563TIP3    H162180   6.804   0.407   2.401 -1.1048  0.5424 -1.0999
13563TIP3    H262181   6.822   0.258   2.380  0.4405  0.4546  0.6715
13564TIP3   OH262182   4.571   1.465  16.440  0.2738  0.0493 -0.2391
13564TIP3    H162183   4.575   1.372  16.416  2.3518 -0.1127  0.4587
13564TIP3    H262184   4.632   1.508  16.380  1.3918  0.4931  1.1566
13565TIP3   OH262185   6.631   3.672   0.423 -0.6141 -0.5447  0.2236
13565TIP3    H162186   6.611   3.596   0.369 -0.2115  0.0074 -0.7190
13565TIP3    H262187   6.634   3.637   0.512 -0.5882 -1.6031 -0.1728
13566TIP3   OH262188   0.564   3.942   5.730  0.4663 -0.2574 -0.3057
13566TIP3    H162189   0.506   3.984   5.667  0.9497 -0.4556 -0.9057
13566TIP3    H262190   0.510   3.875   5.772  0.2816 -0.5035 -0.9231
13567TIP3   OH262191   0.012   1.428  13.039 -0.4060  0.1124  0.6936
13567TIP3    H162192  -0.058   1.400  12.979  1.0252 -0.9904 -0.5606
13567TIP3    H262193   0.092   1.392  13.000  0.8308  1.0598  2.2478
13568TIP3   OH262194   5.303   6.409   3.160 -0.3951 -0.6558 -0.1698
13568TIP3    H162195   5.365   6.341   3.190 -2.0422 -1.7739  0.9189
13568TIP3    H262196   5.261   6.371   3.083 -1.0785 -0.7734  0.2426
13569TIP3   OH262197   1.279   6.199  14.021  0.0035 -0.3319 -0.4878
13569TIP3    H162198   1.216   6.168  14.086 -1.5755 -2.9604 -3.0153
13569TIP3    H262199   1.364   6.174  14.055 -0.5989 -0.1224  1.2767
13570TIP3   OH262200   1.912   1.567  11.510  0.4790 -0.4017  0.0637
13570TIP3    H162201   1.959   1.632  11.458  1.4901  0.8790  2.4388
13570TIP3    H262202   1.820   1.592  11.501  0.5269 -0.7055 -1.6750
13571TIP3   OH262203   4.770   6.238   3.490  0.1848  0.0232  0.7020
13571TIP3    H162204   4.681   6.215   3.520  0.3594 -0.3751  0.9290
13571TIP3    H262205   4.801   6.302   3.555 -0.1687  0.6381  0.2712
13572TIP3   OH262206   6.362   0.976   3.880  0.3600 -0.1065  0.4527
13572TIP3    H162207   6.319   0.912   3.823  0.1871  1.5975 -1.4625
13572TIP3    H262208   6.455   0.971   3.856  0.2349  0.8798 -0.3369
13573TIP3   OH262209   3.529   6.728  16.335 -1.0859 -0.2338  0.4073
13573TIP3    H162210   3.540   6.709  16.428 -1.4241 -0.0693  0.4823
13573TIP3    H262211   3.582   6.662  16.290  0.2374  0.5749  0.7511
13574TIP3   OH262212   3.044   3.211   5.149  0.2363 -0.2580 -0.2048
13574TIP3    H162213   3.026   3.280   5.085 -3.2968 -1.2230 -0.4858
13574TIP3    H262214   3.065   3.134   5.095 -2.2691 -0.9474 -0.3308
13575TIP3   OH262215   0.216   3.091  15.999  0.0076 -0.1178  0.1499
13575TIP3    H162216   0.170   3.025  15.947  0.4991  1.5225 -2.5517
13575TIP3    H262217   0.307   3.063  15.998  0.2013  0.5122 -0.9159
13576TIP3   OH262218   2.461   2.667  12.507  0.1971  0.0605  0.4891
13576TIP3    H162219   2.555   2.675  12.524  0.6822 -3.3386  0.1809
13576TIP3    H262220   2.455   2.644  12.415 -0.5362 -3.0932  1.2026
13577TIP3   OH262221   3.117   5.605   4.577  0.7850  0.2634 -0.4983
13577TIP3    H162222   3.171   5.679   4.549  0.7216 -0.1712 -1.8609
13577TIP3    H262223   3.028   5.628   4.552  0.9080 -0.7021 -1.9330
13578TIP3   OH262224   2.395   6.314  16.581  0.5061  0.0184  0.2623
13578TIP3    H162225   2.447   6.234  16.575  2.6084  1.0927  2.4760
13578TIP3    H262226   2.449   6.381  16.540 -0.2012  0.7362  0.4819
13579TIP3   OH262227   1.077   6.163  14.199 -0.6523  0.6058  0.2472
13579TIP3    H162228   1.013   6.098  14.170 -1.0664  1.6826 -1.4665
13579TIP3    H262229   1.112   6.129  14.281 -1.1414 -1.5485 -0.3810
13580TIP3   OH262230   5.638   1.886   5.691  0.1626 -0.3230 -0.1928
13580TIP3    H162231   5.571   1.909   5.627 -0.5164  1.8843  1.2017
13580TIP3    H262232   5.716   1.934   5.662 -0.1897  0.8082  0.6605
13581TIP3   OH262233   1.547   5.096  13.753 -0.1907  0.2237 -0.4205
13581TIP3    H162234   1.507   5.016  13.789 -0.7079  0.4286 -0.5241
13581TIP3    H262235   1.495   5.115  13.675  1.0283 -0.3144 -1.3859
13582TIP3   OH262236   3.064   1.685   2.317  0.2004  0.2989 -0.2917
13582TIP3    H162237   2.989   1.730   2.356  0.4541  1.7805 -1.4126
13582TIP3    H262238   3.025   1.626   2.252 -0.0140  0.9825 -0.7953
13583TIP3   OH262239   5.747   0.048  12.725  0.2401  0.1394  0.3716
13583TIP3    H162240   5.804   0.098  12.783  0.2898 -0.1746  0.6015
13583TIP3    H262241   5.780  -0.042  12.732  1.1397  0.3198 -1.2189
13584TIP3   OH262242   6.198   2.543  14.228  0.2656 -0.6168 -0.4125
13584TIP3    H162243   6.151   2.609  14.177  1.8941  0.6332 -0.3589
13584TIP3    H262244   6.129   2.493  14.271 -1.0265  0.8614 -0.6774
13585TIP3   OH262245   5.337   2.669  13.713  0.1788  0.4181 -0.3633
13585TIP3    H162246   5.425   2.646  13.743  0.3156 -1.1606 -1.8451
13585TIP3    H262247   5.278   2.623  13.772  0.4230 -1.0832 -1.2368
13586TIP3   OH262248   5.563   3.447  13.534 -0.1468 -0.3734  0.7054
13586TIP3    H162249   5.645   3.471  13.491  0.7134 -0.3151  2.3447
13586TIP3    H262250   5.535   3.526  13.580 -0.4185 -0.7790  1.2498
13587TIP3   OH262251   5.674   4.603  13.134 -0.5517  0.4082 -0.2265
13587TIP3    H162252   5.704   4.514  13.151 -1.9036 -0.0015  0.1187
13587TIP3    H262253   5.678   4.646  13.220 -0.5074  0.4915 -0.2698
13588TIP3   OH262254   1.828   1.702  13.293 -0.3749  1.0248 -0.2284
13588TIP3    H162255   1.817   1.775  13.233 -1.4280 -0.9811 -2.6061
13588TIP3    H262256   1.740   1.666  13.304  0.3874 -1.1782 -0.8867
13589TIP3   OH262257   1.840   0.178  14.451 -0.1955 -0.3673 -0.0302
13589TIP3    H162258   1.749   0.196  14.473  0.0114 -0.2001  0.7152
13589TIP3    H262259   1.881   0.157  14.535 -0.0383 -2.6762 -0.6011
13590TIP3   OH262260   2.957   4.341  13.069 -0.7234 -0.5186 -0.6852
13590TIP3    H162261   3.052   4.343  13.069 -0.7195 -0.7025 -0.7651
13590TIP3    H262262   2.933   4.315  13.157 -0.7133  0.0792 -0.4977
13591TIP3   OH262263   0.939   2.472  14.162 -0.1863  0.2353  0.2522
13591TIP3    H162264   0.934   2.549  14.218 -0.3529  1.4653 -1.3692
13591TIP3    H262265   0.925   2.506  14.073  0.2560 -1.5917 -0.5697
13592TIP3   OH262266   4.802   1.413   1.374 -0.7946 -0.3432 -0.6802
13592TIP3    H162267   4.725   1.470   1.371 -0.7050 -0.0215  1.3869
13592TIP3    H262268   4.770   1.332   1.412 -0.4450 -0.8406 -1.4287
13593TIP3   OH262269   3.831   3.559   5.698 -0.5121 -0.0078 -0.0750
13593TIP3    H162270   3.767   3.595   5.636  1.3964  0.2937 -1.9785
13593TIP3    H262271   3.906   3.618   5.691  0.2306 -0.7003  1.6362
13594TIP3   OH262272   3.731   6.855   5.589 -1.0468 -1.0460  0.1294
13594TIP3    H162273   3.721   6.872   5.683 -0.0428 -0.0270  0.0761
13594TIP3    H262274   3.709   6.938   5.547  0.9628 -0.7059 -0.3527
13595TIP3   OH262275   0.583   0.071   1.748 -0.2434 -0.3139  0.0080
13595TIP3    H162276   0.496   0.041   1.773 -0.4690  1.0785  0.9628
13595TIP3    H262277   0.587   0.056   1.654 -0.8055 -2.1124  0.2311
13596TIP3   OH262278   4.125   1.275   4.493  0.5512  0.1962  0.4163
13596TIP3    H162279   4.057   1.208   4.483  1.1312 -0.8147  2.6165
13596TIP3    H262280   4.164   1.283   4.406 -2.2733  0.7553 -0.9045
13597TIP3   OH262281   1.489   3.132  10.857 -0.3945  0.6393 -0.4471
13597TIP3    H162282   1.520   3.042  10.866 -0.3510  0.7111  0.1589
13597TIP3    H262283   1.556   3.184  10.900 -0.1751  1.0116 -1.2157
13598TIP3   OH262284   6.166   0.590   1.236  0.9822 -0.1870  0.4640
13598TIP3    H162285   6.090   0.539   1.209  2.7583 -1.3726 -3.0045
13598TIP3    H262286   6.185   0.646   1.161  3.1555  0.4948  1.4433
13599TIP3   OH262287   1.400   5.283   2.607 -0.4812 -0.3390  0.1514
13599TIP3    H162288   1.325   5.232   2.638 -0.0306 -0.8603  0.4048
13599TIP3    H262289   1.441   5.228   2.541  0.0324 -0.3258  0.4541
13600TIP3   OH262290   6.312   1.979  11.106  0.4543  0.5150  0.3604
13600TIP3    H162291   6.239   1.967  11.167 -1.1256 -0.3277 -1.6085
13600TIP3    H262292   6.285   2.053  11.051  0.2459 -0.8596 -1.4728
13601TIP3   OH262293   0.578   5.366   2.978  0.2846 -1.1890  0.5792
13601TIP3    H162294   0.501   5.421   2.964  1.3840  0.1677 -0.4646
13601TIP3    H262295   0.608   5.388   3.066 -0.5155 -1.7361  0.9955
13602TIP3   OH262296   6.237   3.363  14.434  0.9635  0.6182 -0.3466
13602TIP3    H162297   6.156   3.388  14.390  1.2985  0.2923 -1.1776
13602TIP3    H262298   6.272   3.446  14.467 -0.1390  0.6537  0.8185
13603TIP3   OH262299   4.258   6.000  15.585  0.3361 -0.1172  0.1887
13603TIP3    H162300   4.347   5.978  15.614  0.4410  0.5753  0.3952
13603TIP3    H262301   4.265   6.003  15.489  0.3742 -0.7418  0.1692
13604TIP3   OH262302   3.873   0.137   3.007 -0.5744 -0.7126 -0.2902
13604TIP3    H162303   3.881   0.192   2.930 -3.0398 -0.7259 -0.6279
13604TIP3    H262304   3.832   0.057   2.975  0.0382 -1.4570  0.7378
13605TIP3   OH262305   3.247   5.449   3.264  0.0421  0.3838 -0.0259
13605TIP3    H162306   3.248   5.489   3.350 -0.1373 -0.3277  0.3177
13605TIP3    H262307   3.329   5.399   3.260  1.2102  2.2464 -1.1837
13606TIP3   OH262308   4.359   4.289  15.153 -0.2690 -0.0550 -0.2018
13606TIP3    H162309   4.319   4.367  15.114 -0.0470  0.4047  0.4769
13606TIP3    H262310   4.420   4.257  15.085 -0.9809 -0.1391 -0.8138
13607TIP3   OH262311   5.876   0.816  15.326 -0.3540 -0.6040 -0.1385
13607TIP3    H162312   5.941   0.884  15.306 -1.1069  0.3705  0.6834
13607TIP3    H262313   5.929   0.742  15.357  0.4662 -0.3895 -0.9600
13608TIP3   OH262314   4.928   2.795  13.241 -0.2876 -0.5552  0.1445
13608TIP3    H162315   4.958   2.863  13.302 -1.9709  0.8325 -0.4959
13608TIP3    H262316   4.993   2.725  13.250 -1.1411 -1.0999  4.5714
13609TIP3   OH262317   0.674   4.401  16.392 -0.3367  0.4186  0.0262
13609TIP3    H162318   0.642   4.491  16.388 -0.1435  0.5204  0.7451
13609TIP3    H262319   0.732   4.399  16.468 -0.4688 -0.3514  0.1153
13610TIP3   OH262320   2.212   0.835  16.316  0.2613  0.1280  0.1526
13610TIP3    H162321   2.258   0.761  16.355  2.1022  0.9397 -0.3808
13610TIP3    H262322   2.122   0.828  16.349  1.1783 -0.4842  2.7126
13611TIP3   OH262323   6.109   0.247   0.653  0.1113 -0.1543  0.0304
13611TIP3    H162324   6.169   0.311   0.691 -0.1597  1.0566 -1.4601
13611TIP3    H262325   6.022   0.276   0.681  0.1469 -2.0377  2.3834
13612TIP3   OH262326   4.551   4.195  11.729 -0.2019 -0.0784  0.1454
13612TIP3    H162327   4.624   4.202  11.789  0.4513  0.6909 -0.6953
13612TIP3    H262328   4.505   4.116  11.755  2.7048 -2.4098 -1.2261
13613TIP3   OH262329   1.434   2.579   1.983 -0.1324 -0.4164 -0.0340
13613TIP3    H162330   1.488   2.585   1.904  0.0553  0.6942  0.1630
13613TIP3    H262331   1.355   2.629   1.962  0.0619  0.1521  0.5964
13614TIP3   OH262332   5.520   4.799   1.187 -0.1385 -0.1582  0.2590
13614TIP3    H162333   5.587   4.737   1.215  0.4711  0.9137  1.2420
13614TIP3    H262334   5.558   4.842   1.110  0.3011  0.4179  0.7895
13615TIP3   OH262335   5.173   3.650  15.499  0.1393 -0.2883 -0.7121
13615TIP3    H162336   5.101   3.712  15.486 -1.9530 -2.9053 -2.4311
13615TIP3    H262337   5.148   3.600  15.576  1.4914  0.4229  0.2509
13616TIP3   OH262338   3.738   0.459  16.083  0.5344 -0.6988 -0.4023
13616TIP3    H162339   3.737   0.554  16.084 -1.8674 -0.6443 -1.3194
13616TIP3    H262340   3.818   0.436  16.036  1.2222  0.8240 -0.0504
13617TIP3   OH262341   2.564   0.830  14.902 -0.3704 -0.2420 -0.0607
13617TIP3    H162342   2.512   0.840  14.982 -1.0567  2.9115 -0.7694
13617TIP3    H262343   2.638   0.889  14.915 -0.1583 -0.1719 -1.4977
13618TIP3   OH262344   6.818   3.852  15.440 -0.3335  0.3095  0.6404
13618TIP3    H162345   6.855   3.870  15.354 -2.0692  1.6647  0.1380
13618TIP3    H262346   6.894   3.855  15.499  0.8318 -0.3428 -0.7522
13619TIP3   OH262347   6.746   3.642   2.289  0.0891 -0.4536  0.3366
13619TIP3    H162348   6.692   3.721   2.288 -1.5627 -1.5313  0.0207
13619TIP3    H262349   6.830   3.671   2.326 -0.1759  1.5956 -0.5111
13620TIP3   OH262350   4.655   0.547   3.443 -0.0474  0.5987  0.1910
13620TIP3    H162351   4.591   0.486   3.407  0.4844 -0.7317  1.4167
13620TIP3    H262352   4.732   0.538   3.386 -0.4113  1.1201 -0.4033
13621TIP3   OH262353   4.575   4.172   5.550  0.2872  0.4249  0.1374
13621TIP3    H162354   4.637   4.138   5.486  0.6175  2.6963 -0.8319
13621TIP3    H262355   4.627   4.184   5.630  0.7062  0.8048 -0.1896
13622TIP3   OH262356   4.677   0.586   0.079 -0.2679  0.6247 -0.5114
13622TIP3    H162357   4.645   0.590  -0.011  0.8909  0.7630 -0.9288
13622TIP3    H262358   4.711   0.497   0.088 -2.1968 -0.0847  0.4581
13623TIP3   OH262359   1.359   3.213   2.174 -0.5126 -0.2268  0.0451
13623TIP3    H162360   1.398   3.275   2.236  1.2965 -1.2414  0.0061
13623TIP3    H262361   1.355   3.130   2.223 -3.1533 -0.0992  0.1922
13624TIP3   OH262362   2.492   2.193   1.008 -0.2424 -0.0679 -0.1876
13624TIP3    H162363   2.531   2.106   1.001 -0.2290 -0.0257 -0.6394
13624TIP3    H262364   2.442   2.190   1.090 -0.9322 -0.7711 -0.6315
13625TIP3   OH262365   3.808   0.536  14.497 -0.3560 -0.5025  0.3587
13625TIP3    H162366   3.855   0.619  14.505 -2.9053  0.9082  2.0284
13625TIP3    H262367   3.859   0.474  14.550  0.7257  0.4007  0.4091
13626TIP3   OH262368   0.391   4.914  14.077  0.2522 -0.0405 -0.0963
13626TIP3    H162369   0.334   4.932  14.152  0.1754 -1.9964  0.3827
13626TIP3    H262370   0.333   4.876  14.012 -0.0602  3.3228 -1.9990
13627TIP3   OH262371   3.746   6.512   2.731  0.0241  0.2187 -0.5595
13627TIP3    H162372   3.707   6.506   2.644 -1.7500  0.6429  0.1603
13627TIP3    H262373   3.675   6.543   2.787  1.1024 -0.1157  1.0659
13628TIP3   OH262374   0.435   2.153   4.532 -0.0526  0.2468  0.1973
13628TIP3    H162375   0.508   2.145   4.593  0.8677  1.4150 -0.7122
13628TIP3    H262376   0.412   2.246   4.533  0.6156  0.4905 -1.9017
13629TIP3   OH262377   2.009   5.506   1.056 -0.4682  0.7562  0.6770
13629TIP3    H162378   1.953   5.550   1.120 -0.3310  1.2117  0.4940
13629TIP3    H262379   1.961   5.428   1.031 -0.7598  0.8463  0.9521
13630TIP3   OH262380   5.571   3.473   1.316  0.4847  0.2533 -0.0516
13630TIP3    H162381   5.563   3.385   1.279  1.0853 -0.0097  0.4223
13630TIP3    H262382   5.665   3.484   1.333  0.3128  0.6607  0.6678
13631TIP3   OH262383   4.756   2.977   1.734  0.0230  0.3054 -0.4811
13631TIP3    H162384   4.675   2.930   1.756 -0.8625  1.9036 -0.1680
13631TIP3    H262385   4.770   2.960   1.641 -0.9015  0.3424 -0.6332
13632TIP3   OH262386   0.261   5.204  11.788  0.3388  0.6953 -0.7389
13632TIP3    H162387   0.324   5.216  11.717 -0.0489 -0.0309 -1.2190
13632TIP3    H262388   0.214   5.286  11.793  0.3798  0.7580 -1.3162
13633TIP3   OH262389   0.966   2.776  11.224  0.1082  0.2741 -0.1722
13633TIP3    H162390   1.053   2.816  11.214  0.5519 -0.2954  1.1427
13633TIP3    H262391   0.926   2.785  11.138  2.3535 -1.4483 -1.5392
13634TIP3   OH262392   6.358   1.876  15.936 -0.3169  0.6679  0.2769
13634TIP3    H162393   6.284   1.839  15.889 -0.2004  1.0855 -0.2427
13634TIP3    H262394   6.429   1.813  15.922  0.1676  1.5471 -1.4539
13635TIP3   OH262395   2.183   0.806   4.230 -0.0152 -0.4155 -0.1647
13635TIP3    H162396   2.203   0.875   4.166  0.2363  0.7771  1.1640
13635TIP3    H262397   2.167   0.729   4.176 -0.7232  0.7580 -1.7329
13636TIP3   OH262398   5.933   4.625   4.728 -0.1588 -0.1102 -0.1797
13636TIP3    H162399   5.959   4.662   4.643 -1.4013 -0.0353 -0.5428
13636TIP3    H262400   6.016   4.602   4.770  0.5712  1.3034 -0.7540
13637TIP3   OH262401   5.443   3.980   4.012 -0.3846 -0.3520 -0.1699
13637TIP3    H162402   5.423   4.074   4.006 -2.6587 -0.4176  3.3398
13637TIP3    H262403   5.362   3.937   3.983 -0.9875 -1.0106  2.2653
13638TIP3   OH262404   4.865   1.683  11.760  0.0619  0.2661 -0.0882
13638TIP3    H162405   4.890   1.762  11.808 -1.5575  0.6629  0.1462
13638TIP3    H262406   4.775   1.665  11.788 -0.8265  0.3000 -2.6755
13639TIP3   OH262407   1.331   5.751   2.376 -0.7712 -0.3812  0.0112
13639TIP3    H162408   1.424   5.753   2.352 -0.8315  0.0229 -0.1966
13639TIP3    H262409   1.311   5.842   2.400 -2.3773  0.8407 -4.8216
13640TIP3   OH262410   5.640   6.355   3.532 -0.4432 -0.5533 -0.0601
13640TIP3    H162411   5.565   6.318   3.579 -0.8989 -0.4956 -0.7218
13640TIP3    H262412   5.606   6.372   3.444 -0.2472  1.4595  0.2192
13641TIP3   OH262413   0.438   4.562   5.943  0.0559 -0.3622 -0.6954
13641TIP3    H162414   0.367   4.549   5.880  0.5390 -2.0516 -0.9297
13641TIP3    H262415   0.516   4.577   5.889 -0.0968  1.6143 -0.4388
13642TIP3   OH262416   5.944   3.562  15.552  0.4653  0.1867  0.6631
13642TIP3    H162417   6.021   3.574  15.608  0.7654  1.4211  0.0118
13642TIP3    H262418   5.970   3.597  15.467  0.2107 -2.1569 -0.4607
13643TIP3   OH262419   5.835   2.813  14.676  0.2499 -0.4221 -0.4275
13643TIP3    H162420   5.854   2.869  14.752  1.0409 -1.9189  0.5114
13643TIP3    H262421   5.781   2.868  14.620  0.5220  1.0992  0.7228
13644TIP3   OH262422   0.227   3.902  13.382 -0.1985 -0.2664 -0.4292
13644TIP3    H162423   0.219   3.976  13.443  0.2967  0.4341 -1.1976
13644TIP3    H262424   0.321   3.895  13.365 -0.2182 -1.2061 -0.2174
13645TIP3   OH262425   3.483   1.805  13.644  0.4385  0.4257  0.3484
13645TIP3    H162426   3.482   1.728  13.586 -0.4711  2.2966 -2.3577
13645TIP3    H262427   3.573   1.809  13.677  1.2658 -0.3187 -1.6510
13646TIP3   OH262428   3.556   4.256  13.680 -0.8365  0.0799 -0.4707
13646TIP3    H162429   3.540   4.168  13.716  1.4477 -0.6134 -0.9653
13646TIP3    H262430   3.581   4.240  13.589 -0.0544  1.2145 -0.4695
13647TIP3   OH262431   4.499   0.430  15.292  0.6519 -0.2610 -0.1853
13647TIP3    H162432   4.531   0.461  15.377 -3.0128  3.2559  0.2577
13647TIP3    H262433   4.550   0.478  15.227  0.4150  0.6167  0.2639
13648TIP3   OH262434   0.878   6.843   2.777  0.2019 -0.5465 -0.4443
13648TIP3    H162435   0.924   6.905   2.833  0.9459 -1.5985  0.1373
13648TIP3    H262436   0.907   6.864   2.688  1.6519 -1.0393 -0.1135
13649TIP3   OH262437   5.674   2.745   0.216 -0.8188  0.8171  0.3560
13649TIP3    H162438   5.628   2.675   0.264 -1.1626  1.3091  0.7596
13649TIP3    H262439   5.641   2.738   0.127 -0.9701  0.5542  0.4302
13650TIP3   OH262440   0.211   4.598   0.314  0.0047  0.2970 -0.7324
13650TIP3    H162441   0.131   4.650   0.311  0.5742  1.2044 -0.7449
13650TIP3    H262442   0.271   4.643   0.254  1.1225  0.7049  0.6348
13651TIP3   OH262443   2.978   2.594   4.214 -0.1251 -0.1988 -0.1526
13651TIP3    H162444   2.937   2.644   4.144  1.1508 -0.4855 -1.1409
13651TIP3    H262445   2.921   2.518   4.227 -1.4340  0.8598  0.5269
13652TIP3   OH262446   3.968   4.021   3.269 -0.0860 -0.3047 -0.4253
13652TIP3    H162447   3.883   4.051   3.237 -0.4527  0.7110  1.3579
13652TIP3    H262448   4.019   4.102   3.279  0.9082 -0.8526 -0.9544
13653TIP3   OH262449   4.506   5.517   3.092  0.1217  0.0921 -0.0277
13653TIP3    H162450   4.595   5.549   3.108 -0.3205  0.7242  1.2924
13653TIP3    H262451   4.450   5.578   3.139 -1.3080  1.6070 -3.3688
13654TIP3   OH262452   2.654   0.306  12.812 -0.3394  0.6066 -0.5862
13654TIP3    H162453   2.661   0.382  12.871  1.0743  1.8477 -2.2262
13654TIP3    H262454   2.565   0.273  12.825 -0.5652  1.7538  1.1081
13655TIP3   OH262455   3.023   0.348   4.014  0.6094  0.3488 -0.6314
13655TIP3    H162456   3.108   0.352   3.970  0.2024  0.0230 -1.4643
13655TIP3    H262457   3.000   0.440   4.030  0.0748  0.5794 -2.4849
13656TIP3   OH262458   5.043   6.806  15.816  0.1067 -0.0294 -0.2648
13656TIP3    H162459   4.974   6.756  15.860 -0.9169  2.3613  1.0255
13656TIP3    H262460   4.995   6.867  15.760  1.3168 -0.4092 -1.7859
13657TIP3   OH262461   6.522   3.134  17.026 -0.1809 -0.8932  0.6244
13657TIP3    H162462   6.446   3.189  17.005  0.2742 -0.7831 -0.8601
13657TIP3    H262463   6.489   3.071  17.090 -0.9117  0.6089  1.8137
13658TIP3   OH262464   4.999   0.237   3.028  0.3330 -0.4684 -0.5507
13658TIP3    H162465   4.972   0.223   2.937  0.6520  0.9989 -0.8854
13658TIP3    H262466   4.922   0.273   3.071  0.5111 -0.1416 -0.5037
13659TIP3   OH262467   2.033   1.856  15.312  0.2580  0.1779  0.0391
13659TIP3    H162468   2.108   1.822  15.361 -1.3352 -1.7852  1.2500
13659TIP3    H262469   2.035   1.807  15.229 -0.1280 -0.4673  0.4046
13660TIP3   OH262470   3.588   4.068  16.319 -0.1570  0.0589 -0.4136
13660TIP3    H162471   3.671   4.110  16.340 -0.9174  2.5761 -1.9479
13660TIP3    H262472   3.606   4.014  16.242  0.0888  0.4725 -0.6482
13661TIP3   OH262473   6.217   1.585   4.578 -0.0896  0.4287  0.1225
13661TIP3    H162474   6.150   1.573   4.511  0.2258  1.2955 -0.3634
13661TIP3    H262475   6.289   1.629   4.532  0.4212  0.3757  0.8624
13662TIP3   OH262476   5.190   6.024   4.177 -0.4205 -0.3176  0.0641
13662TIP3    H162477   5.200   5.936   4.214  1.1901 -0.4632 -0.6381
13662TIP3    H262478   5.261   6.075   4.216 -0.5586  0.3319 -0.5120
13663TIP3   OH262479   1.310   5.104   0.533  0.5585 -0.4399 -0.0536
13663TIP3    H162480   1.306   5.195   0.504 -0.2359  0.1982  1.8961
13663TIP3    H262481   1.398   5.074   0.508  0.7137  0.7433 -0.9961
13664TIP3   OH262482   3.739   1.233  12.712 -0.1169 -0.3671  0.2712
13664TIP3    H162483   3.657   1.190  12.736 -0.8367  0.2657 -0.9585
13664TIP3    H262484   3.763   1.194  12.627  2.0079 -2.0727  1.5356
13665TIP3   OH262485   0.293   5.297  14.497  0.0528 -0.1810  0.2040
13665TIP3    H162486   0.218   5.355  14.511  0.1011  0.3478 -1.4627
13665TIP3    H262487   0.339   5.297  14.581 -2.3119 -1.3388  1.6361
13666TIP3   OH262488   6.226   6.296  11.574  0.0090  0.2961 -0.0188
13666TIP3    H162489   6.221   6.230  11.505 -1.1878  0.8575 -0.4974
13666TIP3    H262490   6.320   6.307  11.590  0.2428 -1.3280 -0.0916
13667TIP3   OH262491   2.375   5.413  11.237 -0.3430  0.2447 -0.5139
13667TIP3    H162492   2.429   5.402  11.158  2.1479 -2.8627  1.4008
13667TIP3    H262493   2.382   5.506  11.258  0.3040  0.8338 -2.9825
13668TIP3   OH262494   0.760   6.475  15.549 -0.0394  0.2247  0.0465
13668TIP3    H162495   0.798   6.561  15.529 -2.5787  1.3731 -0.2273
13668TIP3    H262496   0.836   6.416  15.556  1.7703  2.4158  0.0164
13669TIP3   OH262497   5.165   5.262  13.786 -0.0175 -0.0770 -0.5114
13669TIP3    H162498   5.211   5.237  13.866 -0.3874 -0.5144 -0.4350
13669TIP3    H262499   5.209   5.214  13.716  0.4136  0.4336 -0.5958
13670TIP3   OH262500   5.857   1.959   6.241 -0.3520  0.3050  0.3668
13670TIP3    H162501   5.929   2.022   6.238  0.5043 -0.6555  0.4419
13670TIP3    H262502   5.800   1.991   6.311 -0.0403  1.1016  0.2701
13671TIP3   OH262503   5.731   5.893  14.547  0.3745  0.0783  0.3382
13671TIP3    H162504   5.661   5.938  14.499  0.5163  0.8571  0.8408
13671TIP3    H262505   5.709   5.800  14.539  0.3505  0.1861 -1.1457
13672TIP3   OH262506   6.367   4.576  12.262 -0.5448 -0.0957  0.3018
13672TIP3    H162507   6.444   4.521  12.272 -1.3545 -1.1018  1.2077
13672TIP3    H262508   6.294   4.523  12.295 -1.7911  0.4557 -1.3763
13673TIP3   OH262509   4.249   3.654  11.980 -0.2931  0.7908 -0.0395
13673TIP3    H162510   4.166   3.696  11.958 -0.8217  0.0726  0.5504
13673TIP3    H262511   4.231   3.606  12.061  0.5280  0.1299 -0.2365
13674TIP3   OH262512   6.664   3.263  16.086  0.0779 -0.1706  0.0347
13674TIP3    H162513   6.659   3.343  16.138 -1.2254  0.3126 -0.7749
13674TIP3    H262514   6.582   3.216  16.105  0.8910 -1.3972  0.6139
13675TIP3   OH262515   6.623   2.137  15.454 -0.3665  0.1872 -0.1443
13675TIP3    H162516   6.636   2.204  15.521  3.3161  0.2230 -0.6936
13675TIP3    H262517   6.655   2.177  15.373 -3.3030 -0.3934 -1.7417
13676TIP3   OH262518   4.403   1.394   2.931 -0.0461 -0.3290 -0.4882
13676TIP3    H162519   4.321   1.411   2.978  0.1462  1.0344 -0.5932
13676TIP3    H262520   4.383   1.415   2.840  0.6556  0.9801 -0.3671
13677TIP3   OH262521   1.171   5.177  13.691 -0.2792 -0.2961 -0.6917
13677TIP3    H162522   1.124   5.184  13.608 -2.7795 -0.5969  0.6004
13677TIP3    H262523   1.237   5.109  13.676  0.1666  0.5018 -2.7381
13678TIP3   OH262524   1.401   4.652  13.340 -0.4538  0.5501 -0.4875
13678TIP3    H162525   1.371   4.742  13.334 -0.3187  0.6711  0.5337
13678TIP3    H262526   1.367   4.610  13.261 -1.0164  1.3503 -0.6798
13679TIP3   OH262527   2.019   1.115   2.725 -0.2834  0.1170  0.1685
13679TIP3    H162528   1.925   1.111   2.706  0.0223  1.1894 -1.7577
13679TIP3    H262529   2.034   1.204   2.757  0.2782  0.4140 -0.8749
13680TIP3   OH262530   0.294   5.572   1.976  0.5269  0.2632  0.4008
13680TIP3    H162531   0.277   5.489   1.932 -1.4971 -1.1639  3.5065
13680TIP3    H262532   0.216   5.625   1.958  0.2322  0.1194  1.1802
13681TIP3   OH262533   3.117   5.298   0.529  0.0325 -0.2904  0.6956
13681TIP3    H162534   3.114   5.337   0.617 -0.4722 -2.1231  1.5431
13681TIP3    H262535   3.025   5.288   0.504  0.1118 -1.6841  0.8822
13682TIP3   OH262536   5.169   0.187  17.013  0.5145  0.6682 -0.4992
13682TIP3    H162537   5.130   0.267  16.977 -0.7600  0.2724 -0.0738
13682TIP3    H262538   5.195   0.211  17.101 -1.2553  0.2629  0.1811
13683TIP3   OH262539   0.648   4.823  15.591 -0.4524  0.0255  0.0098
13683TIP3    H162540   0.618   4.894  15.534 -0.1857  0.0184 -0.1409
13683TIP3    H262541   0.591   4.749  15.570  0.6438 -0.4730 -1.4041
13684TIP3   OH262542   2.445   5.596  12.382  0.1204 -0.6403  0.2328
13684TIP3    H162543   2.400   5.598  12.466 -0.4162 -1.1697 -0.0333
13684TIP3    H262544   2.398   5.660  12.328  0.9535  0.2795  0.5603
13685TIP3   OH262545   5.013   5.623  10.307 -0.2972 -0.2706  0.4925
13685TIP3    H162546   5.023   5.542  10.358 -0.4822  1.2105  3.0571
13685TIP3    H262547   4.923   5.651  10.324  0.1177  1.0628  0.6320
13686TIP3   OH262548   0.138   1.847   1.197 -0.4852  0.1191 -0.1875
13686TIP3    H162549   0.170   1.895   1.274 -2.6446  1.7628 -0.2094
13686TIP3    H262550   0.111   1.915   1.136  1.0506 -1.1592 -2.4242
13687TIP3   OH262551   5.919   2.481  13.679  0.2240 -0.1807 -0.7359
13687TIP3    H162552   5.836   2.432  13.671  0.7416 -0.7918 -2.8121
13687TIP3    H262553   5.907   2.535  13.757 -0.9593 -2.5265  0.8281
13688TIP3   OH262554   2.621   3.428  13.518  0.1661 -0.4804  0.0434
13688TIP3    H162555   2.596   3.371  13.591 -2.7241  0.1888 -0.3052
13688TIP3    H262556   2.683   3.490  13.557 -1.4467 -0.0032  2.0962
13689TIP3   OH262557   1.279   4.606   5.115  0.4724 -0.1552 -0.5052
13689TIP3    H162558   1.200   4.561   5.145 -0.6349  0.5190 -2.2831
13689TIP3    H262559   1.341   4.595   5.187 -1.3772 -0.2887  1.1498
13690TIP3   OH262560   1.484   2.899   0.403  0.0496 -0.0734 -0.0027
13690TIP3    H162561   1.497   2.904   0.309 -1.8869  1.0445 -0.2824
13690TIP3    H262562   1.418   2.830   0.415 -1.0851  1.0230  0.3107
13691TIP3   OH262563   2.087   1.796   3.831  0.8026  0.1344  0.4604
13691TIP3    H162564   2.058   1.762   3.915  0.4599 -0.2534  0.1940
13691TIP3    H262565   2.008   1.834   3.792  0.9228  0.1785  0.2569
13692TIP3   OH262566   5.774   0.316   6.295 -0.5545  0.2954  0.3899
13692TIP3    H162567   5.832   0.391   6.279  0.0593 -0.4599 -1.1069
13692TIP3    H262568   5.788   0.293   6.387  2.1574 -0.3643 -0.1202
13693TIP3   OH262569   1.711   0.201  13.615 -0.5230  0.5327  0.0083
13693TIP3    H162570   1.739   0.164  13.699 -0.2310  1.3358  0.2756
13693TIP3    H262571   1.761   0.153  13.550 -0.8053 -0.1513  0.2816
13694TIP3   OH262572   2.030   3.246   5.464 -0.1508  0.7943 -0.1256
13694TIP3    H162573   1.988   3.288   5.389 -1.1714 -0.5837 -0.3545
13694TIP3    H262574   2.014   3.153   5.452 -0.5958  0.5519  1.9420
13695TIP3   OH262575   5.937   2.874  13.905 -0.0148 -0.2907  0.1921
13695TIP3    H162576   5.908   2.885  13.815  0.1078 -0.0476  0.1833
13695TIP3    H262577   5.886   2.800  13.937  1.7226 -2.0695 -0.8628
13696TIP3   OH262578   0.117   1.815   5.869 -0.2136 -0.6444 -0.3121
13696TIP3    H162579   0.028   1.838   5.893 -0.2480 -0.9336 -0.1682
13696TIP3    H262580   0.114   1.721   5.851  0.2978 -0.8827  0.7745
13697TIP3   OH262581   0.656   2.713  15.250 -0.0903  0.1313  0.1669
13697TIP3    H162582   0.617   2.628  15.272  2.5754 -1.0557  0.8283
13697TIP3    H262583   0.717   2.694  15.179 -0.1424  1.7024 -0.3394
13698TIP3   OH262584   3.657   4.353  12.811  0.0221 -0.4437 -0.3661
13698TIP3    H162585   3.648   4.448  12.816 -0.2543 -0.5371  1.7730
13698TIP3    H262586   3.709   4.329  12.888 -0.5482 -2.0926 -0.4410
13699TIP3   OH262587   3.229   3.278   0.194  0.0460 -0.4478  0.4946
13699TIP3    H162588   3.209   3.361   0.150 -2.6860 -0.3001  1.7794
13699TIP3    H262589   3.263   3.305   0.280  2.4012 -0.7333 -0.2861
13700TIP3   OH262590   0.183   2.263  12.800 -0.2818  0.0786 -0.2314
13700TIP3    H162591   0.098   2.282  12.760  0.1948  0.6140 -1.0211
13700TIP3    H262592   0.168   2.274  12.894 -1.1119  0.0563 -0.3523
13701TIP3   OH262593   5.552   6.004  14.318 -0.1138  0.3313 -0.1729
13701TIP3    H162594   5.506   6.073  14.270  1.5530  2.7903  1.4717
13701TIP3    H262595   5.497   5.987  14.394  0.7912  2.1622  0.9881
13702TIP3   OH262596   3.366   0.353  15.531 -0.1749 -0.3470  0.0245
13702TIP3    H162597   3.307   0.368  15.605 -1.4078 -0.0700 -0.9781
13702TIP3    H262598   3.349   0.426  15.472  1.1786 -0.2785 -0.3012
13703TIP3   OH262599   1.810   2.686   2.231  0.5430 -0.0297  0.5895
13703TIP3    H162600   1.855   2.654   2.153  0.5722 -0.0685  0.6222
13703TIP3    H262601   1.873   2.673   2.302 -0.0642 -1.4434  0.8925
13704TIP3   OH262602   4.360   6.335  13.423 -0.0541 -0.0725  0.1408
13704TIP3    H162603   4.269   6.365  13.418 -0.1861 -0.6163 -0.8430
13704TIP3    H262604   4.354   6.243  13.447  0.2819  0.0903  0.9019
13705TIP3   OH262605   6.099   5.476  14.323 -0.2647 -0.0739  0.0832
13705TIP3    H162606   6.079   5.483  14.416 -0.3313 -1.6924  0.2139
13705TIP3    H262607   6.045   5.543  14.282 -3.4447 -1.9870  0.7952
13706TIP3   OH262608   3.804   6.439  12.699  0.1591  0.0403 -0.3443
13706TIP3    H162609   3.751   6.388  12.760  2.9522 -1.6976  0.8628
13706TIP3    H262610   3.873   6.477  12.754  0.4827  1.8254 -1.8697
13707TIP3   OH262611   0.345   3.521   4.103 -0.4672 -0.0034  0.4665
13707TIP3    H162612   0.268   3.485   4.059  0.3894 -1.1198 -0.1899
13707TIP3    H262613   0.310   3.581   4.168 -1.8525  0.1619 -0.3942
13708TIP3   OH262614   0.529   2.842   5.605 -0.0689  0.0393 -0.5831
13708TIP3    H162615   0.619   2.819   5.581  0.1115  1.8278 -1.8234
13708TIP3    H262616   0.536   2.876   5.694  0.6580  1.0137 -0.9941
13709TIP3   OH262617   6.772   4.090  15.171 -0.1462  0.4097  0.4233
13709TIP3    H162618   6.835   4.120  15.236  2.0589  0.8418 -1.7751
13709TIP3    H262619   6.780   4.152  15.099 -0.7866 -1.3181 -1.2342
13710TIP3   OH262620   2.368   3.844   4.131  0.5316  0.0219 -0.0401
13710TIP3    H162621   2.282   3.804   4.145 -0.5041  2.2771  0.5073
13710TIP3    H262622   2.429   3.770   4.131 -1.2306 -1.5326  0.9643
13711TIP3   OH262623   3.374   6.591  12.726  0.3090 -0.0413 -0.7973
13711TIP3    H162624   3.384   6.535  12.803 -0.0304 -0.2756 -0.9205
13711TIP3    H262625   3.397   6.534  12.653  0.9810  0.2845 -0.8429
13712TIP3   OH262626   1.906   0.952  15.537 -0.1209 -0.7593  0.2644
13712TIP3    H162627   1.904   0.860  15.563 -0.6607 -1.0821 -0.8659
13712TIP3    H262628   1.925   0.950  15.443  2.2208  0.3872  0.6542
13713TIP3   OH262629   5.492   2.794  13.015 -0.3999  0.3690 -0.2538
13713TIP3    H162630   5.577   2.823  13.047 -0.1473  0.5655 -1.0706
13713TIP3    H262631   5.428   2.840  13.070  0.0051 -0.3473  0.8577
13714TIP3   OH262632   1.651   1.215  14.462  0.2631 -0.1723 -0.0898
13714TIP3    H162633   1.623   1.304  14.480  0.6622  0.1441 -0.9647
13714TIP3    H262634   1.711   1.194  14.533 -0.0054  0.1689  0.2434
13715TIP3   OH262635   3.457   1.734   1.069 -0.0559  0.8338  0.6856
13715TIP3    H162636   3.501   1.722   1.153  1.4587 -2.1982 -0.3870
13715TIP3    H262637   3.526   1.764   1.009  0.1604 -1.7450 -0.4938
13716TIP3   OH262638   1.121   1.708  12.859 -0.5615  0.7257 -0.5590
13716TIP3    H162639   1.035   1.667  12.852 -0.1744 -0.1928 -0.0736
13716TIP3    H262640   1.149   1.691  12.949 -0.7838  2.8878 -0.0397
13717TIP3   OH262641   3.266   4.172   2.791  0.2753 -0.5463 -0.3295
13717TIP3    H162642   3.302   4.087   2.816 -0.3137 -0.9110 -0.7060
13717TIP3    H262643   3.176   4.171   2.824 -0.8744 -1.4311 -3.1675
13718TIP3   OH262644   3.546   6.465  17.117 -0.0919 -0.7172  0.0776
13718TIP3    H162645   3.595   6.532  17.165 -1.2939  0.1815  0.0926
13718TIP3    H262646   3.523   6.400  17.184 -0.7700 -0.0509  0.4988
13719TIP3   OH262647   4.003   6.750   5.715  0.0954  0.6713 -0.2393
13719TIP3    H162648   3.909   6.765   5.711  0.1397  1.0110 -0.0902
13719TIP3    H262649   4.013   6.658   5.740 -0.1888  0.1187 -2.0297
13720TIP3   OH262650   3.475   6.124  12.589 -0.4015  0.2688 -0.1781
13720TIP3    H162651   3.418   6.093  12.518 -1.4606  1.6040  0.0315
13720TIP3    H262652   3.457   6.218  12.593  1.0619  0.5359  0.6138
13721TIP3   OH262653   2.768   6.230  13.913 -0.1951 -0.6054  0.4350
13721TIP3    H162654   2.703   6.291  13.879 -1.8632 -1.4603  1.9426
13721TIP3    H262655   2.800   6.271  13.994 -0.6622 -1.2893  0.9774
13722TIP3   OH262656   3.323   2.466  12.800 -0.6185 -0.2200  0.3862
13722TIP3    H162657   3.244   2.490  12.848 -0.9432 -1.4918  0.5254
13722TIP3    H262658   3.336   2.538  12.738 -1.9788 -0.0620  0.2484
13723TIP3   OH262659   0.881   2.111  12.985 -0.2456 -0.4002  0.2237
13723TIP3    H162660   0.930   2.188  13.015 -0.3026 -0.1484 -0.3201
13723TIP3    H262661   0.793   2.125  13.019 -0.6878  0.6052 -1.2340
13724TIP3   OH262662   2.814   1.632  13.581 -0.3567  0.6495 -0.4399
13724TIP3    H162663   2.745   1.644  13.516  0.6223 -0.1300 -1.6705
13724TIP3    H262664   2.815   1.714  13.631 -1.1492  1.2471 -1.3751
13725TIP3   OH262665   4.815   4.792   1.081 -0.5053 -0.3317  0.4035
13725TIP3    H162666   4.894   4.824   1.037 -0.6713 -0.1402  0.2387
13725TIP3    H262667   4.784   4.721   1.025  0.0578 -1.0174  0.9552
13726TIP3   OH262668   2.306   6.242  15.879  0.1645 -0.3039 -0.3396
13726TIP3    H162669   2.310   6.310  15.947 -1.2508  0.6265 -1.1291
13726TIP3    H262670   2.374   6.180  15.903 -0.3676 -0.0745  2.0010
13727TIP3   OH262671   2.453   6.679   1.470 -0.3277  0.6243  0.1799
13727TIP3    H162672   2.488   6.590   1.464 -0.1574  0.7757 -2.4598
13727TIP3    H262673   2.528   6.735   1.454 -0.8052  1.1430 -0.3104
13728TIP3   OH262674   1.436   5.638   4.204  0.2079  0.1045  0.1624
13728TIP3    H162675   1.384   5.656   4.126  1.0202  0.3397 -0.3338
13728TIP3    H262676   1.447   5.723   4.245  1.1606  0.2382 -0.3506
13729TIP3   OH262677   6.216   0.513   0.812  0.4059 -0.0022 -0.2202
13729TIP3    H162678   6.211   0.541   0.721 -1.7963  0.2206 -0.0697
13729TIP3    H262679   6.234   0.593   0.861  0.6090  0.0407 -0.3628
13730TIP3   OH262680   4.235   5.495   3.030  0.0660 -0.2831  0.6879
13730TIP3    H162681   4.329   5.483   3.021 -0.1615 -1.8434  0.0143
13730TIP3    H262682   4.211   5.448   3.110 -0.2318 -0.4707  0.4921
13731TIP3   OH262683   5.319   1.832   0.341  0.3706 -0.2529  0.5458
13731TIP3    H162684   5.305   1.894   0.412  1.2555  0.0143  0.4995
13731TIP3    H262685   5.287   1.749   0.375 -0.4711  0.1393  0.7495
13732TIP3   OH262686   4.550   0.508   2.390 -0.1414  0.1523 -1.0827
13732TIP3    H162687   4.593   0.557   2.320 -0.0005  0.6171 -0.6753
13732TIP3    H262688   4.518   0.574   2.451  1.0513 -0.2725  0.0610
13733TIP3   OH262689   4.841   6.148  16.261  0.2423 -0.1317  0.2563
13733TIP3    H162690   4.796   6.064  16.274 -0.7632  0.2885 -0.4275
13733TIP3    H262691   4.933   6.128  16.278  0.0560 -1.4493 -0.1734
13734TIP3   OH262692   0.558   5.623   0.924  0.3600  0.1240 -0.1528
13734TIP3    H162693   0.463   5.610   0.925  0.3913 -0.1371 -0.2814
13734TIP3    H262694   0.582   5.633   1.016  0.6358 -3.1914  0.2625
13735TIP3   OH262695   0.922   6.306   3.712  0.7545 -0.2082  0.4435
13735TIP3    H162696   0.995   6.244   3.714 -0.2226 -1.4010  0.2552
13735TIP3    H262697   0.919   6.335   3.620  0.6121 -0.6255  0.3146
13736TIP3   OH262698   4.204   4.482   2.814  0.2264 -0.1923 -0.6001
13736TIP3    H162699   4.222   4.395   2.848  1.3268  0.5573  0.8538
13736TIP3    H262700   4.132   4.515   2.868  1.2250  0.5739  0.3031
13737TIP3   OH262701   3.729   3.999   3.628  0.2077 -0.1893  0.4539
13737TIP3    H162702   3.742   4.072   3.690 -1.0920  0.5841 -0.1396
13737TIP3    H262703   3.711   4.042   3.545  0.1085 -1.2119 -0.0574
13738TIP3   OH262704   5.322   1.535  14.974  0.9135  0.0741  0.6955
13738TIP3    H162705   5.330   1.488  14.891 -1.1394  1.4196 -0.3553
13738TIP3    H262706   5.266   1.479  15.028 -0.5105  0.6688 -0.1028
13739TIP3   OH262707   2.516   0.996   0.259 -0.3384 -0.2461  0.2376
13739TIP3    H162708   2.597   0.974   0.305 -0.0543 -2.7623 -1.3059
13739TIP3    H262709   2.545   1.039   0.179 -0.3417 -2.7461 -1.1801
13740TIP3   OH262710   3.752   2.982   4.490 -0.4451  0.0342  0.2281
13740TIP3    H162711   3.793   2.923   4.554 -1.1035 -1.8793 -1.0102
13740TIP3    H262712   3.710   2.923   4.427 -0.4631  1.8377 -1.5557
13741TIP3   OH262713   6.651   5.589   6.035  0.0535 -0.9031  0.5013
13741TIP3    H162714   6.607   5.564   6.117  0.8209 -0.2702  1.1235
13741TIP3    H262715   6.736   5.545   6.039  0.2884 -0.4701  0.2768
13742TIP3   OH262716   0.805   4.755   4.459  0.1316  0.0882  0.0792
13742TIP3    H162717   0.869   4.686   4.440 -0.1945 -0.5444  1.1875
13742TIP3    H262718   0.749   4.717   4.527 -1.5831  0.5154 -1.0289
13743TIP3   OH262719   5.078   3.904   0.283 -0.2614  0.4550  0.1301
13743TIP3    H162720   5.070   3.856   0.366 -0.6525 -1.4793 -0.9766
13743TIP3    H262721   4.989   3.931   0.262 -0.1098  1.2825  0.5028
13744TIP3   OH262722   2.441   5.514   0.180 -0.1401 -0.3973  0.4281
13744TIP3    H162723   2.431   5.448   0.249  2.4947 -0.4455  0.8648
13744TIP3    H262724   2.406   5.594   0.219 -2.0822 -1.1650  0.3978
13745TIP3   OH262725   3.815   3.705   1.139 -0.2760  0.1608  0.3650
13745TIP3    H162726   3.789   3.743   1.055 -1.7385  0.1347  0.7692
13745TIP3    H262727   3.757   3.629   1.150 -0.5296  0.5177  1.6513
13746TIP3   OH262728   4.143   1.771   4.365  0.2405  0.1089  0.3854
13746TIP3    H162729   4.237   1.755   4.352  0.8661  2.7018  1.1135
13746TIP3    H262730   4.105   1.683   4.374  2.6756 -1.0138  0.6141
13747TIP3   OH262731   5.046   6.553   5.189  0.8916  0.0541 -0.0440
13747TIP3    H162732   5.025   6.498   5.264 -1.1695 -0.8102 -1.1721
13747TIP3    H262733   5.006   6.637   5.209  0.5158 -0.1145 -0.0816
13748TIP3   OH262734   2.116   0.977  14.070  0.2937 -0.4959 -0.2024
13748TIP3    H162735   2.105   1.032  14.147  1.3072  2.3499 -1.9687
13748TIP3    H262736   2.058   1.015  14.004 -0.7938 -3.0437 -0.8468
13749TIP3   OH262737   5.625   5.481  11.215  0.1964 -0.1864  0.4096
13749TIP3    H162738   5.550   5.421  11.221  0.5170 -0.5899  0.3669
13749TIP3    H262739   5.598   5.546  11.150 -0.4450  0.1373  0.9875
13750TIP3   OH262740   4.336   2.950   6.019  0.0066 -0.1253 -0.1318
13750TIP3    H162741   4.241   2.963   6.024  0.2166  1.0213  2.3743
13750TIP3    H262742   4.370   3.031   5.981  0.1044  0.2417  0.7203
13751TIP3   OH262743   0.592   6.602  14.213 -0.2067 -0.1063 -0.5560
13751TIP3    H162744   0.613   6.521  14.260  0.7805 -0.9410 -2.3282
13751TIP3    H262745   0.668   6.658  14.226 -0.7381  0.4228  0.3719
13752TIP3   OH262746   0.813   6.324  12.692 -0.9559  0.7559 -0.0661
13752TIP3    H162747   0.850   6.254  12.637 -2.4189  0.8655 -1.2577
13752TIP3    H262748   0.888   6.375  12.720 -0.0081 -0.3407 -0.5213
13753TIP3   OH262749   3.217   0.051  10.690 -0.1535  0.0192 -0.4641
13753TIP3    H162750   3.301   0.044  10.735 -0.0338 -1.1108 -0.8346
13753TIP3    H262751   3.152   0.051  10.760  0.1709  2.3254 -0.0814
13754TIP3   OH262752   1.934   5.947   0.339  0.5502  0.1739  0.1514
13754TIP3    H162753   2.022   5.982   0.326  0.7382 -0.4859 -0.3502
13754TIP3    H262754   1.887   6.017   0.385  0.6061  1.5398 -1.7661
13755TIP3   OH262755   1.692   2.844   1.939  0.1860  0.0328  0.0453
13755TIP3    H162756   1.732   2.925   1.908 -0.2761  0.4899  0.6097
13755TIP3    H262757   1.765   2.783   1.949  0.3778 -0.0589 -1.6565
13756TIP3   OH262758   5.342   6.780  12.652  0.1734  0.1310  0.0970
13756TIP3    H162759   5.389   6.851  12.697  3.1295 -0.6300 -1.4783
13756TIP3    H262760   5.295   6.824  12.581  0.0368  0.7408  0.5542
13757TIP3   OH262761   1.869   2.529   3.541  0.0413 -0.9556 -0.0547
13757TIP3    H162762   1.917   2.602   3.503 -0.1872  0.5803  2.4100
13757TIP3    H262763   1.905   2.520   3.629 -0.0227 -3.8001 -0.2264
13758TIP3   OH262764   6.467   3.562   6.179 -0.2019  0.2728 -0.6670
13758TIP3    H162765   6.533   3.493   6.186 -0.5198  0.1009  4.5120
13758TIP3    H262766   6.429   3.550   6.092  1.9430 -3.9741 -1.2908
13759TIP3   OH262767   1.558   4.916   6.193  0.3276 -0.1375  0.7120
13759TIP3    H162768   1.475   4.965   6.191  0.9572  0.9621  0.8381
13759TIP3    H262769   1.573   4.900   6.286  1.6917  2.2543  0.9977
13760TIP3   OH262770   2.396   5.278   0.741 -0.1624 -0.1947  0.1283
13760TIP3    H162771   2.395   5.200   0.685  1.1809 -0.5978  0.6443
13760TIP3    H262772   2.312   5.274   0.787 -0.5551 -0.7710 -0.6022
13761TIP3   OH262773   2.967   6.736   3.496 -0.2402 -0.2709 -0.2711
13761TIP3    H162774   2.980   6.742   3.591 -0.3057  2.6575 -0.3451
13761TIP3    H262775   3.049   6.701   3.462  0.0577 -0.6513  0.8106
13762TIP3   OH262776   1.956   4.701   2.797  0.7216 -0.3058 -0.3777
13762TIP3    H162777   1.885   4.747   2.751 -0.4860 -1.3137  0.4308
13762TIP3    H262778   1.950   4.731   2.887  0.9085 -0.8968 -0.1642
13763TIP3   OH262779   5.497   6.773  15.098 -0.1339  0.1374  0.5120
13763TIP3    H162780   5.522   6.771  15.006 -0.4611  2.0851  0.3507
13763TIP3    H262781   5.580   6.787  15.145  0.3082 -2.5993  0.7125
13764TIP3   OH262782   5.406   4.169   2.460  0.7723 -0.4854  0.0457
13764TIP3    H162783   5.400   4.219   2.541 -1.1661  1.8282 -1.3703
13764TIP3    H262784   5.362   4.086   2.480 -0.2358  0.2905  1.2366
13765TIP3   OH262785   6.750   6.044   0.155 -0.0577  0.3994 -0.5274
13765TIP3    H162786   6.844   6.024   0.154 -0.1905 -0.2129 -1.7266
13765TIP3    H262787   6.712   5.977   0.212 -0.0788 -0.9392 -2.0501
13766TIP3   OH262788   3.575   0.932   0.058 -0.3112  0.2364  0.4628
13766TIP3    H162789   3.564   0.947  -0.036  0.1343 -0.1695  0.3429
13766TIP3    H262790   3.658   0.975   0.079 -0.6289  0.7161  0.7664
13767TIP3   OH262791   6.573   4.124   2.274 -0.5992  0.5672 -0.3953
13767TIP3    H162792   6.668   4.136   2.264 -0.4995 -0.7044 -1.2657
13767TIP3    H262793   6.539   4.212   2.285  0.5990  1.1315 -0.9544
13768TIP3   OH262794   4.318   5.799  11.104  0.0179 -0.2339  0.0726
13768TIP3    H162795   4.302   5.816  11.197  1.7213  0.3312  0.2995
13768TIP3    H262796   4.297   5.883  11.061 -2.0437 -0.8617 -0.2857
13769TIP3   OH262797   0.483   6.225  11.010 -0.6172 -0.0765  0.0828
13769TIP3    H162798   0.486   6.290  11.081  0.2213 -0.0639  0.0497
13769TIP3    H262799   0.395   6.233  10.974 -0.5674  0.9835  0.1486
13770TIP3   OH262800   3.437   6.195   1.246 -0.6222 -0.2872 -0.3201
13770TIP3    H162801   3.429   6.183   1.340 -0.7041 -2.3971 -0.5636
13770TIP3    H262802   3.530   6.209   1.231 -0.8140  2.1505  0.2199
13771TIP3   OH262803   5.206   5.813  12.991 -0.1049  0.4787 -0.6991
13771TIP3    H162804   5.117   5.796  12.959 -0.8775 -0.5995  1.7711
13771TIP3    H262805   5.210   5.907  13.002 -0.4890  0.6678 -2.0111
13772TIP3   OH262806   5.928   4.571  12.377 -0.0670 -0.2633 -0.3261
13772TIP3    H162807   5.941   4.483  12.343 -1.7903 -0.9761  0.7541
13772TIP3    H262808   5.914   4.559  12.471 -0.0255  1.1981 -0.1064
13773TIP3   OH262809   1.349   6.292   0.852  0.0945 -0.2043  0.1354
13773TIP3    H162810   1.293   6.354   0.806  1.4807  1.4688  0.5670
13773TIP3    H262811   1.415   6.266   0.788  1.2478  1.1086  0.7262
13774TIP3   OH262812   4.926   0.557  16.959 -0.0503  0.1077  0.1026
13774TIP3    H162813   4.985   0.504  16.906  1.0095  0.8551  0.5010
13774TIP3    H262814   4.962   0.645  16.954 -1.1803  0.5923  0.3126
13775TIP3   OH262815   4.547   1.528   3.410 -0.2639  0.1327  0.0127
13775TIP3    H162816   4.576   1.562   3.326  1.9730  0.1936  0.7511
13775TIP3    H262817   4.476   1.587   3.436  0.0184  1.0176 -1.1305
13776TIP3   OH262818   0.994   5.569  12.046 -0.2503 -0.7996 -0.0066
13776TIP3    H162819   0.918   5.578  12.103  0.0811 -3.6740  1.0695
13776TIP3    H262820   0.966   5.507  11.979  1.4241 -2.9889  1.1700
13777TIP3   OH262821   2.288   3.416  15.008 -0.2286 -0.4865 -0.1121
13777TIP3    H162822   2.265   3.329  15.041 -1.4914 -0.9769 -2.1420
13777TIP3    H262823   2.232   3.429  14.931 -1.2992  2.8083  1.0234
13778TIP3   OH262824   5.068   3.783   2.499  0.3912  0.5196  0.0584
13778TIP3    H162825   5.026   3.712   2.450  0.7040  0.6543 -0.4118
13778TIP3    H262826   5.026   3.863   2.466  0.5805  0.6076  0.0301
13779TIP3   OH262827   1.265   3.327  13.637 -0.4214 -0.1186 -0.7056
13779TIP3    H162828   1.356   3.340  13.663 -0.8974 -1.1900  1.7245
13779TIP3    H262829   1.270   3.308  13.543  1.5945  2.1108 -1.1581
13780TIP3   OH262830   1.402   5.764  14.526  0.0203  0.2473  0.6146
13780TIP3    H162831   1.343   5.812  14.468 -0.0792  0.5106  0.9272
13780TIP3    H262832   1.469   5.727  14.468 -1.6513 -1.9109 -0.0354
13781TIP3   OH262833   1.236   4.567   2.591 -0.1284 -0.3057 -0.0050
13781TIP3    H162834   1.171   4.594   2.525 -0.0178  0.9278  0.3773
13781TIP3    H262835   1.200   4.596   2.674  0.5138 -0.3845  0.3074
13782TIP3   OH262836   4.934   5.386  14.829 -0.0507  0.0700  0.1558
13782TIP3    H162837   4.934   5.480  14.811 -0.0314 -0.3418 -2.4199
13782TIP3    H262838   5.026   5.360  14.822 -0.2490 -0.3963 -1.0716
13783TIP3   OH262839   4.756   0.375   4.083 -0.2044  0.7294 -0.1552
13783TIP3    H162840   4.759   0.280   4.075 -1.4870  0.7242 -0.9141
13783TIP3    H262841   4.840   0.405   4.049 -0.9215  0.0147 -2.7660
13784TIP3   OH262842   2.469   2.439   0.445 -0.0211 -0.4029 -0.0005
13784TIP3    H162843   2.392   2.482   0.409 -0.5144 -0.5277  0.8774
13784TIP3    H262844   2.543   2.480   0.400 -0.6364 -1.4583 -2.0944
13785TIP3   OH262845   0.300   1.657  13.573  0.1476  0.2913  0.5411
13785TIP3    H162846   0.225   1.601  13.591 -0.9057  1.1275 -1.0125
13785TIP3    H262847   0.268   1.746  13.588  1.1712  0.6022  0.9513
13786TIP3   OH262848   2.372   6.151   4.811  0.4254 -0.0865 -0.3578
13786TIP3    H162849   2.419   6.171   4.892  1.4629  0.1261 -0.9947
13786TIP3    H262850   2.415   6.072   4.778 -1.0572 -1.1498  0.1064
13787TIP3   OH262851   0.257   0.082  13.952  0.4531  0.7813 -0.3745
13787TIP3    H162852   0.325   0.015  13.960 -0.1708  0.1858  0.0107
13787TIP3    H262853   0.306   0.164  13.946  1.2030  0.5064  1.2851
13788TIP3   OH262854   6.301   5.292  13.680 -0.0685  0.4507  0.1091
13788TIP3    H162855   6.242   5.264  13.750 -0.8231 -1.5609 -1.2424
13788TIP3    H262856   6.249   5.354  13.629 -0.6276 -0.3919 -0.3755
13789TIP3   OH262857   1.108   1.657   5.485 -0.0096 -0.2081  0.1134
13789TIP3    H162858   1.179   1.599   5.509 -1.1306 -0.9332  1.9175
13789TIP3    H262859   1.065   1.614   5.411  2.0938  0.8653 -1.8381
13790TIP3   OH262860   5.131   2.584  14.355  0.3415  0.0719  0.7831
13790TIP3    H162861   5.072   2.659  14.364 -0.2477 -0.3094  0.2192
13790TIP3    H262862   5.218   2.622  14.346 -0.1602  0.8120 -1.5360
13791TIP3   OH262863   5.204   1.836  13.395 -0.1746  0.3836  0.0159
13791TIP3    H162864   5.151   1.757  13.393 -1.4086  1.1725  0.3521
13791TIP3    H262865   5.286   1.809  13.437 -1.0523 -0.4477  1.2627
13792TIP3   OH262866   1.192   5.143  10.568 -0.0302 -0.2997  0.0075
13792TIP3    H162867   1.233   5.065  10.531 -0.1186 -0.2191 -0.2571
13792TIP3    H262868   1.098   5.129  10.557 -0.1069 -0.6849  1.0084
13793TIP3   OH262869   3.505   6.753   1.486 -0.1793 -0.3758  0.5255
13793TIP3    H162870   3.518   6.812   1.559  2.5226  1.4977 -1.2833
13793TIP3    H262871   3.442   6.798   1.429 -0.9405 -1.0110  0.8480
13794TIP3   OH262872   5.546   6.518  13.370  0.9020  0.0841  0.1296
13794TIP3    H162873   5.574   6.436  13.411 -0.0568 -0.1527  0.3394
13794TIP3    H262874   5.554   6.503  13.276  1.0277 -0.1439  0.1777
13795TIP3   OH262875   2.129   2.782  13.441  0.0939  0.8445 -0.1396
13795TIP3    H162876   2.170   2.730  13.511 -2.1468  0.6240  1.0944
13795TIP3    H262877   2.139   2.873  13.469  0.7439  0.8624 -0.4239
13796TIP3   OH262878   3.234   6.636  15.693 -0.4692 -0.1603  0.4817
13796TIP3    H162879   3.262   6.722  15.662  0.4231 -1.3097 -2.1789
13796TIP3    H262880   3.294   6.615  15.765 -0.2072  1.0955  0.6408
13797TIP3   OH262881   0.972   4.643  11.617 -0.0703  0.1875  0.3519
13797TIP3    H162882   0.955   4.558  11.659 -1.2784  1.2800  2.2573
13797TIP3    H262883   0.890   4.663  11.570  0.5294 -0.0705 -0.8404
13798TIP3   OH262884   0.320   5.148  12.914 -0.4819  0.2751  0.4851
13798TIP3    H162885   0.357   5.060  12.920 -0.9127  0.0322 -0.3068
13798TIP3    H262886   0.384   5.197  12.861 -0.4672  0.3110  0.5362
13799TIP3   OH262887   3.426   0.558   4.888  0.0171 -0.1327  0.1795
13799TIP3    H162888   3.499   0.620   4.883 -0.6134  0.5659 -0.7581
13799TIP3    H262889   3.431   0.522   4.976  3.3804 -2.4656 -0.8002
13800TIP3   OH262890   4.900   4.063   1.369 -0.5139  0.2037 -0.1119
13800TIP3    H162891   4.926   4.154   1.353  1.5779 -0.3613 -0.2644
13800TIP3    H262892   4.959   4.012   1.315 -1.4384 -1.2797  0.2346
13801TIP3   OH262893   3.615   5.407  10.955 -0.2800  0.1648 -0.0888
13801TIP3    H162894   3.555   5.431  11.025  0.6799 -0.9873  1.1794
13801TIP3    H262895   3.565   5.344  10.902 -0.4682 -0.2236  0.5293
13802TIP3   OH262896   3.086   4.606   5.124  0.0440 -0.2915  0.6779
13802TIP3    H162897   3.120   4.626   5.211 -0.2561 -0.5477  0.8548
13802TIP3    H262898   3.160   4.568   5.077  0.9445  2.1198 -0.0054
13803TIP3   OH262899   1.864   3.496  11.271  0.1404 -0.5547  0.9987
13803TIP3    H162900   1.823   3.431  11.213  1.1786 -1.8242  1.6311
13803TIP3    H262901   1.792   3.553  11.297 -1.3158 -2.8021  2.2087
13804TIP3   OH262902   3.474   0.463   5.658  0.3362  0.1895 -0.2715
13804TIP3    H162903   3.493   0.526   5.728  0.0022 -0.6126  0.5512
13804TIP3    H262904   3.379   0.465   5.650  0.2477 -0.8842  0.4004
13805TIP3   OH262905   5.453   1.913  15.457 -0.2831  0.0717 -0.6702
13805TIP3    H162906   5.444   1.832  15.407  3.4352  0.9789 -3.1716
13805TIP3    H262907   5.524   1.896  15.519 -0.9877  0.7831  0.3814
13806TIP3   OH262908   5.789   3.271  12.940  0.2021 -0.1316  0.5119
13806TIP3    H162909   5.745   3.221  12.871  1.1513  1.1473 -1.0962
13806TIP3    H262910   5.766   3.362  12.921  1.2853  0.3195  1.2956
13807TIP3   OH262911   4.717   2.422   4.346  0.0452  0.2999 -0.2792
13807TIP3    H162912   4.701   2.486   4.415 -1.0262  0.8831 -1.0323
13807TIP3    H262913   4.705   2.472   4.265 -0.4723 -0.7733 -0.8772
13808TIP3   OH262914   1.088   4.902   0.029  0.0551  0.4744 -0.1154
13808TIP3    H162915   1.055   4.852  -0.045 -1.8629  1.8922 -0.2959
13808TIP3    H262916   1.180   4.877   0.036 -0.1453 -0.9660 -1.8822
13809TIP3   OH262917   4.225   3.385  14.669  0.1066 -0.3492  0.5480
13809TIP3    H162918   4.182   3.382  14.755  1.6508 -0.3136  1.3701
13809TIP3    H262919   4.167   3.335  14.611 -1.2666  0.1236  1.4593
13810TIP3   OH262920   1.497   2.159  16.417  0.1372 -0.3498 -0.3027
13810TIP3    H162921   1.516   2.131  16.327 -1.2692 -0.4401 -0.5928
13810TIP3    H262922   1.425   2.222  16.407 -0.4197 -0.7990  0.8135
13811TIP3   OH262923   4.147   4.088   2.195  0.1046 -0.4803  0.3380
13811TIP3    H162924   4.166   4.180   2.211 -0.2688  0.0761 -2.0377
13811TIP3    H262925   4.230   4.051   2.164  0.2927 -1.0260  1.4192
13812TIP3   OH262926   1.188   6.228  15.505  0.0055  0.3959  0.1365
13812TIP3    H162927   1.235   6.217  15.588  2.6617  4.3514 -0.5803
13812TIP3    H262928   1.198   6.144  15.461  3.9839  0.0254  1.3460
13813TIP3   OH262929   0.729   1.088  16.749 -0.0680 -0.0037  0.0018
13813TIP3    H162930   0.781   1.036  16.687 -1.9596 -1.2860 -0.5852
13813TIP3    H262931   0.643   1.096  16.708 -0.5149  1.6732  1.1511
13814TIP3   OH262932   3.089   2.544  12.955 -0.2523 -0.0032 -0.3198
13814TIP3    H162933   3.102   2.546  13.050 -1.5847  0.0272 -0.1122
13814TIP3    H262934   3.032   2.619  12.938 -0.4637 -0.3305 -1.0721
13815TIP3   OH262935   1.371   0.737  11.157  0.3475 -0.5228 -0.6700
13815TIP3    H162936   1.287   0.783  11.168  0.8622 -0.0890  2.0276
13815TIP3    H262937   1.348   0.644  11.156 -0.1465 -0.4490  0.9088
13816TIP3   OH262938   0.748   4.635   0.523  0.0990  0.4595  0.3225
13816TIP3    H162939   0.662   4.625   0.483 -0.8724 -0.3405  2.4447
13816TIP3    H262940   0.804   4.573   0.475 -0.5090  0.8949 -0.9894
13817TIP3   OH262941   1.102   5.360  16.281  0.0829  0.1150  0.6242
13817TIP3    H162942   1.142   5.376  16.366  0.9004  0.2625  0.2217
13817TIP3    H262943   1.114   5.266  16.266 -0.2115  0.0573  0.7426
13818TIP3   OH262944   4.799   4.126  14.339 -0.2654  0.1527  0.4422
13818TIP3    H162945   4.886   4.090  14.324 -1.2484 -2.0590 -0.3492
13818TIP3    H262946   4.753   4.115  14.256 -0.8556  2.8116  0.3141
13819TIP3   OH262947   5.698   1.672   3.464  0.2829  0.0542  0.0297
13819TIP3    H162948   5.658   1.592   3.497  0.8993  0.2423  1.2995
13819TIP3    H262949   5.766   1.643   3.403 -0.7403 -0.3087 -0.9625
13820TIP3   OH262950   3.597   6.305   3.851 -0.5602 -0.4731  0.6691
13820TIP3    H162951   3.571   6.375   3.792 -0.4577 -1.9323 -1.1940
13820TIP3    H262952   3.633   6.237   3.794 -0.8493 -2.1441  2.3773
13821TIP3   OH262953   4.484   6.752  11.919 -0.9052  0.1016  0.1675
13821TIP3    H162954   4.517   6.710  11.999  1.1161  0.4893 -0.3897
13821TIP3    H262955   4.427   6.686  11.879  0.7651 -1.4937  0.2346
13822TIP3   OH262956   3.225   3.877   0.829  0.2589  0.5649  0.0191
13822TIP3    H162957   3.192   3.964   0.809  0.7741  0.4444 -1.4797
13822TIP3    H262958   3.165   3.817   0.785  0.1658  0.1690  0.6665
13823TIP3   OH262959   0.058   5.347   5.978 -0.0930  0.4049  0.3663
13823TIP3    H162960   0.119   5.407   6.020  0.7907 -0.8834  1.0094
13823TIP3    H262961   0.069   5.265   6.026  0.4732 -0.9721 -1.9532
13824TIP3   OH262962   4.497   4.973  15.242 -0.1947  0.4140  0.0293
13824TIP3    H162963   4.502   4.882  15.271  0.7182  1.0301  1.9411
13824TIP3    H262964   4.413   5.005  15.275 -0.4162  0.3401 -0.4512
13825TIP3   OH262965   5.067   2.938   0.051  0.1824  0.0657 -0.0445
13825TIP3    H162966   5.047   2.885  -0.027 -1.0923 -0.9931  0.9532
13825TIP3    H262967   4.988   2.991   0.065 -0.3029 -0.9830  1.4590
13826TIP3   OH262968   2.970   6.015   4.256 -0.1492 -0.3898 -0.1543
13826TIP3    H162969   3.015   5.994   4.175  2.9572 -0.7601  1.5281
13826TIP3    H262970   2.878   6.026   4.230  0.6460 -0.7552 -3.6115
13827TIP3   OH262971   2.422   3.933   2.215  0.1191  0.4060  0.5524
13827TIP3    H162972   2.459   3.845   2.215  0.7525  0.6611  1.0148
13827TIP3    H262973   2.327   3.920   2.221  0.1706 -0.2487 -0.0556
13828TIP3   OH262974   0.130   5.601  16.064 -0.0860  0.0758 -0.0271
13828TIP3    H162975   0.036   5.590  16.080 -0.0872  0.4301  0.2281
13828TIP3    H262976   0.172   5.577  16.146 -0.0031  0.6167  0.0941
13829TIP3   OH262977   6.704   1.766  12.614 -0.3849  0.0149 -0.0377
13829TIP3    H162978   6.769   1.710  12.657  0.1797  0.4657 -0.2866
13829TIP3    H262979   6.741   1.782  12.527 -0.9197  0.1345 -0.2434
13830TIP3   OH262980   1.542   3.436  15.051  0.0779  0.0178 -0.2449
13830TIP3    H162981   1.464   3.465  15.004 -0.6050  0.5239  1.1201
13830TIP3    H262982   1.544   3.491  15.130  0.1999 -1.8929  1.1576
13831TIP3   OH262983   6.188   0.396  17.092  0.0631  0.6745  0.0187
13831TIP3    H162984   6.096   0.422  17.098  0.1445  0.6462  1.9987
13831TIP3    H262985   6.185   0.306  17.060 -0.5775  0.7612 -0.1853
13832TIP3   OH262986   6.129   1.115  15.568  0.2424  0.6205  0.4020
13832TIP3    H162987   6.168   1.146  15.486 -0.3093  0.6136  0.1285
13832TIP3    H262988   6.197   1.127  15.634  1.2557 -0.8155 -0.3362
13833TIP3   OH262989   5.994   2.815   6.273  0.0238 -0.0676 -0.2898
13833TIP3    H162990   5.977   2.769   6.356 -0.0626 -1.2370 -0.9409
13833TIP3    H262991   6.089   2.823   6.270  0.0429 -0.2415 -0.1925
13834TIP3   OH262992   6.214   1.265  13.904 -0.8736 -0.5321 -0.0669
13834TIP3    H162993   6.303   1.241  13.879 -0.8536  0.4605 -1.0000
13834TIP3    H262994   6.185   1.325  13.836 -1.2926  1.2657  1.5882
13835TIP3   OH262995   1.242   5.531  13.946  0.1660 -0.4763 -0.5360
13835TIP3    H162996   1.313   5.555  13.886  0.1404  1.3106  0.0672
13835TIP3    H262997   1.277   5.459  13.998  1.3704  0.0437 -0.5889
13836TIP3   OH262998   3.583   1.927   0.617 -0.4465  0.0502  0.5173
13836TIP3    H162999   3.588   2.017   0.584  2.8381 -0.2190 -0.1169
13836TIP3    H263000   3.514   1.886   0.566 -0.1777  1.5213 -1.1433
13837TIP3   OH263001   2.184   3.552   0.731  0.3597 -0.4234 -0.1701
13837TIP3    H163002   2.105   3.505   0.759  0.3009 -1.4768 -1.9789
13837TIP3    H263003   2.220   3.588   0.812 -1.2787 -0.9847  0.8621
13838TIP3   OH263004   1.486   6.840   2.725  0.1922 -0.2557  0.3715
13838TIP3    H163005   1.530   6.767   2.768  0.5376  0.3337  1.0594
13838TIP3    H263006   1.399   6.843   2.763  0.9364  1.1067  2.1288
13839TIP3   OH263007   6.415   1.338   3.904  0.2032 -0.1108 -0.0952
13839TIP3    H163008   6.482   1.403   3.881  1.6729 -1.1359  1.0812
13839TIP3    H263009   6.410   1.280   3.829  0.7530 -0.1123 -0.1315
13840TIP3   OH263010   4.420   2.480   0.640 -0.7636  0.1528  0.2138
13840TIP3    H163011   4.343   2.480   0.583 -0.4210 -0.5474 -0.2510
13840TIP3    H263012   4.412   2.400   0.692 -0.6584  0.3830  0.5892
13841TIP3   OH263013   0.858   3.535   4.697  0.0984 -0.0371  0.0782
13841TIP3    H163014   0.822   3.497   4.777 -0.9878 -0.8534 -0.7659
13841TIP3    H263015   0.843   3.469   4.629  4.6939 -1.1832 -0.1105
13842TIP3   OH263016   4.466   5.568  15.831  0.1937 -0.5051 -0.3297
13842TIP3    H163017   4.426   5.481  15.828 -0.6839 -0.1821  1.1967
13842TIP3    H263018   4.498   5.582  15.742 -0.3915 -2.0360 -0.8220
13843TIP3   OH263019   5.774   6.684   0.553  0.1724 -0.2635  0.0839
13843TIP3    H163020   5.709   6.624   0.590  2.1516 -1.9965  0.8969
13843TIP3    H263021   5.790   6.748   0.622 -1.3028  0.7714 -0.4711
13844TIP3   OH263022   2.284   2.873  12.352 -0.9607 -0.0261 -0.4793
13844TIP3    H163023   2.322   2.824  12.279 -1.0045 -1.2837  0.3152
13844TIP3    H263024   2.325   2.835  12.430 -0.8993  1.3071  0.1592
13845TIP3   OH263025   6.521   3.304  12.584  0.0885  0.0350  0.0098
13845TIP3    H163026   6.593   3.268  12.635  0.8589  0.9575 -0.3854
13845TIP3    H263027   6.445   3.299  12.642  0.2577 -1.7350  0.1286
13846TIP3   OH263028   2.199   4.878  15.395 -0.1800  0.3428 -0.4487
13846TIP3    H163029   2.245   4.935  15.333  1.3094 -0.0751  0.2248
13846TIP3    H263030   2.233   4.791  15.376 -0.7459  0.0156  0.0369
13847TIP3   OH263031   5.052   4.859  14.383  0.3669 -0.2002  0.4027
13847TIP3    H163032   5.001   4.918  14.438  0.6719 -0.9278  1.5000
13847TIP3    H263033   5.127   4.912  14.354  0.1854  0.2042  0.6601
13848TIP3   OH263034   4.117   1.417  16.918 -0.0158 -0.5087 -0.6197
13848TIP3    H163035   4.127   1.431  17.012  0.8079 -0.6697 -0.6812
13848TIP3    H263036   4.206   1.417  16.884 -0.1764 -2.3670 -1.1231
13849TIP3   OH263037   4.921   0.807  11.817 -0.2200  0.3360  0.1080
13849TIP3    H163038   4.832   0.773  11.809 -0.2968  0.5525  0.0495
13849TIP3    H263039   4.926   0.877  11.753 -0.1807  0.6838  0.4849
13850TIP3   OH263040   6.480   0.534   5.531  0.0680  0.3865  0.1371
13850TIP3    H163041   6.487   0.490   5.616  0.2880 -1.1649 -0.6509
13850TIP3    H263042   6.569   0.565   5.513  0.2403 -0.1542  0.0339
13851TIP3   OH263043   3.928   0.326   1.756  0.2204  0.7809  0.0745
13851TIP3    H163044   3.944   0.415   1.788 -2.5211  1.0370  0.9171
13851TIP3    H263045   3.876   0.338   1.677  0.9869 -0.0645 -0.5758
13852TIP3   OH263046   1.459   4.666  12.633  0.2397 -0.2194 -0.0771
13852TIP3    H163047   1.370   4.636  12.652  0.0743  0.1068 -0.3363
13852TIP3    H263048   1.515   4.596  12.666 -0.1288 -0.6415 -0.3376
13853TIP3   OH263049   6.616   3.395   0.361 -0.0973  0.3585 -0.4103
13853TIP3    H163050   6.620   3.361   0.271 -1.0555 -1.3001  0.1175
13853TIP3    H263051   6.602   3.317   0.415  0.3222  1.3383  1.1760
13854TIP3   OH263052   4.050   0.470   6.000 -0.5772 -0.3734 -0.3000
13854TIP3    H163053   4.054   0.548   5.944  1.1679 -0.5422 -0.4618
13854TIP3    H263054   3.971   0.424   5.972 -0.9467  0.7000 -1.0685
13855TIP3   OH263055   0.021   1.950  13.943  0.0686  0.0070 -0.4104
13855TIP3    H163056  -0.038   1.980  13.874  0.0840 -2.3776 -1.5943
13855TIP3    H263057   0.044   1.860  13.917  0.2313 -0.9459  2.6095
13856TIP3   OH263058   6.791   1.489  11.500 -0.0996  0.2324 -0.2193
13856TIP3    H163059   6.787   1.452  11.588 -0.4343 -1.6649 -0.9710
13856TIP3    H263060   6.845   1.427  11.451  1.2378  1.9620 -1.0663
13857TIP3   OH263061   2.119   1.676  14.123 -0.5812  0.4797  0.0625
13857TIP3    H163062   2.082   1.709  14.041 -2.5318  0.2237  0.7844
13857TIP3    H263063   2.147   1.755  14.169  0.9596  0.6003 -1.0000
13858TIP3   OH263064   2.600   3.837   2.496  0.4343 -0.2199 -0.1054
13858TIP3    H163065   2.626   3.774   2.563 -0.3163  1.0027  1.3971
13858TIP3    H263066   2.510   3.814   2.474  0.4316 -0.1593 -0.1603
13859TIP3   OH263067   4.522   3.708  11.097 -0.1968 -0.1600  0.4056
13859TIP3    H163068   4.443   3.672  11.055 -1.2408  0.2605  1.9026
13859TIP3    H263069   4.517   3.676  11.187  2.3095 -1.5930  0.1308
13860TIP3   OH263070   5.490   1.158  12.158  0.8688  0.2194  0.3323
13860TIP3    H163071   5.550   1.217  12.112 -0.3254 -0.5369 -2.4005
13860TIP3    H263072   5.423   1.215  12.195 -0.1867  0.7009 -2.1460
13861TIP3   OH263073   6.699   1.757  11.573  0.1711 -0.2185 -0.2573
13861TIP3    H163074   6.724   1.667  11.549  0.3729  0.1169 -1.3253
13861TIP3    H263075   6.782   1.802  11.586  0.0996 -0.5880  1.9923
13862TIP3   OH263076   4.342   2.923  16.211 -0.0873  0.1491  0.0293
13862TIP3    H163077   4.349   2.916  16.306  0.3034  1.1503  0.0886
13862TIP3    H263078   4.354   2.834  16.179 -2.8811 -0.6803  1.0325
13863TIP3   OH263079   5.850   4.060  12.705  0.1865 -0.3073 -0.4660
13863TIP3    H163080   5.839   4.060  12.800 -0.8906  0.1597 -0.5812
13863TIP3    H263081   5.792   3.991  12.673 -0.2352  0.2225 -0.8613
13864TIP3   OH263082   6.077   1.807  10.557  0.5172 -0.3206 -0.5966
13864TIP3    H163083   5.985   1.792  10.578 -0.2143  1.7926 -1.8783
13864TIP3    H263084   6.092   1.756  10.477 -0.2208  0.9645 -1.6015
13865TIP3   OH263085   2.178   3.210  10.441 -0.2220 -0.5773 -0.1790
13865TIP3    H163086   2.124   3.259  10.504  1.0552 -0.2085  0.6711
13865TIP3    H263087   2.158   3.118  10.459 -0.9625 -0.4375 -0.2459
13866TIP3   OH263088   0.089   1.862  14.976  0.4931 -0.3243  0.4393
13866TIP3    H163089   0.150   1.933  14.992  0.1021  0.1994 -0.3170
13866TIP3    H263090   0.144   1.788  14.950  0.7846  0.5106 -1.5529
13867TIP3   OH263091   6.714   4.325   1.811  0.1835  0.2268  0.1982
13867TIP3    H163092   6.726   4.237   1.847 -0.9285 -0.6885 -1.5397
13867TIP3    H263093   6.619   4.334   1.801  0.4024  0.5403 -2.1213
13868TIP3   OH263094   1.474   4.009  14.774 -0.2831  0.8803  0.0867
13868TIP3    H163095   1.401   4.025  14.713  0.1420  1.1102 -0.3644
13868TIP3    H263096   1.438   4.032  14.860 -1.2073 -0.4235  0.0741
13869TIP3   OH263097   1.214   6.199   5.114 -0.0835 -0.4870  0.3942
13869TIP3    H163098   1.143   6.263   5.116 -0.1237 -0.5489  1.0180
13869TIP3    H263099   1.238   6.186   5.206  1.6624  0.5343  0.1249
13870TIP3   OH263100   2.324   5.483   3.583  0.0330 -0.2851 -0.7263
13870TIP3    H163101   2.346   5.419   3.651  1.3552 -0.8924 -1.6978
13870TIP3    H263102   2.268   5.435   3.522 -1.8673  0.4991  0.3262
13871TIP3   OH263103   2.718   2.168  11.658 -0.3169 -0.4040  0.2493
13871TIP3    H163104   2.741   2.261  11.665 -1.0968 -0.1863  0.0412
13871TIP3    H263105   2.709   2.139  11.748 -0.1623 -0.2591  0.3135
13872TIP3   OH263106   1.697   2.307  11.484 -0.0466 -0.9781  0.2703
13872TIP3    H163107   1.744   2.363  11.424  1.5126 -1.9391  0.5483
13872TIP3    H263108   1.708   2.349  11.570 -0.0525 -0.9784  0.2708
13873TIP3   OH263109   4.765   0.948   5.151  0.1463 -0.3264  0.1146
13873TIP3    H163110   4.751   1.041   5.171  0.7076 -0.3671  0.7265
13873TIP3    H263111   4.689   0.924   5.098 -0.6599  0.1604  1.0121
13874TIP3   OH263112   0.218   2.232  15.544 -0.1032  0.1936  0.1359
13874TIP3    H163113   0.144   2.201  15.596 -0.4385 -0.7292 -0.8572
13874TIP3    H263114   0.188   2.313  15.504 -0.2946  0.2318  0.3528
13875TIP3   OH263115   2.848   1.948   0.444 -0.6095 -0.1832 -0.3186
13875TIP3    H163116   2.922   1.978   0.390 -0.4410  1.8256  0.9238
13875TIP3    H263117   2.781   2.015   0.433 -0.7047  0.1070  1.6286
13876TIP3   OH263118   1.807   6.134  14.326  0.9099 -0.1830  0.2646
13876TIP3    H163119   1.895   6.117  14.361  0.8990  1.3353  1.1254
13876TIP3    H263120   1.822   6.182  14.245  0.9042  1.4520  1.1868
13877TIP3   OH263121   0.485   2.744  14.881 -0.3370  0.1930  0.0877
13877TIP3    H163122   0.567   2.770  14.839 -0.0733 -1.1992 -0.3375
13877TIP3    H263123   0.451   2.824  14.921  1.0639  0.8622 -0.0134
13878TIP3   OH263124   6.097   2.989  16.203  0.2646 -0.3461 -0.4672
13878TIP3    H163125   6.070   3.038  16.281 -1.6667 -3.4093  0.9497
13878TIP3    H263126   6.024   2.998  16.142 -0.6469 -2.2653  0.2668
13879TIP3   OH263127   0.795   4.524  14.524  0.2363 -0.4790 -0.4796
13879TIP3    H163128   0.790   4.592  14.591 -1.2909 -0.6477 -0.3829
13879TIP3    H263129   0.732   4.552  14.457  0.5929 -1.1083 -1.0812
13880TIP3   OH263130   1.115   4.943  13.448  0.1534 -0.5222 -0.2197
13880TIP3    H163131   1.053   4.910  13.513 -2.1343  1.6468 -1.1217
13880TIP3    H263132   1.198   4.947  13.494 -0.7833 -1.6581  1.6937
13881TIP3   OH263133   3.850   5.958  13.524  0.3589 -0.0300  0.4380
13881TIP3    H163134   3.860   5.971  13.430  2.7294 -1.0471  0.4813
13881TIP3    H263135   3.758   5.935  13.536  0.6211 -2.9252 -2.0706
13882TIP3   OH263136   1.245   3.395   0.757 -0.3784  0.2841  0.5504
13882TIP3    H163137   1.322   3.432   0.801 -0.3671  1.1121 -0.1227
13882TIP3    H263138   1.275   3.310   0.724  0.0330  0.2908  0.8975
13883TIP3   OH263139   5.146   2.556  12.683 -0.7887  0.5242  0.2789
13883TIP3    H163140   5.087   2.569  12.609 -0.2416  0.8633 -0.1128
13883TIP3    H263141   5.147   2.640  12.729 -1.5327  0.1568  0.9863
13884TIP3   OH263142   6.023   5.372  16.378  0.2818  0.0915 -0.8470
13884TIP3    H163143   6.062   5.285  16.387 -0.7064 -0.4019 -1.1370
13884TIP3    H263144   6.073   5.427  16.438  3.0368  0.0833 -2.9400
13885TIP3   OH263145   0.386   6.809  10.432 -0.0326 -0.4585  0.1362
13885TIP3    H163146   0.359   6.789  10.342  0.2515  0.0139 -0.0606
13885TIP3    H263147   0.321   6.872  10.463 -0.2681 -0.8037  0.3497
13886TIP3   OH263148   2.842   0.022  11.598  0.4969  0.2260  0.4390
13886TIP3    H163149   2.905   0.062  11.539  0.7670  0.5893  0.9623
13886TIP3    H263150   2.872   0.047  11.686 -0.3169  0.3192  0.6988
13887TIP3   OH263151   1.821   0.362  15.732  0.4282 -0.1988  0.5019
13887TIP3    H163152   1.822   0.287  15.673 -3.8112  0.9289 -1.4645
13887TIP3    H263153   1.869   0.430  15.685 -1.6076  0.2282 -1.1038
13888TIP3   OH263154   5.301   5.410   1.165  0.1656  0.3994 -0.0388
13888TIP3    H163155   5.338   5.382   1.081  1.9928  2.4279  0.0037
13888TIP3    H263156   5.247   5.486   1.144  0.4754  0.8017  0.5741
13889TIP3   OH263157   5.406   6.270  16.320 -0.2320  0.7779  0.0273
13889TIP3    H163158   5.370   6.262  16.408  1.7858 -0.4411  0.8040
13889TIP3    H263159   5.339   6.232  16.263 -0.6928 -0.3619  1.2708
13890TIP3   OH263160   2.584   1.279  13.384 -0.1690 -0.3429 -0.4415
13890TIP3    H163161   2.538   1.363  13.387  0.4975  0.0103  0.3873
13890TIP3    H263162   2.631   1.275  13.467  2.0505 -0.2578 -1.6285
13891TIP3   OH263163   2.279   4.001  13.155  0.4159 -0.0932  0.2182
13891TIP3    H163164   2.293   4.064  13.225 -0.5534  1.7271 -1.1436
13891TIP3    H263165   2.197   3.957  13.178 -0.2882  1.0174 -0.1078
13892TIP3   OH263166   2.954   2.424  16.124  0.3011 -0.2075  0.2188
13892TIP3    H163167   2.919   2.430  16.213  0.3017  1.0176  0.1433
13892TIP3    H263168   2.883   2.385  16.073 -0.3814  0.7832  0.3903
13893TIP3   OH263169   0.671   3.389  16.540  0.5154  0.8033 -0.0544
13893TIP3    H163170   0.638   3.479  16.542  1.2537  1.0793  0.1578
13893TIP3    H263171   0.719   3.379  16.623 -0.3463 -0.1014  0.3638
13894TIP3   OH263172   2.876   4.056   5.854  0.3678 -0.1966 -0.0236
13894TIP3    H163173   2.858   4.143   5.818 -2.2184 -0.0979  1.3092
13894TIP3    H263174   2.941   4.072   5.923 -1.2786  1.0147  1.3381
13895TIP3   OH263175   2.088   5.294   5.877  0.0607  0.2184  0.4941
13895TIP3    H163176   2.005   5.259   5.912  0.7292 -2.2090 -0.1426
13895TIP3    H263177   2.135   5.326   5.955 -0.7834  0.1040  1.0670
13896TIP3   OH263178   4.747   3.796   2.632 -0.3121 -0.4027  0.2736
13896TIP3    H163179   4.837   3.803   2.664 -0.8872  0.5463  1.8117
13896TIP3    H263180   4.752   3.823   2.541  1.2667 -2.3405 -0.2963
13897TIP3   OH263181   2.366   6.170   0.110  0.2239 -0.4356 -0.2927
13897TIP3    H163182   2.444   6.168   0.165  0.4669 -0.8179 -0.6510
13897TIP3    H263183   2.383   6.105   0.041 -0.9726 -1.5213  0.3970
13898TIP3   OH263184   2.052   2.811   0.109 -0.4978  0.4957  0.3119
13898TIP3    H163185   1.985   2.834   0.046  0.9587 -1.2079 -2.0418
13898TIP3    H263186   2.053   2.715   0.108  1.4722  0.4699  0.7812
13899TIP3   OH263187   1.608   2.241  13.112 -0.7287 -0.8711  0.0802
13899TIP3    H163188   1.610   2.305  13.041 -0.8612 -0.9905 -0.0333
13899TIP3    H263189   1.545   2.175  13.083 -0.0400 -1.4436 -0.1330
13900TIP3   OH263190   0.351   6.582  14.460 -0.0440 -0.2289 -0.4299
13900TIP3    H163191   0.342   6.608  14.368 -0.5582 -0.7041 -0.5138
13900TIP3    H263192   0.354   6.665  14.508 -3.5284  0.0676 -0.5078
13901TIP3   OH263193   0.748   2.161  15.476  0.3072  0.9354  0.1887
13901TIP3    H163194   0.659   2.135  15.450  0.6432 -1.4237  1.1684
13901TIP3    H263195   0.741   2.176  15.571  1.4567 -2.1100  0.8565
13902TIP3   OH263196   1.187   0.583   4.318  0.2077 -0.1071 -0.0793
13902TIP3    H163197   1.146   0.541   4.242  0.5720 -0.2378 -0.2034
13902TIP3    H263198   1.124   0.570   4.389  0.2168 -0.6745 -0.1669
13903TIP3   OH263199   5.652   1.392  11.741  0.0561 -0.0499 -0.1735
13903TIP3    H163200   5.651   1.319  11.803  3.9551  0.0129  0.2082
13903TIP3    H263201   5.691   1.355  11.662 -2.5612  0.4938 -1.8387
13904TIP3   OH263202   4.806   6.269   1.526  0.2625 -0.0628 -0.7994
13904TIP3    H163203   4.858   6.188   1.523  2.0772  1.0153 -0.0835
13904TIP3    H263204   4.814   6.305   1.437 -1.0198 -0.9121 -1.2848
13905TIP3   OH263205   2.287   2.598  14.922 -0.3912  0.0584 -0.5359
13905TIP3    H163206   2.205   2.549  14.925 -1.5063  1.8973  1.4800
13905TIP3    H263207   2.340   2.562  14.993 -0.2563  0.1882 -0.5685
13906TIP3   OH263208   3.069   5.825   4.927 -0.4319 -0.0600 -0.3705
13906TIP3    H163209   3.130   5.898   4.926 -2.1075  1.4352  0.6718
13906TIP3    H263210   3.124   5.747   4.918  1.4508  1.2898 -0.9972
13907TIP3   OH263211   6.671   3.370  15.402  0.2263 -0.0475  0.0785
13907TIP3    H163212   6.643   3.325  15.482 -1.0592 -0.2955 -0.4768
13907TIP3    H263213   6.679   3.461  15.427  1.4852 -0.3667  0.8851
13908TIP3   OH263214   3.192   0.376   5.665 -0.7447 -0.5875  0.1127
13908TIP3    H163215   3.112   0.412   5.628 -0.0452  1.3735  0.4270
13908TIP3    H263216   3.211   0.431   5.741 -0.3185 -2.4486  1.4348
13909TIP3   OH263217   2.755   4.723  16.330 -0.6685  0.2010 -0.1452
13909TIP3    H163218   2.668   4.683  16.326 -1.5906  2.0471  0.2561
13909TIP3    H263219   2.738   4.817  16.320  1.3552  0.5414 -0.7686
13910TIP3   OH263220   6.721   5.079   1.594 -0.0969  0.5954 -0.3482
13910TIP3    H163221   6.762   5.163   1.613  0.7497  0.2694 -0.6850
13910TIP3    H263222   6.707   5.080   1.499  2.3222 -0.6549 -0.8074
13911TIP3   OH263223   5.950   0.900   2.595  0.2401 -0.5526  0.1746
13911TIP3    H163224   5.989   0.874   2.679 -1.8221 -1.6650  0.8626
13911TIP3    H263225   5.862   0.863   2.597 -0.3752  0.6207 -1.8973
13912TIP3   OH263226   0.699   0.397   2.948 -0.3187  0.2509 -0.1505
13912TIP3    H163227   0.630   0.444   2.901  0.0732  0.3348 -0.6583
13912TIP3    H263228   0.699   0.436   3.035 -2.5371 -1.3976  0.6793
13913TIP3   OH263229   5.896   2.183  11.574 -0.0552 -0.3239 -0.4697
13913TIP3    H163230   5.855   2.165  11.490 -1.5132 -0.1282  0.1752
13913TIP3    H263231   5.856   2.265  11.603  1.6827  0.5300 -0.3582
13914TIP3   OH263232   3.108   3.127  14.598 -0.6673  0.3259  0.0602
13914TIP3    H163233   3.069   3.205  14.637  0.5140  1.8057 -1.5534
13914TIP3    H263234   3.052   3.106  14.524 -0.1618  0.5814 -0.4046
13915TIP3   OH263235   3.420   0.652  10.509  0.2560  0.2385 -0.3230
13915TIP3    H163236   3.443   0.738  10.475 -2.0842  0.9428 -0.2359
13915TIP3    H263237   3.345   0.624  10.457  0.8341 -1.7029 -0.2202
13916TIP3   OH263238   1.061   4.094   3.643  0.3962 -0.4098  0.4873
13916TIP3    H163239   0.971   4.060   3.644 -0.7827  2.4702  0.2060
13916TIP3    H263240   1.056   4.174   3.592  3.4464 -0.8308 -0.6805
13917TIP3   OH263241   6.653   0.603   5.771 -0.2901 -0.7388 -0.2712
13917TIP3    H163242   6.605   0.552   5.836 -0.0992  0.3033  0.7297
13917TIP3    H263243   6.720   0.649   5.821 -1.9111  2.3469 -0.6147
13918TIP3   OH263244   5.832   6.580   3.387  0.5196 -0.1262  0.2126
13918TIP3    H163245   5.894   6.562   3.458 -0.7653  1.0044  1.6810
13918TIP3    H263246   5.816   6.494   3.348  1.4483 -0.7385  1.1241
13919TIP3   OH263247   0.136   4.121   4.009 -0.0382  0.0984  0.5693
13919TIP3    H163248   0.154   4.081   4.094 -1.4973 -1.5649  0.1538
13919TIP3    H263249   0.196   4.078   3.949 -1.3824 -1.3200  0.1810
13920TIP3   OH263250   2.600   6.753   4.958  0.0985  0.3686  0.6852
13920TIP3    H163251   2.670   6.785   5.015  0.8891 -0.2861  0.1245
13920TIP3    H263252   2.614   6.658   4.955 -0.6050  0.2699  0.2751
13921TIP3   OH263253   2.496   5.013   1.273  0.2714  0.3910 -0.3725
13921TIP3    H163254   2.522   5.103   1.292  0.4037  0.2223  0.2441
13921TIP3    H263255   2.453   4.982   1.352 -2.1306  0.7429 -1.4469
13922TIP3   OH263256   4.937   1.378   1.898  0.0279  0.8464 -0.0461
13922TIP3    H163257   5.023   1.374   1.857  0.7578 -1.3334  1.5095
13922TIP3    H263258   4.945   1.447   1.964  0.0316  1.7717 -0.9929
13923TIP3   OH263259   1.502   0.385   2.479 -0.1342  0.3457  0.2525
13923TIP3    H163260   1.459   0.459   2.437 -1.0662  0.0747  0.6811
13923TIP3    H263261   1.505   0.317   2.411 -0.1669  0.4527  0.1443
13924TIP3   OH263262   2.900   3.370  13.119  0.3700  0.2076 -0.7244
13924TIP3    H163263   2.953   3.409  13.188  1.5442 -1.0078 -0.8796
13924TIP3    H263264   2.917   3.424  13.042 -1.5997  2.0717  0.0780
13925TIP3   OH263265   2.143   6.049   5.475  0.0670 -0.0818  0.1650
13925TIP3    H163266   2.109   5.986   5.539 -0.1125 -0.6322 -0.4737
13925TIP3    H263267   2.101   6.027   5.393  2.0971 -0.9224 -0.7215
13926TIP3   OH263268   5.511   3.759  11.259 -0.3852 -0.1239 -0.3460
13926TIP3    H163269   5.540   3.732  11.172  1.1288 -1.8339  0.6100
13926TIP3    H263270   5.583   3.811  11.295 -0.8163  0.2191  0.0489
13927TIP3   OH263271   2.244   1.833   2.858 -0.4171 -0.0612  0.5116
13927TIP3    H163272   2.195   1.751   2.859 -0.4599 -0.0773 -0.6850
13927TIP3    H263273   2.323   1.813   2.807 -0.8747  0.8573 -0.5998
13928TIP3   OH263274   6.610   3.111   1.643  0.2869  0.3199  0.2067
13928TIP3    H163275   6.612   3.034   1.699  1.2988  0.1285 -0.0903
13928TIP3    H263276   6.698   3.118   1.607 -0.1176  0.9261 -0.7072
13929TIP3   OH263277   5.488   6.185   3.250 -0.3584  0.3833 -0.4387
13929TIP3    H163278   5.529   6.138   3.322  2.6621  0.2370 -2.1228
13929TIP3    H263279   5.426   6.122   3.213 -0.5685 -0.1810  0.8052
13930TIP3   OH263280   2.418   5.023  12.351  0.2303 -0.1150 -0.6009
13930TIP3    H163281   2.346   5.087  12.356  0.8673  0.6066 -0.3764
13930TIP3    H263282   2.471   5.053  12.278  1.5452  0.7355  0.6369
13931TIP3   OH263283   2.521   4.532   3.047 -0.0053 -0.2831 -0.5941
13931TIP3    H163284   2.602   4.548   2.999  0.6343 -1.0997  0.1612
13931TIP3    H263285   2.514   4.606   3.107  0.0559 -0.0895 -0.8251
13932TIP3   OH263286   0.888   4.379  11.519  0.5789 -0.1086 -0.7286
13932TIP3    H163287   0.909   4.286  11.528 -1.0227 -0.6814 -2.2902
13932TIP3    H263288   0.923   4.404  11.434  0.6580  0.6198 -0.4890
13933TIP3   OH263289   3.140   1.246  14.357  0.9513 -0.1429 -0.2411
13933TIP3    H163290   3.205   1.176  14.359  1.7694  0.5720 -1.1570
13933TIP3    H263291   3.056   1.200  14.361  1.3964 -1.3582 -2.8858
13934TIP3   OH263292   0.452   0.757  15.599  0.4743  0.4087 -0.4150
13934TIP3    H163293   0.430   0.664  15.609 -0.8101  0.6686 -0.7344
13934TIP3    H263294   0.517   0.758  15.528 -0.1622 -0.1667 -1.0222
13935TIP3   OH263295   2.957   2.094  13.807  0.2365  0.4509  0.1687
13935TIP3    H163296   2.863   2.075  13.814  0.1090  0.3958 -1.3511
13935TIP3    H263297   2.981   2.127  13.894 -0.5057 -2.3207  1.5319
13936TIP3   OH263298   6.294   5.987  12.910  0.0983  0.3780  0.9398
13936TIP3    H163299   6.318   6.079  12.907 -1.0696  0.6896  0.6823
13936TIP3    H263300   6.204   5.986  12.942 -0.1299 -0.6275  0.3396
13937TIP3   OH263301   5.877   6.096   4.882 -0.5792  0.0246 -0.0507
13937TIP3    H163302   5.933   6.065   4.812 -0.3601  1.8690 -0.7481
13937TIP3    H263303   5.869   6.022   4.942  3.9329  0.0874  0.9697
13938TIP3   OH263304   5.154   4.016  13.884 -0.4659  0.2140 -0.4188
13938TIP3    H163305   5.226   4.079  13.877 -0.0457 -0.3373 -1.1684
13938TIP3    H263306   5.115   4.035  13.969  0.4680  0.6312 -0.0607
13939TIP3   OH263307   3.225   4.071   0.404 -0.7594  0.0028  0.0279
13939TIP3    H163308   3.217   4.084   0.499 -0.8003  0.1309  0.0075
13939TIP3    H263309   3.286   3.998   0.395  1.2369  1.5738  0.1107
13940TIP3   OH263310   2.122   1.833   6.003 -0.6215  0.4851  0.2365
13940TIP3    H163311   2.149   1.914   6.046  2.4525 -0.1601 -0.2425
13940TIP3    H263312   2.106   1.772   6.074 -2.8962  1.4132  0.6010
13941TIP3   OH263313   1.471   1.273   5.690 -0.2636  0.2064  0.3887
13941TIP3    H163314   1.515   1.192   5.662 -2.6425 -1.4122  0.9581
13941TIP3    H263315   1.511   1.293   5.775 -0.9764 -1.5876  1.2028
13942TIP3   OH263316   0.373   3.237   5.697 -0.3254  1.0223 -0.4504
13942TIP3    H163317   0.377   3.157   5.750 -0.9938  2.2509  1.5806
13942TIP3    H263318   0.435   3.222   5.627 -0.6067 -1.3756 -0.2836
13943TIP3   OH263319   3.068   3.531  10.638  0.2663  0.5449  0.4166
13943TIP3    H163320   3.151   3.559  10.600  1.2328 -0.5145  1.6485
13943TIP3    H263321   3.080   3.437  10.654 -2.0240 -0.1732 -1.5187
13944TIP3   OH263322   4.759   1.737  14.739  0.3357  0.2685  0.0420
13944TIP3    H163323   4.816   1.714  14.813 -1.0461 -1.0414  0.7497
13944TIP3    H263324   4.687   1.674  14.744 -0.4494  0.9802 -1.6739
13945TIP3   OH263325   5.080   1.144  13.408 -0.1217  0.0806  0.1055
13945TIP3    H163326   5.010   1.181  13.354  0.1519  2.4160  1.2542
13945TIP3    H263327   5.143   1.109  13.345 -0.5432  1.3495 -1.0638
13946TIP3   OH263328   1.852   2.259   0.678  0.2181  0.4042  0.1946
13946TIP3    H163329   1.870   2.278   0.770  0.2387 -1.1134  0.5314
13946TIP3    H263330   1.815   2.340   0.643  1.2802  1.3831  1.2323
13947TIP3   OH263331   1.192   4.584  12.675 -0.1681 -0.9906  0.4252
13947TIP3    H163332   1.115   4.586  12.732  0.3940  0.9785  1.2092
13947TIP3    H263333   1.160   4.549  12.592 -2.2497  0.9619  0.3202
13948TIP3   OH263334   2.382   5.003   2.176  0.3643  0.1844 -0.2334
13948TIP3    H163335   2.471   5.031   2.199  0.4365 -0.2504  0.0382
13948TIP3    H263336   2.377   5.011   2.081 -0.1552  2.6809 -0.0508
13949TIP3   OH263337   3.605   2.739   5.357  0.1118 -0.2818 -0.9667
13949TIP3    H163338   3.615   2.770   5.267 -0.9478  0.8996 -0.7085
13949TIP3    H263339   3.527   2.784   5.389  0.0652 -1.2342  0.3194
13950TIP3   OH263340   5.144   4.825   4.268  0.1083  0.1987  0.1959
13950TIP3    H163341   5.123   4.870   4.186 -0.1136  0.7133  0.5261
13950TIP3    H263342   5.239   4.813   4.266 -0.0711 -1.2339 -0.8523
13951TIP3   OH263343   6.432   1.006  16.414  0.1515 -0.0992  0.4847
13951TIP3    H163344   6.467   1.044  16.494 -1.5232  0.4530  1.0018
13951TIP3    H263345   6.377   0.934  16.444  2.1602 -2.1234 -0.4096
13952TIP3   OH263346   3.462   5.486   1.364 -0.6419  0.0746 -0.0233
13952TIP3    H163347   3.500   5.405   1.329  0.9350  0.0661  1.5516
13952TIP3    H263348   3.537   5.543   1.380 -1.5886  1.2645  0.3550
13953TIP3   OH263349   2.931   0.583   3.091 -0.4359  0.1518  0.2954
13953TIP3    H163350   2.988   0.583   3.167  0.5587 -1.5155 -0.4066
13953TIP3    H263351   2.909   0.491   3.076 -0.8469  0.4570 -1.2543
13954TIP3   OH263352   4.741   4.561  11.688 -0.2012  0.0487 -0.1631
13954TIP3    H163353   4.680   4.577  11.616 -1.1192  1.5588  0.8918
13954TIP3    H263354   4.756   4.647  11.727  1.8806 -0.4283  0.2196
13955TIP3   OH263355   3.600   2.839  13.724  0.3641  0.1415 -0.0823
13955TIP3    H163356   3.665   2.795  13.669  0.6803 -0.8560  1.0528
13955TIP3    H263357   3.651   2.886  13.790  0.0489  2.4822 -1.3752
13956TIP3   OH263358   3.563   6.567   2.961  0.1664 -0.5834 -0.7204
13956TIP3    H163359   3.532   6.636   3.020  1.5446  1.0128 -1.7931
13956TIP3    H263360   3.487   6.546   2.906 -0.4806 -0.4916  0.1161
13957TIP3   OH263361   0.053   3.174  14.097 -0.0008 -0.2006 -0.0563
13957TIP3    H163362   0.021   3.194  14.185  0.5980  0.9461 -0.0757
13957TIP3    H263363   0.000   3.230  14.040 -1.5264 -2.1045 -0.6365
13958TIP3   OH263364   5.041   3.854   5.197  0.1538 -0.3769 -0.2180
13958TIP3    H163365   5.136   3.843   5.192  0.0729 -0.9802 -0.6362
13958TIP3    H263366   5.026   3.946   5.175  0.6628 -0.1965  0.1852
13959TIP3   OH263367   2.829   6.620   5.483 -0.4710 -0.0605 -0.0411
13959TIP3    H163368   2.807   6.615   5.390 -1.4046  2.6600 -0.0437
13959TIP3    H263369   2.853   6.711   5.497 -0.1121 -0.4705  2.3486
13960TIP3   OH263370   6.457   0.157  12.080 -0.2470  0.0146 -0.2248
13960TIP3    H163371   6.431   0.235  12.032  1.7824  0.6414 -0.3995
13960TIP3    H263372   6.536   0.126  12.036 -0.0191 -1.1245  0.9042
13961TIP3   OH263373   6.105   6.293   0.090  0.6115  0.0385  0.2256
13961TIP3    H163374   6.187   6.243   0.093  1.4896  1.4103  0.0838
13961TIP3    H263375   6.107   6.337   0.005 -0.8624 -0.8039 -0.2918
13962TIP3   OH263376   1.821   1.546  12.349  0.0108  0.7928  0.1534
13962TIP3    H163377   1.797   1.552  12.256  4.0171 -0.1675 -1.1586
13962TIP3    H263378   1.895   1.606  12.358  1.8071 -1.5240  1.8707
13963TIP3   OH263379   0.679   5.151   5.378 -0.7764 -0.3704 -0.4704
13963TIP3    H163380   0.757   5.109   5.341 -0.8500 -0.6953 -0.2660
13963TIP3    H263381   0.712   5.198   5.455 -0.6556  0.1420 -0.8351
13964TIP3   OH263382   4.831   4.042  16.363 -0.1329  0.2204  0.5565
13964TIP3    H163383   4.744   4.056  16.400 -0.3737  1.0515 -0.2872
13964TIP3    H263384   4.814   4.023  16.270  0.6144  1.0424  0.2379
13965TIP3   OH263385   2.231   4.420   1.607  0.3104  0.0796 -0.1429
13965TIP3    H163386   2.273   4.502   1.632  1.1632 -0.0493 -1.1026
13965TIP3    H263387   2.216   4.375   1.690 -0.0871  1.1417  0.3959
13966TIP3   OH263388   4.402   0.865   3.785 -0.1171  0.0042 -0.1503
13966TIP3    H163389   4.343   0.894   3.715 -0.9361 -1.7273 -0.2171
13966TIP3    H263390   4.467   0.810   3.741 -0.1835 -0.4677  0.3414
13967TIP3   OH263391   0.867   5.942  14.258 -0.1999 -0.4027 -1.0430
13967TIP3    H163392   0.933   5.889  14.213 -0.2922 -0.2302 -1.3879
13967TIP3    H263393   0.888   5.933  14.351  0.9952  0.5128 -1.1952
13968TIP3   OH263394   1.233   3.741  14.997  0.0766 -0.1458  0.4188
13968TIP3    H163395   1.200   3.800  14.929  0.8019 -1.2178 -0.9201
13968TIP3    H263396   1.316   3.782  15.025 -0.4007  0.4863  0.9363
13969TIP3   OH263397   5.023   4.831  16.783 -0.6112 -0.6910 -0.8711
13969TIP3    H163398   5.086   4.763  16.760  0.7244 -0.3755  1.5264
13969TIP3    H263399   5.069   4.913  16.767 -0.4714 -0.4520  0.6226
13970TIP3   OH263400   6.689   2.246   1.964  0.1647 -0.4701  0.1973
13970TIP3    H163401   6.685   2.175   1.900 -1.4564  0.9488 -1.3825
13970TIP3    H263402   6.780   2.275   1.961  0.2181 -0.6840 -1.2421
13971TIP3   OH263403   0.078   3.672  11.215 -0.0432 -0.2132 -0.3114
13971TIP3    H163404   0.140   3.698  11.147  0.1129 -0.2260 -0.1740
13971TIP3    H263405   0.063   3.752  11.265  1.0857 -0.5734  0.6281
13972TIP3   OH263406   0.469   6.208  12.558  0.3533  0.7041 -0.0265
13972TIP3    H163407   0.397   6.244  12.609 -1.0699 -0.2680 -1.2521
13972TIP3    H263408   0.497   6.130  12.607 -0.9275 -0.1597 -0.5924
13973TIP3   OH263409   3.704   1.430  14.164  0.1741 -0.3861  0.3615
13973TIP3    H163410   3.685   1.407  14.073  0.6357  0.7197 -0.0353
13973TIP3    H263411   3.619   1.427  14.208 -0.0178 -1.1736 -0.0371
13974TIP3   OH263412   5.392   1.821  16.395  1.1002  0.4677 -0.2792
13974TIP3    H163413   5.402   1.735  16.354  2.1360  0.5320 -0.1833
13974TIP3    H263414   5.418   1.883  16.326 -0.9582  0.8088 -0.8179
13975TIP3   OH263415   2.241   5.811  14.754  0.0270  0.0284 -0.4677
13975TIP3    H163416   2.178   5.743  14.729 -0.0017 -1.0284  2.0761
13975TIP3    H263417   2.214   5.888  14.704 -0.9007 -1.4038 -2.3003
13976TIP3   OH263418   2.090   5.353   6.514 -0.4694  0.4060 -0.3210
13976TIP3    H163419   2.039   5.432   6.496 -1.1843 -0.2631 -1.4068
13976TIP3    H263420   2.047   5.285   6.462 -0.5427 -0.9499  1.4156
13977TIP3   OH263421   1.159   0.323  15.542  0.2037  0.3246  0.1159
13977TIP3    H163422   1.138   0.275  15.622 -0.1576 -1.2473 -0.8804
13977TIP3    H263423   1.147   0.259  15.472  2.1941  1.1438 -1.0685
13978TIP3   OH263424   3.522   6.124  15.724  0.2664  0.2813 -0.0890
13978TIP3    H163425   3.433   6.154  15.743 -0.2313 -1.3765  0.4060
13978TIP3    H263426   3.549   6.078  15.804  2.0930  1.8422  0.2538
13979TIP3   OH263427   6.513   1.725   0.786 -0.0163  0.9505  0.4535
13979TIP3    H163428   6.574   1.791   0.819  0.5086  2.1190 -2.5836
13979TIP3    H263429   6.567   1.647   0.773 -0.4682  0.0465  3.2235
13980TIP3   OH263430   4.292   4.784  13.451  0.0697 -0.1265 -0.1518
13980TIP3    H163431   4.232   4.725  13.495 -0.4782  0.5267 -0.0082
13980TIP3    H263432   4.378   4.743  13.461 -0.0011  0.0835  1.7090
13981TIP3   OH263433   0.287   1.686   3.476  0.0987  0.4503 -0.3166
13981TIP3    H163434   0.239   1.716   3.399 -1.4433  0.1694  0.5070
13981TIP3    H263435   0.313   1.766   3.521 -1.0455  0.6145  0.0849
13982TIP3   OH263436   4.073   6.008  12.408  0.7484  0.2996  0.2705
13982TIP3    H163437   4.168   6.020  12.409  0.5426  2.6101 -0.8091
13982TIP3    H263438   4.043   6.046  12.491  0.6857  0.5241  0.1452
13983TIP3   OH263439   6.471   0.606   1.359 -0.3185 -0.4679 -0.2580
13983TIP3    H163440   6.440   0.689   1.394 -2.1524 -0.4105 -1.8229
13983TIP3    H263441   6.405   0.542   1.385  0.6867 -1.3288  0.2903
13984TIP3   OH263442   0.623   1.373   2.019 -0.1260 -0.4187  0.0909
13984TIP3    H163443   0.568   1.380   1.941  1.6883  2.4714 -1.0501
13984TIP3    H263444   0.581   1.430   2.083 -0.2284 -0.7882  0.3542
13985TIP3   OH263445   6.018   2.466  11.688 -0.0082  0.7676  0.1999
13985TIP3    H163446   6.101   2.417  11.683 -1.3510 -1.6186 -0.0756
13985TIP3    H263447   5.991   2.476  11.597 -0.1331  1.3410  0.2994
13986TIP3   OH263448   3.483   5.556  15.773  0.0714 -0.0084  0.2743
13986TIP3    H163449   3.429   5.548  15.694  0.1342  1.1912  0.0840
13986TIP3    H263450   3.455   5.484  15.829 -0.0031 -0.8635 -0.8253
13987TIP3   OH263451   4.071   3.906  13.117  0.2109  0.2474 -0.0573
13987TIP3    H163452   4.129   3.908  13.040  1.1248  2.8963  0.6185
13987TIP3    H263453   3.983   3.916  13.080  0.6885  2.2073 -0.7985
13988TIP3   OH263454   2.049   5.836  13.127  0.8492  0.1021  0.1791
13988TIP3    H163455   1.984   5.850  13.196 -0.5121 -1.9382 -0.6077
13988TIP3    H263456   2.075   5.925  13.102 -2.2248  1.0871  0.0053
13989TIP3   OH263457   2.388   0.785   1.328 -0.3195  0.3963 -0.0255
13989TIP3    H163458   2.299   0.820   1.339 -0.0000  1.2169  0.0705
13989TIP3    H263459   2.430   0.846   1.268  0.0123 -0.3026 -0.5142
13990TIP3   OH263460   2.087   1.480  12.708  0.0003  0.2587  0.3138
13990TIP3    H163461   2.140   1.449  12.634  0.7387  1.2353  0.4191
13990TIP3    H263462   2.107   1.573  12.715 -1.2175  0.5000  0.8021
13991TIP3   OH263463   6.760   4.070  15.829 -0.2909 -0.0458 -0.0032
13991TIP3    H163464   6.752   4.152  15.878 -1.3545  1.6654 -2.7819
13991TIP3    H263465   6.674   4.058  15.789  0.0926 -2.1336 -0.3107
13992TIP3   OH263466   2.853   6.298  14.186  0.0609  0.3804 -0.0763
13992TIP3    H163467   2.802   6.376  14.209 -1.5783 -0.7575  0.3317
13992TIP3    H263468   2.884   6.264  14.270  0.7844  0.5965 -0.2545
13993TIP3   OH263469   0.851   5.338  10.922 -0.1411  0.8596 -0.0134
13993TIP3    H163470   0.899   5.328  11.004  2.3572  0.5109 -1.4092
13993TIP3    H263471   0.909   5.391  10.866 -1.2936  0.2908 -1.8526
13994TIP3   OH263472   0.222   4.666   4.890 -0.2746  0.0911  0.4084
13994TIP3    H163473   0.212   4.576   4.924 -0.0883 -0.2096 -0.3234
13994TIP3    H263474   0.314   4.672   4.865 -0.0876  0.7703  1.2306
13995TIP3   OH263475   5.694   4.299  16.841 -0.3366 -0.1526 -0.4972
13995TIP3    H163476   5.692   4.250  16.923  2.2013  0.0369 -0.2482
13995TIP3    H263477   5.651   4.382  16.862 -1.7628 -0.9723 -0.0416
13996TIP3   OH263478   1.424   4.852  13.145  0.0192  0.3590 -0.2344
13996TIP3    H163479   1.461   4.881  13.062  0.4224  1.9882  0.4759
13996TIP3    H263480   1.341   4.810  13.121  0.5120  0.0800 -1.5123
13997TIP3   OH263481   1.072   2.083  15.842 -0.1340 -0.3719  0.2393
13997TIP3    H163482   1.120   2.072  15.924 -2.8473  0.6847  2.1361
13997TIP3    H263483   1.010   2.010  15.841  0.4184 -0.8590 -1.3687
13998TIP3   OH263484   3.372   0.323   4.786 -0.2356 -0.3031  0.1463
13998TIP3    H163485   3.403   0.405   4.826 -0.1139 -0.0355 -0.4825
13998TIP3    H263486   3.335   0.350   4.702 -1.1618 -0.7654  0.3941
13999TIP3   OH263487   6.581   0.226  10.951  0.4000 -0.2260  0.0547
13999TIP3    H163488   6.541   0.155  10.901  0.5204  0.5951 -1.2496
13999TIP3    H263489   6.592   0.297  10.888  1.8931  0.3462  0.9142
14000TIP3   OH263490   1.322   1.736   4.661  0.5624 -0.7597 -0.5160
14000TIP3    H163491   1.387   1.779   4.606  0.2550  1.1978  0.5745
14000TIP3    H263492   1.238   1.775   4.636  0.1348 -1.4072 -0.1385
14001TIP3   OH263493   0.739   3.658   1.149 -0.0777 -0.0939  0.8258
14001TIP3    H163494   0.649   3.638   1.173 -0.4048  1.3917  0.9025
14001TIP3    H263495   0.782   3.677   1.233  0.1284 -0.0983  0.7213
14002TIP3   OH263496   6.028   1.916  14.395  0.4386  0.2088  0.6798
14002TIP3    H163497   5.938   1.948  14.391  0.3631 -0.0871 -0.2787
14002TIP3    H263498   6.032   1.848  14.328  1.7973  1.2801 -0.3983
14003TIP3   OH263499   5.957   1.266   5.057  0.5367  0.0929  0.3280
14003TIP3    H163500   6.006   1.329   5.004  0.2629 -3.0791 -4.3318
14003TIP3    H263501   5.866   1.276   5.028  0.4064 -1.9693 -0.1338
14004TIP3   OH263502   4.619   4.195  12.065 -0.1843  0.3349 -0.2383
14004TIP3    H163503   4.525   4.206  12.056 -0.1109 -0.4852 -2.6153
14004TIP3    H263504   4.656   4.275  12.027  0.0648 -0.2963 -1.3871
14005TIP3   OH263505   3.496   0.968   3.635  0.6370 -0.1790  0.3642
14005TIP3    H163506   3.520   0.997   3.546 -1.1459 -0.3363 -0.2022
14005TIP3    H263507   3.527   1.039   3.692  0.0506  0.8730 -0.5859
14006TIP3   OH263508   4.875   5.774   2.619  0.3650 -0.0653 -0.1299
14006TIP3    H163509   4.876   5.702   2.682  1.0086 -1.5739 -1.7647
14006TIP3    H263510   4.836   5.736   2.540  3.2340  0.4566 -1.9735
14007TIP3   OH263511   1.059   6.001  13.336  0.2263 -0.0809 -0.2403
14007TIP3    H163512   1.104   5.958  13.263 -0.9716  0.0086 -1.0553
14007TIP3    H263513   1.036   6.088  13.302 -1.6784 -0.5695 -0.3310
14008TIP3   OH263514   0.360   5.788  16.052 -0.4018  0.4241  0.7526
14008TIP3    H163515   0.266   5.807  16.048 -0.4690 -0.0697 -0.3241
14008TIP3    H263516   0.369   5.725  16.123 -0.9552  0.1505  0.5864
14009TIP3   OH263517   6.763   0.702  11.433  0.0146  0.2479  0.0029
14009TIP3    H163518   6.770   0.762  11.508 -1.3767 -0.1126  0.4647
14009TIP3    H263519   6.706   0.749  11.371 -0.1633 -0.1279 -0.1177
14010TIP3   OH263520   5.839   5.881  12.454  0.0872  0.2564 -0.3356
14010TIP3    H163521   5.753   5.847  12.478 -0.4485  1.3815 -0.5912
14010TIP3    H263522   5.820   5.956  12.399  1.2582 -0.4360 -1.7585
14011TIP3   OH263523   4.625   6.450   4.689  0.5981 -0.2624  0.0409
14011TIP3    H163524   4.593   6.360   4.680  0.6802 -0.2124 -0.8133
14011TIP3    H263525   4.546   6.503   4.694  0.5167 -0.4778  1.9392
14012TIP3   OH263526   5.202   2.335  14.297  0.3928 -0.0385 -0.1811
14012TIP3    H163527   5.229   2.337  14.389  3.0444  0.4747 -0.8822
14012TIP3    H263528   5.157   2.418  14.283 -1.1096 -0.6348  0.9033
14013TIP3   OH263529   3.302   0.149   0.975  0.4333  0.6172  0.3230
14013TIP3    H163530   3.268   0.222   1.027 -1.4524  0.1016 -0.0916
14013TIP3    H263531   3.226   0.117   0.926  1.1752 -1.6448  0.5115
14014TIP3   OH263532   4.015   4.358  12.043  0.0394  0.1389  0.0934
14014TIP3    H163533   3.979   4.364  12.132  0.3392 -0.1170  0.2350
14014TIP3    H263534   4.091   4.416  12.043  0.7986 -0.8239  0.3934
14015TIP3   OH263535   1.784   1.802   5.219 -0.2765 -0.2002 -0.3869
14015TIP3    H163536   1.785   1.825   5.126  1.1607  1.6011  0.0131
14015TIP3    H263537   1.853   1.857   5.257 -0.1198 -1.6721  1.5660
14016TIP3   OH263538   2.335   0.012   3.961  0.2889 -0.5274 -0.2193
14016TIP3    H163539   2.400   0.079   3.984 -0.9932 -0.2525  3.2026
14016TIP3    H263540   2.377  -0.071   3.986  0.0840 -0.5351  0.1055
14017TIP3   OH263541   3.076   3.689  11.376 -0.2300  0.5509 -0.0633
14017TIP3    H163542   2.987   3.662  11.356  0.7392 -0.8505 -3.0458
14017TIP3    H263543   3.112   3.719  11.292  2.2125  0.7305  0.9528
14018TIP3   OH263544   2.602   1.868   5.443 -0.1196  0.2653  0.3139
14018TIP3    H163545   2.672   1.827   5.392  0.4232  1.0146  0.4457
14018TIP3    H263546   2.579   1.803   5.510  0.3228 -0.0516  0.1621
14019TIP3   OH263547   6.212   2.844   1.593  0.1086 -0.0210 -0.4041
14019TIP3    H163548   6.217   2.900   1.516  1.0879 -0.1946 -0.4819
14019TIP3    H263549   6.295   2.798   1.595  0.9480  1.3712  1.8028
14020TIP3   OH263550   2.010   5.966  16.564  0.5692  0.2134  0.0592
14020TIP3    H163551   1.961   6.014  16.497  0.8058  1.7815  0.9582
14020TIP3    H263552   2.046   6.034  16.621  2.2441 -0.9844  0.4972
14021TIP3   OH263553   6.206   1.961   4.576 -0.8026 -0.0668 -0.1587
14021TIP3    H163554   6.278   1.949   4.637 -1.6991 -1.1349  0.7432
14021TIP3    H263555   6.214   1.888   4.514 -1.7547 -0.8717  0.6405
14022TIP3   OH263556   1.629   3.785   6.287  0.7181  0.5574 -0.1018
14022TIP3    H163557   1.605   3.819   6.373  1.7513  2.9089 -0.6402
14022TIP3    H263558   1.720   3.757   6.296  1.1277  1.6599 -0.6017
14023TIP3   OH263559   2.904   2.199  13.276  0.2392 -0.3953  0.1692
14023TIP3    H163560   2.999   2.194  13.267  0.4523  2.3987 -0.1673
14023TIP3    H263561   2.888   2.175  13.368  1.0530 -2.3523 -0.1572
14024TIP3   OH263562   6.556   2.058   2.749  0.2260 -0.0651 -0.1623
14024TIP3    H163563   6.547   1.962   2.745  1.5115 -0.1994 -0.0456
14024TIP3    H263564   6.487   2.090   2.690 -2.0018 -0.9441  1.8045
14025TIP3   OH263565   3.409   4.512  11.346 -0.0456  0.5170 -0.0270
14025TIP3    H163566   3.373   4.538  11.262  0.0613  1.8519  0.3138
14025TIP3    H263567   3.419   4.594  11.394  1.8299  0.0190  0.5244
14026TIP3   OH263568   2.442   4.467  10.404  0.1136  0.3953 -0.2160
14026TIP3    H163569   2.479   4.555  10.396  0.2508  0.3776  0.1728
14026TIP3    H263570   2.418   4.442  10.315 -0.7231  1.1697 -0.2275
14027TIP3   OH263571   5.760   1.892   3.109  0.6355  0.2541  0.4942
14027TIP3    H163572   5.805   1.950   3.048  1.6953  1.2023  2.1055
14027TIP3    H263573   5.735   1.948   3.182 -0.2167 -0.9196  1.1411
14028TIP3   OH263574   3.039   5.668  16.423 -0.1484  0.0977 -0.3073
14028TIP3    H163575   2.973   5.737  16.414 -0.3249  0.0407  0.4765
14028TIP3    H263576   2.993   5.588  16.398 -0.4645  0.0212  0.4838
14029TIP3   OH263577   0.058   4.284  14.985 -0.2339  0.1202 -0.6239
14029TIP3    H163578   0.136   4.235  15.011  0.3196  0.6873 -1.1719
14029TIP3    H263579   0.069   4.369  15.027  0.3111  0.7987 -2.0689
14030TIP3   OH263580   4.618   6.236   4.009  0.8133 -0.6011 -0.6434
14030TIP3    H163581   4.673   6.207   4.082  2.4306 -0.2935 -1.6858
14030TIP3    H263582   4.562   6.304   4.046  2.5726  0.5427  0.0420
14031TIP3   OH263583   0.605   2.799   3.512  0.1465  0.1599 -0.6979
14031TIP3    H163584   0.602   2.887   3.474  0.1208  0.2619 -0.4596
14031TIP3    H263585   0.685   2.797   3.565 -0.6520  0.5740  0.5738
14032TIP3   OH263586   3.021   5.430  12.062  0.4708 -0.3687  0.0838
14032TIP3    H163587   2.998   5.495  11.996 -0.3540 -1.6840 -0.9625
14032TIP3    H263588   3.111   5.404  12.041  0.5723 -0.0452  0.1154
14033TIP3   OH263589   1.421   6.501  16.124  0.3276  0.0563 -0.3193
14033TIP3    H163590   1.470   6.549  16.191 -0.0498 -0.7874  0.5831
14033TIP3    H263591   1.462   6.527  16.042  1.1168  0.7507  0.2696
14034TIP3   OH263592   0.375   5.622  13.181  0.1940  0.3065  0.1728
14034TIP3    H163593   0.421   5.597  13.262 -0.1000 -0.1575  0.1997
14034TIP3    H263594   0.384   5.546  13.124 -1.8628 -0.4401  0.7535
14035TIP3   OH263595   3.585   1.691  10.113  0.2242 -0.1086  0.3182
14035TIP3    H163596   3.547   1.670  10.199 -0.9438  0.6298  0.0071
14035TIP3    H263597   3.630   1.774  10.127  1.1589 -0.6257  0.5063
14036TIP3   OH263598   3.095   2.601  14.181 -0.0956  0.4492  0.3514
14036TIP3    H163599   3.009   2.562  14.197  0.2105  0.3260  1.7764
14036TIP3    H263600   3.075   2.691  14.154 -0.6717  0.4375  0.7171
14037TIP3   OH263601   0.137   5.017   1.106 -0.1131 -0.4088 -0.7798
14037TIP3    H163602   0.065   5.067   1.145  0.1330 -0.3020 -0.4665
14037TIP3    H263603   0.094   4.940   1.069 -0.4712 -0.0505 -1.1208
14038TIP3   OH263604   1.389   3.702  10.747 -0.6052  0.2737 -0.3084
14038TIP3    H163605   1.298   3.673  10.744 -0.8878  0.9651  1.2083
14038TIP3    H263606   1.394   3.774  10.683 -1.0015 -0.0416 -0.7008
14039TIP3   OH263607   0.209   5.078   5.852  0.2704  0.4646  0.0375
14039TIP3    H163608   0.164   5.054   5.933 -0.4454 -0.3088 -0.5804
14039TIP3    H263609   0.262   5.154   5.876 -0.1360  0.4071  1.1652
14040TIP3   OH263610   3.762   1.015   4.662 -0.0531  0.0053  0.3794
14040TIP3    H163611   3.822   1.039   4.733 -0.2976 -1.3433  1.0766
14040TIP3    H263612   3.749   0.921   4.673  0.8337 -0.5015 -2.1955
14041TIP3   OH263613   1.675   2.514   5.166 -0.1051 -0.2215  0.0948
14041TIP3    H163614   1.637   2.436   5.207 -0.1666  0.4609  1.3664
14041TIP3    H263615   1.755   2.482   5.124 -1.3624 -1.4270 -1.5218
14042TIP3   OH263616   0.672   2.204   1.792 -0.5012 -0.3667 -0.6818
14042TIP3    H163617   0.630   2.270   1.847  2.4847  0.7478  0.4822
14042TIP3    H263618   0.699   2.252   1.714  1.2219 -0.2522 -0.0604
14043TIP3   OH263619   0.567   4.944  13.265  0.2242  0.3897  0.4534
14043TIP3    H163620   0.609   4.897  13.337 -0.4164  1.3558  1.5081
14043TIP3    H263621   0.511   4.879  13.223  0.0376 -0.0133  1.3073
14044TIP3   OH263622   6.319   1.091   2.140  0.4052 -0.0598 -0.2624
14044TIP3    H163623   6.225   1.078   2.148  0.3628  0.8375  0.9399
14044TIP3    H263624   6.330   1.186   2.136  1.2154 -0.1775 -1.1581
14045TIP3   OH263625   0.820   5.946   2.304 -0.1632 -0.0858 -0.1871
14045TIP3    H163626   0.852   5.974   2.390 -1.7923  0.6994  0.1976
14045TIP3    H263627   0.726   5.960   2.308 -0.1786  0.8651 -2.4438
14046TIP3   OH263628   3.398   2.818   0.765  0.3000 -0.3583 -0.0622
14046TIP3    H163629   3.362   2.744   0.715  0.4093 -0.6226  0.2417
14046TIP3    H263630   3.453   2.776   0.831  0.4892  0.0078  0.0093
14047TIP3   OH263631   5.972   5.271   2.454  0.0045  0.5345  0.5878
14047TIP3    H163632   5.979   5.325   2.374  0.3119 -1.2199 -0.6242
14047TIP3    H263633   5.878   5.264   2.470 -0.0371  1.5739  0.8885
14048TIP3   OH263634   5.701   0.485  10.705 -0.1038  0.1849  0.3472
14048TIP3    H163635   5.773   0.436  10.666  0.1792  1.5225 -0.9081
14048TIP3    H263636   5.643   0.504  10.631 -0.5647  1.0858  0.9315
14049TIP3   OH263637   2.069   0.258  13.270  0.2083 -0.0162  0.0238
14049TIP3    H163638   2.061   0.216  13.356  0.9102  0.6941  0.4505
14049TIP3    H263639   2.041   0.348  13.285  2.9073  0.8887  0.1765
14050TIP3   OH263640   1.618   6.730  12.883 -0.6253 -0.2867 -0.1478
14050TIP3    H163641   1.673   6.777  12.947 -2.1576 -1.1199  1.8799
14050TIP3    H263642   1.553   6.795  12.855 -1.0713 -0.4210  0.5613
14051TIP3   OH263643   3.804   4.442   0.542 -0.2258 -0.0221 -0.4946
14051TIP3    H163644   3.750   4.430   0.463 -2.8164 -0.1385  1.1750
14051TIP3    H263645   3.764   4.517   0.586  0.5188 -0.5885  1.2049
14052TIP3   OH263646   3.388   0.475  12.004  0.5767 -0.3514 -0.1059
14052TIP3    H163647   3.473   0.431  12.011 -0.1771 -1.8628  0.1094
14052TIP3    H263648   3.371   0.478  11.910  0.5545 -0.7191 -0.1183
14053TIP3   OH263649   2.631   1.866  16.328  0.4934  0.3658  0.1731
14053TIP3    H163650   2.567   1.863  16.257  1.3263  0.8336 -0.6116
14053TIP3    H263651   2.591   1.815  16.398  0.0004 -0.7474 -0.8952
14054TIP3   OH263652   6.836   1.426  15.972  0.5164 -0.0416  0.1300
14054TIP3    H163653   6.867   1.456  15.887 -2.2054 -0.0311 -0.9653
14054TIP3    H263654   6.744   1.405  15.958  0.6075 -2.5794  2.4669
14055TIP3   OH263655   5.455   0.629   1.372  0.0184 -0.4490 -0.2658
14055TIP3    H163656   5.430   0.720   1.356  1.1220 -0.1337 -0.3543
14055TIP3    H263657   5.411   0.604   1.453  1.2033  0.8168  0.8213
14056TIP3   OH263658   3.944   3.209  12.267  0.3015  0.1840 -0.1241
14056TIP3    H163659   3.867   3.166  12.230  0.7138 -0.0960 -0.6712
14056TIP3    H263660   3.962   3.162  12.348  0.1565 -0.0275 -0.2169
14057TIP3   OH263661   4.956   0.770   4.184 -0.2215  0.3970  0.5978
14057TIP3    H163662   4.864   0.745   4.181 -0.3156  0.8190 -0.7506
14057TIP3    H263663   4.978   0.792   4.094  1.3330 -0.1476  0.8118
14058TIP3   OH263664   2.544   1.794  15.513  0.4932  0.2609 -0.4410
14058TIP3    H163665   2.609   1.761  15.451  1.1595  1.0510 -0.1848
14058TIP3    H263666   2.584   1.873  15.550 -0.1093  0.0828  0.6290
14059TIP3   OH263667   3.820   5.243  10.890 -0.1562  0.5984 -0.0969
14059TIP3    H163668   3.806   5.194  10.810 -1.1289 -0.7853  0.8840
14059TIP3    H263669   3.737   5.289  10.905  0.1529  1.1596 -0.0721
14060TIP3   OH263670   3.273   1.990   1.775  0.1456 -0.2874  0.3872
14060TIP3    H163671   3.259   1.899   1.800 -0.8223  0.0410  1.1089
14060TIP3    H263672   3.334   2.024   1.840  0.9234 -0.5562 -0.1950
14061TIP3   OH263673   6.389   0.046   3.715  0.2792 -0.1184 -0.1492
14061TIP3    H163674   6.448  -0.023   3.744  1.1759  0.9469  0.6626
14061TIP3    H263675   6.367   0.095   3.794 -1.6363 -0.4148 -0.4514
14062TIP3   OH263676   2.788   5.161  15.014 -0.1915 -0.3946  0.4063
14062TIP3    H163677   2.774   5.240  15.065 -1.7251 -0.3823  0.0126
14062TIP3    H263678   2.869   5.178  14.965  0.1910  0.3953  1.2825
14063TIP3   OH263679   4.932   2.059   0.030  0.3732 -0.2456 -0.3525
14063TIP3    H163680   4.910   1.986   0.088  0.6750 -2.0543 -2.3829
14063TIP3    H263681   5.027   2.053   0.021  0.4652  0.7483 -0.1511
14064TIP3   OH263682   2.668   5.522  11.425  0.7181 -0.0400  0.1903
14064TIP3    H163683   2.667   5.551  11.333  0.8266  0.6746  0.4101
14064TIP3    H263684   2.741   5.570  11.464 -0.6491  1.3151  1.1698
14065TIP3   OH263685   3.152   3.801   5.570 -0.5359  0.0114  0.0832
14065TIP3    H163686   3.221   3.865   5.552 -0.6179  0.0663 -0.0340
14065TIP3    H263687   3.161   3.736   5.501 -1.8551  1.0393 -1.1123
14066TIP3   OH263688   2.775   5.707   2.530  0.6074  0.4292  0.2370
14066TIP3    H163689   2.789   5.617   2.501  1.9026  0.0846  1.7760
14066TIP3    H263690   2.751   5.698   2.622  0.7075  1.6631  0.3949
14067TIP3   OH263691   3.107   6.844  15.134  0.3338  0.1714  0.6401
14067TIP3    H163692   3.014   6.831  15.149  0.3748  2.6095  4.2037
14067TIP3    H263693   3.150   6.778  15.187  0.7161 -0.6841 -0.6777
14068TIP3   OH263694   4.668   6.779  15.325  0.1361 -0.0121 -0.8784
14068TIP3    H163695   4.717   6.759  15.246  3.3074  2.0610  0.3835
14068TIP3    H263696   4.618   6.857  15.303  0.4982  0.1792 -1.0252
14069TIP3   OH263697   3.068   4.113   0.850 -0.4624  0.1957  0.0027
14069TIP3    H163698   3.067   4.171   0.925 -0.7904 -0.1093  0.2402
14069TIP3    H263699   2.980   4.073   0.849  0.1878 -1.3352  0.6670
14070TIP3   OH263700   1.350   6.199   2.331 -0.0731  0.3458 -0.9437
14070TIP3    H163701   1.356   6.249   2.412  0.5944  0.7957 -1.2562
14070TIP3    H263702   1.441   6.180   2.308 -0.3200 -2.2782 -0.0787
14071TIP3   OH263703   6.812   0.875  12.202  0.1526  0.0460  0.3095
14071TIP3    H163704   6.888   0.827  12.236  0.4383  0.2940  0.0325
14071TIP3    H263705   6.848   0.959  12.173 -0.6201  1.1927  2.4706
14072TIP3   OH263706   3.248   3.760  12.535 -0.0014 -0.2101  0.4477
14072TIP3    H163707   3.218   3.848  12.508  0.3527 -0.2037  0.0579
14072TIP3    H263708   3.340   3.758  12.510 -0.1021 -0.8298  0.1142
14073TIP3   OH263709   5.049   4.295   3.208  0.5459 -0.5168 -0.0463
14073TIP3    H163710   4.971   4.342   3.239  0.2483 -1.6022  0.8897
14073TIP3    H263711   5.055   4.320   3.115 -0.6867 -0.1021 -0.0460
14074TIP3   OH263712   1.043   0.683  16.554 -0.1199  0.1821 -0.0768
14074TIP3    H163713   1.022   0.648  16.641 -0.0696  0.1795 -0.0658
14074TIP3    H263714   1.138   0.674  16.547 -0.1945 -0.4568 -0.4048
14075TIP3   OH263715   2.035   4.920  14.857  0.0930  0.5015 -0.4069
14075TIP3    H163716   2.045   4.922  14.762  0.2945 -0.5702 -0.4239
14075TIP3    H263717   2.089   4.846  14.885  0.3616  1.0537  0.5891
14076TIP3   OH263718   4.328   2.285  11.690 -0.2403  0.2907 -0.1252
14076TIP3    H163719   4.246   2.325  11.718  0.4183  2.3156 -0.9393
14076TIP3    H263720   4.381   2.358  11.659  0.8892 -1.2689 -2.0911
14077TIP3   OH263721   0.730   4.407  14.213 -0.3614  0.4029  0.1279
14077TIP3    H163722   0.671   4.427  14.140 -0.8338  1.0464  0.6737
14077TIP3    H263723   0.673   4.373  14.282  0.1488 -0.6857  0.0287
14078TIP3   OH263724   5.333   3.469   3.504 -0.1401 -0.0711  0.5505
14078TIP3    H163725   5.332   3.563   3.522 -0.1135 -0.1348  0.8993
14078TIP3    H263726   5.411   3.456   3.451 -0.1047  0.0946  0.5596
14079TIP3   OH263727   4.474   3.802  14.225  0.1544  0.0136 -0.0677
14079TIP3    H163728   4.475   3.824  14.318  0.4602 -0.0717 -0.0532
14079TIP3    H263729   4.543   3.857  14.187  1.1043 -1.1049  0.0058
14080TIP3   OH263730   1.426   1.957   0.259  0.9143  0.5344  0.5764
14080TIP3    H163731   1.482   1.969   0.182 -0.1865  2.2054 -0.0400
14080TIP3    H263732   1.384   2.042   0.270 -0.6750 -0.3514  1.6564
14081TIP3   OH263733   6.143   0.623   5.429  0.5106 -0.1391  0.3309
14081TIP3    H163734   6.181   0.660   5.509  1.0314 -1.1348  0.5610
14081TIP3    H263735   6.217   0.581   5.385  0.1196 -0.0636 -0.4090
14082TIP3   OH263736   0.233   1.432   3.546 -0.2017  0.2145  0.6435
14082TIP3    H163737   0.236   1.524   3.521  0.4222  0.3677  1.2485
14082TIP3    H263738   0.307   1.420   3.604  0.4487 -0.9548 -0.3556
14083TIP3   OH263739   1.576   0.392  14.250  0.6199  0.0967 -0.4460
14083TIP3    H163740   1.506   0.404  14.314 -1.2071 -0.2024 -2.3052
14083TIP3    H263741   1.603   0.300  14.261  1.2543  0.4045  0.7489
14084TIP3   OH263742   0.705   2.271   2.267 -0.0477 -0.0496 -0.5113
14084TIP3    H163743   0.621   2.273   2.313  0.8581  1.5918  1.1849
14084TIP3    H263744   0.681   2.265   2.174 -2.0322  0.2810 -0.0634
14085TIP3   OH263745   5.188   2.615   0.716  0.3698  0.5268 -0.0637
14085TIP3    H163746   5.218   2.654   0.634  0.3064  1.5606  0.3911
14085TIP3    H263747   5.118   2.555   0.690  0.7970  0.3506 -0.8240
14086TIP3   OH263748   3.594   5.395  13.745  0.3911 -0.1215  0.6513
14086TIP3    H163749   3.658   5.445  13.796 -0.7487 -0.9962  3.0868
14086TIP3    H263750   3.644   5.320  13.711  1.9687  2.1602 -2.5424
14087TIP3   OH263751   3.860   3.090  14.269  0.1628 -0.4153 -0.1654
14087TIP3    H163752   3.888   3.101  14.178 -0.7579 -0.8843 -0.5241
14087TIP3    H263753   3.870   2.996  14.285  1.5690 -0.1517  0.6620
14088TIP3   OH263754   3.476   0.293   3.676  0.4714  0.0326 -0.2742
14088TIP3    H163755   3.571   0.297   3.680  0.6212 -1.9490 -0.9444
14088TIP3    H263756   3.456   0.201   3.661 -1.7089 -0.2341  3.2320
14089TIP3   OH263757   4.889   2.743  14.322  0.0481  0.5746 -0.4090
14089TIP3    H163758   4.831   2.677  14.282  0.1625  0.4940 -0.4440
14089TIP3    H263759   4.927   2.788  14.247  1.0776 -0.2809 -0.4233
14090TIP3   OH263760   2.658   3.774   4.422  0.2584  0.4330  0.2948
14090TIP3    H163761   2.564   3.796   4.421 -0.0346 -0.7816  0.0976
14090TIP3    H263762   2.701   3.858   4.407 -0.7303  1.3168  2.0707
14091TIP3   OH263763   4.440   4.723   1.083  0.1486 -0.0578 -0.5294
14091TIP3    H163764   4.451   4.673   1.002 -2.3186 -0.0984 -0.9086
14091TIP3    H263765   4.441   4.657   1.153  0.3642 -0.2265 -0.6906
14092TIP3   OH263766   4.081   6.372   3.875  0.5201 -0.0275  0.8121
14092TIP3    H163767   4.012   6.383   3.810  0.4084 -0.5193  0.8446
14092TIP3    H263768   4.090   6.459   3.915  1.3840  0.5955 -0.6399
14093TIP3   OH263769   1.908   0.528  12.130 -0.0779 -0.0338 -0.4261
14093TIP3    H163770   1.936   0.440  12.158 -0.7706  0.0577  0.6093
14093TIP3    H263771   1.829   0.545  12.182  0.3353  1.4147 -0.2423
14094TIP3   OH263772   5.655   5.605   0.541  0.0836  0.3345 -0.6970
14094TIP3    H163773   5.589   5.625   0.474 -0.8656 -1.0465 -0.2318
14094TIP3    H263774   5.664   5.687   0.590  0.0808  1.0835 -1.8906
14095TIP3   OH263775   5.103   5.269  10.803 -0.0536 -0.3400  0.0981
14095TIP3    H163776   5.115   5.179  10.773 -0.3425  0.2381 -1.8769
14095TIP3    H263777   5.010   5.288  10.788 -0.5279 -0.3949  2.5898
14096TIP3   OH263778   3.330   3.863   1.496 -0.1897  0.4134  0.1444
14096TIP3    H163779   3.238   3.862   1.521 -0.0241 -2.3616  0.9795
14096TIP3    H263780   3.349   3.955   1.478 -2.8566  1.1920  0.8618
14097TIP3   OH263781   6.041   1.904  12.158  0.0761  0.3903 -0.3612
14097TIP3    H163782   5.948   1.928  12.151 -0.2032 -0.3891  0.3904
14097TIP3    H263783   6.058   1.906  12.252  0.3037 -1.2876 -0.3407
14098TIP3   OH263784   0.795   2.899  15.666  0.3680  0.0216  0.1802
14098TIP3    H163785   0.727   2.832  15.673 -0.2603  0.3872 -1.7984
14098TIP3    H263786   0.877   2.850  15.669 -0.0078 -0.6016  0.8279
14099TIP3   OH263787   2.356   6.048  15.317  0.2365  0.3912  0.1443
14099TIP3    H163788   2.358   6.054  15.222 -0.5718 -1.2442 -0.0079
14099TIP3    H263789   2.426   5.986  15.339  0.1192  0.4023  0.5675
14100TIP3   OH263790   1.709   0.796   2.993  0.4375  0.0762 -0.0570
14100TIP3    H163791   1.621   0.799   3.031  0.0253  1.3715 -1.0595
14100TIP3    H263792   1.745   0.883   3.008  1.9640 -0.7106  1.1827
14101TIP3   OH263793   3.717   1.673  16.060 -0.2001  0.5903 -0.1688
14101TIP3    H163794   3.753   1.666  16.148  1.8272  0.0074 -0.9849
14101TIP3    H263795   3.792   1.662  16.002 -1.4406  1.1442 -1.9896
14102TIP3   OH263796   3.435   5.287  16.493  0.8067  0.2246 -0.5978
14102TIP3    H163797   3.488   5.219  16.535  0.3417  0.9408  1.2546
14102TIP3    H263798   3.356   5.293  16.547  0.9453  2.3819 -0.5239
14103TIP3   OH263799   6.164   5.690   4.504  0.6106  0.4830 -0.7044
14103TIP3    H163800   6.168   5.783   4.481 -0.0847  1.2688  1.9597
14103TIP3    H263801   6.072   5.666   4.491  0.7559  0.1970 -1.2341
14104TIP3   OH263802   3.916   2.374   5.849  0.0678  0.1158 -0.3012
14104TIP3    H163803   3.877   2.395   5.934  1.5186  0.2102  0.3619
14104TIP3    H263804   3.905   2.280   5.840 -0.7644  0.2106 -0.3653
14105TIP3   OH263805   4.546   3.313  16.872 -0.3772 -0.0633  0.0922
14105TIP3    H163806   4.565   3.352  16.786  1.1376  1.4563  1.0396
14105TIP3    H263807   4.503   3.384  16.920  1.4242  0.1487  1.5024
14106TIP3   OH263808   6.055   2.226   3.158 -0.0655 -0.3847 -0.8093
14106TIP3    H163809   6.068   2.132   3.171  0.3592 -0.3799 -1.1555
14106TIP3    H263810   6.069   2.239   3.065 -1.3431 -0.1570 -0.9877
14107TIP3   OH263811   6.286   5.907  11.694  0.3537 -0.0918  0.0984
14107TIP3    H163812   6.235   5.890  11.773 -0.6073 -0.9352 -0.6699
14107TIP3    H263813   6.315   5.998  11.704 -0.0569 -0.0685  1.2421
14108TIP3   OH263814   1.384   6.210  16.132  0.1780  0.2863  0.4008
14108TIP3    H163815   1.387   6.305  16.123 -0.0793  0.4279  1.6450
14108TIP3    H263816   1.434   6.191  16.211 -0.8472 -0.4858  0.8935
14109TIP3   OH263817   1.940   3.292   1.794 -0.4582 -0.0941  0.6977
14109TIP3    H163818   1.992   3.217   1.766 -2.1371 -1.7233  1.7689
14109TIP3    H263819   1.993   3.335   1.861  0.1309 -0.8627  0.7341
14110TIP3   OH263820   2.561   2.990   4.156 -0.5527  0.1779  0.1566
14110TIP3    H163821   2.547   2.930   4.229 -0.5828  0.6749  0.5665
14110TIP3    H263822   2.586   2.934   4.083  0.5109 -0.2429  0.8185
14111TIP3   OH263823   0.326   3.452   5.344 -0.1619 -0.0815  0.6335
14111TIP3    H163824   0.255   3.403   5.386  0.6626 -0.4903  1.6017
14111TIP3    H263825   0.389   3.467   5.415  0.5990  0.4819 -0.1541
14112TIP3   OH263826   0.030   0.643   0.879  0.2754  0.5692  0.0187
14112TIP3    H163827   0.102   0.700   0.851  1.5450 -0.9278  0.0740
14112TIP3    H263828   0.071   0.580   0.938 -0.8575 -0.9942 -0.7970
14113TIP3   OH263829   0.410   1.776  13.344 -0.2764  0.0215 -0.2627
14113TIP3    H163830   0.367   1.714  13.286 -1.8357  1.1108 -0.3289
14113TIP3    H263831   0.399   1.739  13.432 -0.7449 -0.0550 -0.3525
14114TIP3   OH263832   2.209   1.198  12.081  0.5203 -0.0276  0.0219
14114TIP3    H163833   2.237   1.165  11.995  1.0507 -0.1311  0.2304
14114TIP3    H263834   2.193   1.291  12.067 -0.9240 -0.3361 -0.5580
14115TIP3   OH263835   5.626   6.473  16.342  0.4722  0.1277 -0.1190
14115TIP3    H163836   5.582   6.419  16.277  1.6803 -0.6362 -0.3414
14115TIP3    H263837   5.662   6.410  16.405  0.7961  0.7509  0.3336
14116TIP3   OH263838   2.144   4.346   2.197  0.2737  0.6253  0.2516
14116TIP3    H163839   2.227   4.303   2.177  0.7300  1.6317 -0.0792
14116TIP3    H263840   2.135   4.340   2.292  0.9189  0.8442  0.3286
14117TIP3   OH263841   0.000   2.475   0.054 -0.5239 -0.1350  0.4836
14117TIP3    H163842   0.079   2.423   0.039  0.2862  1.3561 -0.8765
14117TIP3    H263843   0.010   2.509   0.143 -0.7199 -1.6493  1.1179
14118TIP3   OH263844   5.479   1.767  14.493  0.1472 -0.5570 -0.8068
14118TIP3    H163845   5.437   1.842  14.534 -2.6106 -1.8735 -0.9956
14118TIP3    H263846   5.524   1.722  14.566  1.7642  1.1509 -0.6867
14119TIP3   OH263847   0.940   6.139  11.423  0.7910 -0.1909 -0.4045
14119TIP3    H163848   0.932   6.094  11.338 -1.1777  0.1466 -0.4452
14119TIP3    H263849   0.950   6.068  11.486 -3.1653 -0.9282 -0.3697
14120TIP3   OH263850   5.331   3.699   3.876 -0.1514 -0.0291 -0.0531
14120TIP3    H163851   5.275   3.775   3.889 -0.8831 -0.8759  2.0959
14120TIP3    H263852   5.388   3.697   3.953  0.8465 -0.8506 -0.7848
14121TIP3   OH263853   0.473   0.341  14.026  0.2383  0.5813 -0.0774
14121TIP3    H163854   0.518   0.315  14.106  1.1082  1.6535 -0.2007
14121TIP3    H263855   0.499   0.276  13.961 -0.2285 -0.1143  0.4226
14122TIP3   OH263856   6.836   0.772   4.413 -0.1824  0.0361  0.8473
14122TIP3    H163857   6.907   0.762   4.349  1.3204 -0.3491  2.4752
14122TIP3    H263858   6.789   0.689   4.408 -0.7265  0.3967 -0.4482
14123TIP3   OH263859   1.532   0.993   5.758 -0.0260 -0.1293 -0.2005
14123TIP3    H163860   1.617   1.028   5.731 -0.1632  0.7719  0.4784
14123TIP3    H263861   1.554   0.917   5.813  0.3246 -0.1470 -0.3612
14124TIP3   OH263862   0.157   2.129   0.272 -0.0789 -0.2458 -0.2820
14124TIP3    H163863   0.239   2.084   0.293  0.2423  0.4991  0.0901
14124TIP3    H263864   0.167   2.154   0.181  0.6645  0.9780  0.1155
14125TIP3   OH263865   3.622   2.654   4.105  0.0487  0.3967  0.4933
14125TIP3    H163866   3.716   2.656   4.117 -0.0569 -0.8730  1.8395
14125TIP3    H263867   3.593   2.577   4.155 -1.6138  0.3689 -0.4352
14126TIP3   OH263868   1.016   5.385   2.651  0.7614 -0.3001 -0.2017
14126TIP3    H163869   0.999   5.409   2.560  0.0002 -0.4142 -0.0909
14126TIP3    H263870   1.013   5.468   2.699  0.2531 -0.3440 -0.1477
14127TIP3   OH263871   1.480   3.300   4.318  0.0479  0.2686 -0.0952
14127TIP3    H163872   1.468   3.346   4.402 -1.5333 -0.3769  0.0511
14127TIP3    H263873   1.529   3.363   4.265 -0.7003  1.5204  0.6270
14128TIP3   OH263874   0.543   1.306  13.973  0.0735  0.0483  0.0493
14128TIP3    H163875   0.595   1.375  14.014  3.5994 -2.4476  0.2299
14128TIP3    H263876   0.539   1.237  14.039 -4.5822  0.3569  0.4266
14129TIP3   OH263877   2.021   0.200   6.236  0.0742 -0.2375 -0.2650
14129TIP3    H163878   1.977   0.181   6.153 -0.3605  0.7847 -0.2794
14129TIP3    H263879   1.954   0.242   6.290  0.4852 -0.4766  0.4436
14130TIP3   OH263880   2.804   2.758  16.268  0.1592  0.1609  0.7338
14130TIP3    H163881   2.742   2.805  16.324 -0.4375  0.5327 -0.2225
14130TIP3    H263882   2.765   2.671  16.256 -0.3705  0.5032 -0.1413
14131TIP3   OH263883   6.379   0.873  16.819 -0.2750 -0.2036 -0.7261
14131TIP3    H163884   6.317   0.932  16.862 -1.2157 -0.3151 -1.8771
14131TIP3    H263885   6.434   0.842  16.890 -1.0307  0.5126  0.2196
14132TIP3   OH263886   3.839   5.418   2.155 -0.5007 -0.3417  0.2257
14132TIP3    H163887   3.815   5.325   2.165 -0.5343 -0.5527 -1.5856
14132TIP3    H263888   3.768   5.455   2.102 -0.5925  0.7930  1.1015
14133TIP3   OH263889   5.799   3.376  16.414 -0.4150 -0.1362 -0.1721
14133TIP3    H163890   5.818   3.283  16.402  1.6154  0.2898 -0.6820
14133TIP3    H263891   5.745   3.399  16.338  0.9698 -0.4430 -1.2973
14134TIP3   OH263892   2.059   1.841  13.178  0.3127  0.0448  0.8365
14134TIP3    H163893   1.966   1.859  13.194 -0.0379 -0.6053 -0.2891
14134TIP3    H263894   2.089   1.917  13.128  0.5854  0.6055  1.8492
14135TIP3   OH263895   1.832   2.258   0.960 -0.4886  0.7473 -0.2960
14135TIP3    H163896   1.864   2.175   0.922 -0.1049  0.6208  0.2800
14135TIP3    H263897   1.745   2.237   0.994 -1.4632  1.2226 -2.3332
14136TIP3   OH263898   1.427   5.515  10.891  0.3307  0.6962 -0.3120
14136TIP3    H163899   1.460   5.442  10.838  0.7622  0.5224  0.1862
14136TIP3    H263900   1.372   5.566  10.831 -1.0196 -0.7294 -0.3738
14137TIP3   OH263901   2.781   5.105   1.926 -0.2055  0.6388 -0.1352
14137TIP3    H163902   2.738   5.171   1.981 -1.2414  0.2578 -0.4678
14137TIP3    H263903   2.755   5.022   1.964  0.9887  0.3945  0.1990
14138TIP3   OH263904   1.006   3.305   6.001  0.8075 -0.3070 -0.3033
14138TIP3    H163905   1.030   3.398   6.000 -0.5590  0.0624 -0.0909
14138TIP3    H263906   1.057   3.269   6.074  0.7694  0.4394  0.1044
14139TIP3   OH263907   6.128   5.728  13.966 -0.3508  0.6904  0.0174
14139TIP3    H163908   6.115   5.819  13.989 -1.1579  0.8916 -1.1470
14139TIP3    H263909   6.208   5.728  13.913 -0.4552  0.7563 -0.1422
14140TIP3   OH263910   4.228   0.151  15.315 -0.0318  0.8125 -0.3433
14140TIP3    H163911   4.244   0.241  15.288 -1.0053  0.5875 -1.8141
14140TIP3    H263912   4.232   0.154  15.411  2.9857  1.7782 -0.3908
14141TIP3   OH263913   1.484   1.390   5.010  0.3009  0.3160  0.0242
14141TIP3    H163914   1.443   1.474   4.989  2.0944  1.4078  0.6496
14141TIP3    H263915   1.577   1.405   4.994  0.8847 -0.9672  1.9090
14142TIP3   OH263916   2.158   6.507  10.444 -0.6506 -0.1495 -0.4745
14142TIP3    H163917   2.237   6.503  10.390  0.6822  1.8023  1.1555
14142TIP3    H263918   2.191   6.517  10.533 -2.7696 -2.3911  0.6588
14143TIP3   OH263919   1.171   2.150   0.850 -0.1017 -0.2423  1.1233
14143TIP3    H163920   1.085   2.175   0.817  0.0358  0.2109  1.1099
14143TIP3    H263921   1.232   2.211   0.809  0.4128 -1.4634 -0.0093
14144TIP3   OH263922   4.328   0.302   0.620 -0.2608 -0.4218  0.5314
14144TIP3    H163923   4.302   0.269   0.534 -0.1188 -1.0455  0.7259
14144TIP3    H263924   4.321   0.397   0.612 -1.3849 -0.5235  0.1946
14145TIP3   OH263925   2.181   1.467   1.715  0.6321 -0.2560  0.1231
14145TIP3    H163926   2.113   1.455   1.648  0.7662 -0.2184 -0.0180
14145TIP3    H263927   2.173   1.559   1.740 -0.6519 -0.6908  1.4785
14146TIP3   OH263928   0.235   1.400  12.580  0.3866  0.1800  0.0189
14146TIP3    H163929   0.267   1.423  12.492 -1.7842 -2.4878 -1.6288
14146TIP3    H263930   0.299   1.336  12.612  0.6748  0.4335 -0.0467
14147TIP3   OH263931   1.870   1.878   3.713  0.3432  0.0085  0.4998
14147TIP3    H163932   1.789   1.927   3.722 -0.8789 -2.2588  3.0322
14147TIP3    H263933   1.873   1.854   3.620 -0.9956  1.5264  0.0297
14148TIP3   OH263934   4.788   1.573   2.242  0.0553 -1.1069  0.6713
14148TIP3    H163935   4.762   1.606   2.328  0.8923  1.9260 -0.1101
14148TIP3    H263936   4.706   1.546   2.201 -0.5647 -0.9974  1.7880
14149TIP3   OH263937   6.090   1.893  13.732  0.1511 -0.4828 -0.3232
14149TIP3    H163938   6.108   1.987  13.724  2.6485 -0.6350  2.0344
14149TIP3    H263939   6.133   1.854  13.656  1.4604  0.0973  0.0895
14150TIP3   OH263940   4.646   0.273  12.180 -0.5164 -0.0643  0.0208
14150TIP3    H163941   4.607   0.257  12.094  0.9573 -0.8745 -0.5280
14150TIP3    H263942   4.684   0.188  12.205  2.1028  0.9869 -0.1153
14151TIP3   OH263943   0.261   1.008  13.073 -0.0875  0.6636  1.1123
14151TIP3    H163944   0.297   0.927  13.038 -0.8436  0.7926 -0.0130
14151TIP3    H263945   0.338   1.056  13.105  0.6504  0.5535 -0.4119
14152TIP3   OH263946   1.347   1.119   1.736 -0.5158  0.4638  0.2404
14152TIP3    H163947   1.390   1.096   1.819 -1.6571  0.3786  0.8230
14152TIP3    H263948   1.287   1.046   1.719 -0.4459  0.5821 -0.5599
14153TIP3   OH263949   3.073   2.768   3.088 -0.5813  0.5245 -0.2213
14153TIP3    H163950   3.035   2.681   3.083  1.4527 -0.3917 -1.2246
14153TIP3    H263951   3.045   2.802   3.173  0.1475 -1.9172  1.0950
14154TIP3   OH263952   2.797   0.908   0.847  0.2765 -0.2687 -0.0884
14154TIP3    H163953   2.859   0.864   0.905 -0.3902 -0.4576  0.5024
14154TIP3    H263954   2.745   0.836   0.811  0.6476 -0.1445 -0.8790
14155TIP3   OH263955   5.270   6.548  11.299 -0.2671 -1.0315 -0.0845
14155TIP3    H163956   5.237   6.529  11.211  0.4690 -0.9010 -0.4006
14155TIP3    H263957   5.204   6.512  11.358 -2.0922  1.0974 -0.6710
14156TIP3   OH263958   5.472   4.794  14.959  0.3468 -0.2952  0.6768
14156TIP3    H163959   5.381   4.798  14.987  0.6210 -0.8106  1.6872
14156TIP3    H263960   5.468   4.766  14.868 -0.4627 -1.5922  1.0903
14157TIP3   OH263961   3.369   1.350  13.713 -0.4599 -0.9403  0.1580
14157TIP3    H163962   3.345   1.261  13.740  0.0088 -0.9757  0.4586
14157TIP3    H263963   3.428   1.337  13.639  2.1229 -0.9983  2.1044
14158TIP3   OH263964   6.521   5.088  13.322  0.4952 -0.5064 -0.3807
14158TIP3    H163965   6.594   5.129  13.368  0.4509  0.1082 -0.8516
14158TIP3    H263966   6.456   5.071  13.390  0.2871  0.7138 -0.2619
14159TIP3   OH263967   5.609   6.141   4.519  0.2318  0.1896  0.5419
14159TIP3    H163968   5.700   6.149   4.492  0.1096  0.8234  0.2785
14159TIP3    H263969   5.594   6.219   4.574  0.6029 -1.2793  2.8552
14160TIP3   OH263970   2.126   6.753  16.170 -0.0068 -0.5749  0.0411
14160TIP3    H163971   2.103   6.787  16.084  2.8102 -0.6329 -0.8263
14160TIP3    H263972   2.207   6.798  16.193  1.1013 -2.9709  1.1570
14161TIP3   OH263973   2.855   3.178  11.908 -0.3324  0.0955 -0.3556
14161TIP3    H163974   2.836   3.140  11.823  1.1252  2.1820 -1.6994
14161TIP3    H263975   2.890   3.265  11.889 -0.7518  0.9842  2.4218
14162TIP3   OH263976   4.532   6.069  14.680 -0.4353  0.1614  0.7561
14162TIP3    H163977   4.602   6.038  14.737  0.3285  0.9054  0.2568
14162TIP3    H263978   4.563   6.052  14.591 -0.3167  1.6191  0.4863
14163TIP3   OH263979   3.053   0.413   0.868 -0.1886  0.1470  0.1394
14163TIP3    H163980   3.029   0.423   0.960  1.2070  0.7096  0.4683
14163TIP3    H263981   2.982   0.455   0.820 -1.0708 -0.3941  0.9355
14164TIP3   OH263982   2.087   6.181  14.258 -0.4684 -0.4189 -0.3080
14164TIP3    H163983   2.084   6.273  14.230  1.4893 -0.2191 -0.0307
14164TIP3    H263984   2.087   6.185  14.353 -1.0171 -0.7560 -0.2908
14165TIP3   OH263985   1.884   0.781  14.217 -0.6886  0.5168  0.0361
14165TIP3    H163986   1.890   0.875  14.204  0.6411  0.4626  0.1616
14165TIP3    H263987   1.790   0.761  14.208 -0.9580  1.8157 -0.1292
14166TIP3   OH263988   4.807   4.861  10.819  0.4667  0.0601 -0.4270
14166TIP3    H163989   4.714   4.865  10.797  0.1422  0.5792  0.9502
14166TIP3    H263990   4.852   4.880  10.736 -0.6128 -0.9325 -1.2772
14167TIP3   OH263991   6.434   3.127   0.266 -0.3632  0.2780  0.1793
14167TIP3    H163992   6.519   3.082   0.258 -1.0610 -1.4862  1.7998
14167TIP3    H263993   6.370   3.056   0.258 -1.7428  1.6163 -1.2697
14168TIP3   OH263994   2.693   2.112  15.313  0.4134 -0.1599  0.3314
14168TIP3    H163995   2.600   2.101  15.292  0.8954 -0.3558 -1.9563
14168TIP3    H263996   2.702   2.076  15.402 -1.4203 -1.5570  0.0170
14169TIP3   OH263997   3.239   2.627  10.859 -0.3387 -0.1901  0.1596
14169TIP3    H163998   3.189   2.687  10.804  1.2456  0.5192 -0.5786
14169TIP3    H263999   3.179   2.555  10.876 -1.7982  0.8798 -0.1815
14170TIP3   OH264000   3.360   4.316  16.007  0.1459 -0.4795 -0.1966
14170TIP3    H164001   3.279   4.304  15.957  0.2886 -1.0130 -0.2981
14170TIP3    H264002   3.422   4.351  15.944 -0.2401  0.7601  0.0770
14171TIP3   OH264003   1.253   1.515  14.172  0.1924 -0.1072  0.5765
14171TIP3    H164004   1.219   1.591  14.124  2.4774  0.6864  0.1001
14171TIP3    H264005   1.286   1.552  14.254  1.8901 -0.4374  0.0767
14172TIP3   OH264006   6.026   1.138  16.523 -0.3626 -0.2120 -0.2040
14172TIP3    H164007   5.976   1.060  16.550  1.3408 -1.7949 -1.4111
14172TIP3    H264008   6.102   1.139  16.582  1.1262 -1.1979 -2.0119
14173TIP3   OH264009   6.646   3.970  10.654 -0.1455  0.4716  0.1188
14173TIP3    H164010   6.662   4.064  10.640 -2.0047  0.6852 -0.8191
14173TIP3    H264011   6.573   3.949  10.596 -0.0608 -1.4776  0.6493
14174TIP3   OH264012   5.508   4.348   0.717  0.0752  0.5205 -0.2704
14174TIP3    H164013   5.441   4.416   0.725 -0.8015 -0.5241  3.2015
14174TIP3    H264014   5.461   4.273   0.679  0.3126  0.9603 -1.4551
14175TIP3   OH264015   2.006   6.735  16.526  0.8035 -0.4678 -0.2388
14175TIP3    H164016   2.074   6.680  16.565  1.0060 -1.3866 -1.8400
14175TIP3    H264017   2.047   6.821  16.516  0.8810 -0.3134  1.1210
14176TIP3   OH264018   0.445   0.063  15.238  0.1240 -0.2696 -0.4643
14176TIP3    H164019   0.488   0.122  15.176  1.4774 -1.6736 -0.9543
14176TIP3    H264020   0.375   0.022  15.187  1.2396 -1.4274 -1.1457
14177TIP3   OH264021   4.456   2.126   2.727 -0.3016  0.4049  0.2692
14177TIP3    H164022   4.458   2.036   2.761  0.1739 -0.1959 -1.2457
14177TIP3    H264023   4.547   2.154   2.728  0.1993 -0.7153 -3.0894
14178TIP3   OH264024   5.072   5.721   4.515  0.4099 -0.5451  0.4499
14178TIP3    H164025   5.000   5.784   4.517  0.2379 -0.7500  0.8745
14178TIP3    H264026   5.043   5.654   4.454  1.5846  0.9346 -1.8696
14179TIP3   OH264027   2.965   4.000  11.260 -0.2210 -0.1510 -0.2565
14179TIP3    H164028   2.871   3.997  11.275 -0.2057  0.5277 -0.0013
14179TIP3    H264029   2.976   3.978  11.167 -0.5209 -1.6454  0.0378
14180TIP3   OH264030   6.824   4.574   6.444 -0.6129  0.0473 -0.1839
14180TIP3    H164031   6.847   4.666   6.430  0.7090 -0.1993  0.1632
14180TIP3    H264032   6.748   4.576   6.503 -0.9982  0.9156 -0.6993
14181TIP3   OH264033   4.437   3.386  13.660 -0.5124 -0.6925  0.5207
14181TIP3    H164034   4.514   3.360  13.712 -0.9132 -0.6136  1.1665
14181TIP3    H264035   4.472   3.402  13.572  0.3597  0.1462  0.9936
14182TIP3   OH264036   2.017   5.663  12.239 -0.2277  0.5923 -0.3000
14182TIP3    H164037   2.039   5.570  12.240 -1.2678  0.2426 -2.3913
14182TIP3    H264038   1.998   5.682  12.147  1.7824  3.3502 -0.2855
14183TIP3   OH264039   1.385   3.082   2.780 -0.2027  0.9629  0.2566
14183TIP3    H164040   1.428   3.037   2.707 -0.6069  0.1818  0.4941
14183TIP3    H264041   1.374   3.172   2.749  2.0664  1.3518  0.3840
14184TIP3   OH264042   6.244   3.851   1.518  0.4396 -0.4604 -0.4093
14184TIP3    H164043   6.330   3.863   1.477  0.6647 -0.7263 -0.0202
14184TIP3    H264044   6.218   3.940   1.544  0.7108 -0.4113 -0.3001
14185TIP3   OH264045   0.518   4.196  16.650  0.0311  0.2676 -0.8196
14185TIP3    H164046   0.470   4.118  16.678 -0.4076  1.2038  1.2373
14185TIP3    H264047   0.606   4.165  16.632  0.5936 -0.4265  2.4211
14186TIP3   OH264048   1.955   5.300   5.026  0.2163 -0.3050 -0.4570
14186TIP3    H164049   1.985   5.280   5.114 -0.4709 -0.0483 -0.1617
14186TIP3    H264050   2.004   5.378   5.000  1.1007 -0.9159 -0.6696
14187TIP3   OH264051   2.621   1.168  16.362 -0.7414 -0.7354  0.3324
14187TIP3    H164052   2.626   1.263  16.350 -0.2381 -0.3998  2.7953
14187TIP3    H264053   2.527   1.149  16.362 -0.8688 -0.7708 -3.1627
14188TIP3   OH264054   5.943   0.852   4.532  0.3978 -0.0158 -0.3344
14188TIP3    H164055   6.000   0.783   4.566  1.4970  0.7085 -0.6430
14188TIP3    H264056   5.855   0.816   4.539  0.7009 -0.4892  1.8449
14189TIP3   OH264057   3.274   2.191  11.963  0.1434 -0.2634 -0.0404
14189TIP3    H164058   3.324   2.110  11.955 -0.6717 -0.8180  0.3214
14189TIP3    H264059   3.183   2.165  11.946  0.0728  0.9053 -1.8541
14190TIP3   OH264060   1.357   6.510   3.898  0.2693 -0.0360  0.3167
14190TIP3    H164061   1.282   6.543   3.849  1.1148  1.0123 -0.3303
14190TIP3    H264062   1.432   6.529   3.841  1.3442  1.6130  2.1683
14191TIP3   OH264063   0.971   1.234  14.636  0.1842  0.4208  0.4504
14191TIP3    H164064   1.024   1.172  14.585  0.1283  0.4949  0.3018
14191TIP3    H264065   0.882   1.219  14.605  0.0209 -0.1631  1.1627
14192TIP3   OH264066   4.371   3.856  15.075  0.5815  0.5247 -0.0554
14192TIP3    H164067   4.466   3.846  15.086  0.5864 -0.4710 -0.8494
14192TIP3    H264068   4.353   3.816  14.990 -0.7763 -0.8628  0.8375
14193TIP3   OH264069   3.043   4.265  16.565 -0.1127  0.1908 -0.6899
14193TIP3    H164070   3.130   4.285  16.532 -0.1443 -0.0321 -0.9069
14193TIP3    H264071   2.994   4.346  16.553  0.1870  0.4599 -0.1540
14194TIP3   OH264072   6.381   4.189  13.705  0.3303  0.6960 -0.8487
14194TIP3    H164073   6.334   4.111  13.675 -0.4057  0.5776  0.5123
14194TIP3    H264074   6.465   4.186  13.660  0.5961 -1.2659 -0.3263
14195TIP3   OH264075   2.046   4.984  14.581 -0.1897  0.9421  0.7060
14195TIP3    H164076   2.122   4.968  14.525  0.2731  1.4015  1.1971
14195TIP3    H264077   1.974   4.996  14.519 -0.2004 -1.0491  0.2625
14196TIP3   OH264078   1.924   2.427   4.298 -0.3834 -0.4932 -0.1209
14196TIP3    H164079   1.951   2.476   4.376 -1.7016 -1.9708  1.3162
14196TIP3    H264080   1.952   2.337   4.314 -0.5679 -0.8082 -1.4169
14197TIP3   OH264081   5.427   5.331   0.049  0.2123 -0.7703  0.0286
14197TIP3    H164082   5.377   5.266  -0.001 -0.4326 -0.2305 -0.0406
14197TIP3    H264083   5.432   5.295   0.138 -0.0137 -0.9878 -0.0467
14198TIP3   OH264084   2.990   2.856   3.343  0.3040 -0.1104  0.7480
14198TIP3    H164085   3.066   2.855   3.401  0.6635 -1.6835  0.3126
14198TIP3    H264086   2.918   2.823   3.396 -0.0152  1.0337  1.0543
14199TIP3   OH264087   5.474   6.218  12.478 -0.8192  0.6359  0.2611
14199TIP3    H164088   5.536   6.285  12.505  0.5506 -0.9167  1.1565
14199TIP3    H264089   5.483   6.213  12.383 -0.7766  1.5440  0.2169
14200TIP3   OH264090   5.400   2.632  17.004 -0.0707 -0.5609 -0.5815
14200TIP3    H164091   5.393   2.589  16.919 -1.5659 -1.1787 -0.1696
14200TIP3    H264092   5.310   2.654  17.028  0.3667 -0.0356  0.6586
14201TIP3   OH264093   0.671   1.102  13.040  0.7326  0.3267 -0.3056
14201TIP3    H164094   0.747   1.094  12.981 -0.0783 -1.8378 -1.1728
14201TIP3    H264095   0.699   1.057  13.120  1.1899  1.6931  0.3378
14202TIP3   OH264096   1.281   6.424   4.416 -0.0753 -0.2130 -0.1580
14202TIP3    H164097   1.362   6.431   4.366  0.6718 -2.2752  0.6604
14202TIP3    H264098   1.308   6.391   4.502 -1.6764 -0.0055  0.4699
14203TIP3   OH264099   4.986   1.089  15.292 -0.6422 -0.1671 -0.5806
14203TIP3    H164100   5.016   1.086  15.201  1.2678 -0.4033  0.0177
14203TIP3    H264101   4.910   1.031  15.294 -0.5272 -0.4037 -1.9577
14204TIP3   OH264102   3.740   2.455   3.485 -0.3379 -0.4532 -0.6193
14204TIP3    H164103   3.754   2.472   3.392  0.0930 -2.3058 -0.9350
14204TIP3    H264104   3.760   2.362   3.496  1.0676  0.0433  1.6164
14205TIP3   OH264105   0.070   4.707  14.119 -0.1497 -0.5109 -0.2090
14205TIP3    H164106   0.077   4.757  14.200 -1.2567  2.2848 -1.7023
14205TIP3    H264107   0.129   4.751  14.059  0.2026 -2.1602 -1.1073
14206TIP3   OH264108   0.311   5.174  15.118 -0.7631 -0.5180 -0.7647
14206TIP3    H164109   0.277   5.090  15.087 -2.0500 -0.0110 -0.7893
14206TIP3    H264110   0.277   5.238  15.055  0.8819 -0.0483 -1.2246
14207TIP3   OH264111   4.841   3.241   1.005  0.0921 -0.0904  0.2602
14207TIP3    H164112   4.778   3.228   1.076  0.8884 -2.2692  0.6525
14207TIP3    H264113   4.912   3.292   1.045  1.0082 -2.1270  1.4336
14208TIP3   OH264114   5.336   4.146   0.588  0.4976  0.0702  0.4249
14208TIP3    H164115   5.320   4.157   0.495  1.1387  1.1704  0.4285
14208TIP3    H264116   5.359   4.054   0.598 -2.0165 -0.6734 -0.1109
14209TIP3   OH264117   6.183   0.980   1.836  0.0354  0.3133  0.4061
14209TIP3    H164118   6.268   0.958   1.798 -1.2453  1.3589 -3.5144
14209TIP3    H264119   6.188   1.075   1.851 -0.2171  0.2548  0.8831
14210TIP3   OH264120   3.382   1.485  16.249 -0.1799  0.2061  0.2216
14210TIP3    H164121   3.357   1.571  16.281 -0.9554  0.1460 -0.1894
14210TIP3    H264122   3.304   1.453  16.203  0.1062 -0.6986  0.3425
14211TIP3   OH264123   1.913   3.824  13.033 -0.2509  0.0337 -0.3848
14211TIP3    H164124   1.878   3.756  13.091 -0.0214  1.2976  1.3247
14211TIP3    H264125   1.836   3.871  13.002 -0.3042  0.6676  0.6389
14212TIP3   OH264126   6.646   3.724   4.876 -0.1237 -0.1747 -0.2460
14212TIP3    H164127   6.646   3.805   4.825 -0.9080 -0.4219 -0.6504
14212TIP3    H264128   6.735   3.690   4.867 -0.1111  0.0575 -1.0097
14213TIP3   OH264129   4.699   0.693  13.637  0.0852  0.1477 -0.0478
14213TIP3    H164130   4.638   0.636  13.590  0.6624  0.4812 -1.2359
14213TIP3    H264131   4.643   0.760  13.677 -0.3677  0.2510 -0.8322
14214TIP3   OH264132   2.752   1.313   1.356  0.4053 -0.6023 -0.1969
14214TIP3    H164133   2.760   1.377   1.428  0.8360 -0.7424 -0.1235
14214TIP3    H264134   2.790   1.233   1.391  1.7524 -0.3366 -1.0110
14215TIP3   OH264135   1.158   5.371   5.978  0.2115 -0.0387  0.2691
14215TIP3    H164136   1.139   5.451   5.930 -0.5125 -0.3842 -0.0247
14215TIP3    H264137   1.078   5.319   5.972  0.2741 -0.3066  1.4176
14216TIP3   OH264138   6.050   4.425   3.171  0.1508 -0.4336 -0.2958
14216TIP3    H164139   6.019   4.359   3.109 -0.9309 -1.4073  1.2120
14216TIP3    H264140   6.006   4.506   3.143 -4.6103 -1.8187  2.0391
14217TIP3   OH264141   5.701   4.506   2.558  1.0915 -0.0585  0.4011
14217TIP3    H164142   5.721   4.430   2.503 -1.6389  0.7383 -1.9424
14217TIP3    H264143   5.614   4.534   2.530  1.5815  3.4132  1.7904
14218TIP3   OH264144   2.823   3.901   4.912  0.2385 -0.2092 -0.2174
14218TIP3    H164145   2.829   3.941   4.825 -0.0060 -0.3208 -0.2848
14218TIP3    H264146   2.730   3.907   4.935  0.4720  0.8996  0.5449
14219TIP3   OH264147   0.642   1.189   1.027 -0.3549 -0.1968  0.3690
14219TIP3    H164148   0.600   1.134   1.092 -0.9243 -0.4890 -0.2359
14219TIP3    H264149   0.669   1.129   0.957 -2.0446  0.3978 -0.8566
14220TIP3   OH264150   4.377   0.452  12.611  0.9260 -0.2118 -0.2173
14220TIP3    H164151   4.461   0.437  12.655  2.1618  0.6752 -2.1527
14220TIP3    H264152   4.362   0.372  12.561  1.6879  0.3584 -1.4324
14221TIP3   OH264153   3.987   3.833  11.224  0.7896 -0.3891  0.4297
14221TIP3    H164154   3.948   3.912  11.262  0.2814 -0.7205  0.6029
14221TIP3    H264155   4.080   3.840  11.245  0.9416  0.7077 -0.5107
14222TIP3   OH264156   3.222   3.239  15.455  0.4895 -0.6117 -0.6538
14222TIP3    H164157   3.163   3.181  15.502 -1.9445  0.7850 -1.8123
14222TIP3    H264158   3.278   3.277  15.522 -2.2223  0.5940  1.0524
14223TIP3   OH264159   1.641   5.826  12.034  0.2349 -0.4260 -0.1436
14223TIP3    H164160   1.612   5.739  12.004 -0.3908  0.6129 -2.8896
14223TIP3    H264161   1.610   5.886  11.966  2.2929  1.7433  0.6979
14224TIP3   OH264162   6.768   2.688   2.184  0.0652 -0.7592 -0.5842
14224TIP3    H164163   6.818   2.723   2.110  1.4909 -0.2506  0.5647
14224TIP3    H264164   6.732   2.766   2.227  0.9331 -0.8708  0.3881
14225TIP3   OH264165   1.831   6.195   5.170 -0.5067 -0.6229  0.0480
14225TIP3    H164166   1.793   6.110   5.189 -3.1160  0.4208 -0.0666
14225TIP3    H264167   1.833   6.240   5.254  0.3926 -0.5841  0.0200
14226TIP3   OH264168   3.538   2.000   2.780 -0.3426  0.4819  0.0778
14226TIP3    H164169   3.613   2.020   2.723  1.5454 -2.6301  1.1997
14226TIP3    H264170   3.469   1.974   2.719 -0.1280  2.1828 -0.9499
14227TIP3   OH264171   1.012   0.233  17.115  0.3408 -0.3725 -0.0907
14227TIP3    H164172   1.104   0.257  17.115  0.0595  0.8810 -1.3424
14227TIP3    H264173   0.971   0.294  17.176  0.1390  0.1110 -0.6877
14228TIP3   OH264174   5.046   4.912   0.284  0.1437  0.1836 -0.2339
14228TIP3    H164175   4.953   4.890   0.283  0.3701 -0.8349  0.1738
14228TIP3    H264176   5.081   4.871   0.205  0.7116 -1.6437  0.9145
14229TIP3   OH264177   2.455   0.160   2.917 -0.0296 -0.2636  0.5648
14229TIP3    H164178   2.403   0.128   2.843  0.7248 -0.8137  0.2644
14229TIP3    H264179   2.392   0.167   2.989 -0.1756 -2.7623  0.7536
14230TIP3   OH264180   0.963   3.467  14.085  0.6436  0.1080 -0.1415
14230TIP3    H164181   0.954   3.382  14.041  1.2102  0.2825 -0.6205
14230TIP3    H264182   1.052   3.465  14.121  1.1572  0.9875 -1.2756
14231TIP3   OH264183   5.196   5.409   5.594  0.1799 -0.3124 -0.4429
14231TIP3    H164184   5.270   5.470   5.601  0.1232 -0.2552 -0.3447
14231TIP3    H264185   5.177   5.406   5.500  0.1244 -0.1052 -0.4406
14232TIP3   OH264186   3.405   1.866  15.542 -0.9136 -0.4061 -0.0037
14232TIP3    H164187   3.464   1.818  15.484 -0.8087 -1.3216  0.8324
14232TIP3    H264188   3.403   1.954  15.506 -1.4308 -1.1055 -1.8415
14233TIP3   OH264189   4.394   5.271  12.427  0.2968  0.3681  0.7617
14233TIP3    H164190   4.454   5.281  12.501  1.2605 -1.8315  0.3504
14233TIP3    H264191   4.311   5.308  12.458  0.6521 -0.5195  2.9648
14234TIP3   OH264192   0.806   5.575  16.619  0.2235  0.0634 -0.0707
14234TIP3    H164193   0.711   5.567  16.611  0.2915 -0.0731 -0.8264
14234TIP3    H264194   0.820   5.613  16.706 -0.4986 -0.3347  0.2271
14235TIP3   OH264195   2.463   1.079  13.603  0.1783 -0.1118  0.1040
14235TIP3    H164196   2.499   1.108  13.687 -0.3925  0.2779  0.2204
14235TIP3    H264197   2.496   1.144  13.540  0.3763 -0.2430  0.0725
14236TIP3   OH264198   2.376   6.087  10.315  0.1403 -0.4812 -0.1200
14236TIP3    H164199   2.284   6.063  10.313 -0.5410  1.8954 -0.4709
14236TIP3    H264200   2.411   6.043  10.392 -1.5576 -0.5438  0.6541
14237TIP3   OH264201   6.224   5.355   3.327  0.4949  0.2846  0.0558
14237TIP3    H164202   6.214   5.450   3.326  1.6255  0.4240 -1.0499
14237TIP3    H264203   6.265   5.336   3.411 -0.9903  0.5959  0.8891
14238TIP3   OH264204   1.854   0.315  14.823  0.2967  0.5366 -0.2478
14238TIP3    H164205   1.778   0.316  14.766  0.1806 -1.5388 -0.2139
14238TIP3    H264206   1.929   0.304  14.764  0.5133  1.7291 -0.2178
14239TIP3   OH264207   0.090   4.216  16.681  0.0143  0.1756  0.3179
14239TIP3    H164208   0.169   4.246  16.726  0.9882  0.8798 -1.7349
14239TIP3    H264209   0.037   4.295  16.671 -0.0032  0.1134 -0.1127
14240TIP3   OH264210   2.486   4.840  14.523  0.2060  0.2395 -0.2302
14240TIP3    H164211   2.523   4.926  14.546  1.3145 -0.0960 -0.7094
14240TIP3    H264212   2.515   4.825  14.433 -0.0770 -0.5929 -0.1849
14241TIP3   OH264213   4.255   4.490  11.981  0.0733 -0.3689  0.6407
14241TIP3    H164214   4.310   4.568  11.978 -0.4416  0.0050  0.9040
14241TIP3    H264215   4.278   4.442  11.902 -0.4102  0.5925 -0.0970
14242TIP3   OH264216   6.830   3.685  16.252  0.6126  0.0161  0.3082
14242TIP3    H164217   6.874   3.642  16.326 -0.2563  0.3419  1.0287
14242TIP3    H264218   6.810   3.773  16.284  1.7250  0.7346 -0.9059
14243TIP3   OH264219   4.223   3.846  15.316 -0.1425 -0.4921 -0.4137
14243TIP3    H164220   4.269   3.835  15.233  0.6159  1.5858 -0.3237
14243TIP3    H264221   4.201   3.939  15.319 -0.9221 -0.6967  1.3332
14244TIP3   OH264222   5.522   2.504   5.041  0.2401  0.3952  0.1850
14244TIP3    H164223   5.505   2.563   5.115 -1.4414  0.5660 -0.2943
14244TIP3    H264224   5.449   2.520   4.981  0.3883 -1.3279 -0.4988
14245TIP3   OH264225   1.505   6.184  16.399  0.0115 -0.3524 -0.1243
14245TIP3    H164226   1.528   6.256  16.456 -0.7286 -0.8528  0.8260
14245TIP3    H264227   1.552   6.109  16.435  0.3224 -0.4782 -0.7683
14246TIP3   OH264228   1.721   6.265   1.708  0.2327 -0.0736  0.1528
14246TIP3    H164229   1.706   6.176   1.675 -1.8082  0.1380  0.4234
14246TIP3    H264230   1.704   6.322   1.633  0.5124  0.1582  0.2600
14247TIP3   OH264231   5.183   2.067   1.540  0.4170 -0.1912 -0.1292
14247TIP3    H164232   5.271   2.038   1.518  0.4934  1.5425 -2.4450
14247TIP3    H264233   5.125   2.005   1.495  0.2757 -2.4158  2.8094
14248TIP3   OH264234   6.451   5.012  12.030 -0.0278  0.1294 -0.3529
14248TIP3    H164235   6.423   4.920  12.032  0.9077 -0.1902 -1.2618
14248TIP3    H264236   6.388   5.057  12.087  0.2195 -1.2575  1.0843
14249TIP3   OH264237   3.533   4.756  15.057  0.2197  0.3668  0.0030
14249TIP3    H164238   3.528   4.726  14.967  0.7199 -1.3456  0.4963
14249TIP3    H264239   3.608   4.816  15.059  0.3688  0.2029 -0.6668
14250TIP3   OH264240   6.362   5.250   2.067  0.2489  0.1189 -0.2673
14250TIP3    H164241   6.413   5.251   2.148  0.2882 -0.8183 -0.2697
14250TIP3    H264242   6.362   5.341   2.037  2.4227  0.0417 -0.6040
14251TIP3   OH264243   2.384   3.838   3.711  0.1662 -0.4601  0.5474
14251TIP3    H164244   2.332   3.790   3.647  1.2543  0.3600 -1.0280
14251TIP3    H264245   2.320   3.877   3.771 -1.0610  0.5903 -1.3683
14252TIP3   OH264246   1.132   3.638  10.856  0.2796  0.1453  0.5504
14252TIP3    H164247   1.056   3.580  10.851  2.2958 -2.8378  1.7341
14252TIP3    H264248   1.164   3.628  10.946  1.2098  2.5899  0.5738
14253TIP3   OH264249   5.093   4.446  13.874 -0.0934 -0.1625  0.1102
14253TIP3    H164250   5.076   4.357  13.842 -0.0465 -0.5792  1.2146
14253TIP3    H264251   5.009   4.476  13.907 -0.0118  0.0402  0.1341
14254TIP3   OH264252   4.036   0.247   2.775 -0.3111 -0.2191 -0.1551
14254TIP3    H164253   3.987   0.261   2.693 -0.1194  0.1111 -0.2123
14254TIP3    H264254   4.016   0.324   2.828 -0.2462 -0.3228  0.0196
14255TIP3   OH264255   1.192   4.920  14.747  0.0700  0.6757 -0.0319
14255TIP3    H164256   1.182   5.009  14.713 -0.6358  0.7329  0.3201
14255TIP3    H264257   1.118   4.908  14.806  0.5489  0.1035  0.4678
14256TIP3   OH264258   6.758   4.504   4.269 -0.4012  0.3149 -0.5156
14256TIP3    H164259   6.827   4.444   4.242 -1.2600 -2.2195  2.4302
14256TIP3    H264260   6.799   4.558   4.337 -1.4313 -2.1355  2.2774
14257TIP3   OH264261   3.360   3.443  12.980 -0.5697 -0.0931 -0.3421
14257TIP3    H164262   3.323   3.445  12.892  0.5396 -0.8194 -0.8513
14257TIP3    H264263   3.441   3.492  12.974 -0.9578  0.6981  0.5375
14258TIP3   OH264264   4.847   5.566   4.107  0.3825 -0.4675 -0.2573
14258TIP3    H164265   4.775   5.519   4.148 -3.2504  1.2271 -3.9831
14258TIP3    H264266   4.865   5.516   4.026  1.4660  0.6624 -0.7519
14259TIP3   OH264267   2.213   4.722   2.710 -0.0592  0.1782  0.7370
14259TIP3    H164268   2.259   4.658   2.765  0.3579  0.5022  0.7685
14259TIP3    H264269   2.122   4.716   2.739  0.1969  0.5489  1.6853
14260TIP3   OH264270   1.257   3.335  11.202 -0.3122  0.4273 -1.1339
14260TIP3    H164271   1.246   3.425  11.173  2.1864  0.7767 -1.2315
14260TIP3    H264272   1.301   3.292  11.128  2.2232  0.2319  0.3801
14261TIP3   OH264273   6.208   3.763   1.161 -1.0506 -0.3368  0.1453
14261TIP3    H164274   6.234   3.674   1.139 -1.4373 -0.4980  0.3319
14261TIP3    H264275   6.120   3.754   1.197 -1.7472  0.2901 -1.2883
14262TIP3   OH264276   5.602   4.692   5.643  0.5397 -0.6159  0.0375
14262TIP3    H164277   5.653   4.654   5.572 -1.3409 -0.4321 -1.4922
14262TIP3    H264278   5.604   4.787   5.626 -2.7482 -0.7506 -1.9407
14263TIP3   OH264279   1.816   1.623   2.552 -0.2003 -0.5391 -0.8477
14263TIP3    H164280   1.764   1.564   2.607  0.4783 -0.1996  0.1968
14263TIP3    H264281   1.774   1.708   2.561  0.9676 -0.0772  0.6811
14264TIP3   OH264282   5.288   5.802   3.774 -0.3211  0.5626 -0.1723
14264TIP3    H164283   5.337   5.734   3.728 -2.0707 -0.6428 -0.3525
14264TIP3    H264284   5.318   5.796   3.865  0.7217  0.6932 -0.4940
14265TIP3   OH264285   4.037   6.729   3.116  0.3427  0.7507  0.1676
14265TIP3    H164286   3.944   6.751   3.113  0.2790  0.3546 -1.1862
14265TIP3    H264287   4.076   6.781   3.046  1.2082  1.1784  0.9505
14266TIP3   OH264288   3.611   1.057   6.245  0.2572  0.2390  0.4959
14266TIP3    H164289   3.664   1.118   6.195 -0.1725 -0.4678 -0.8796
14266TIP3    H264290   3.588   1.104   6.325 -0.7544  2.1839 -0.8736
14267TIP3   OH264291   1.598   2.521   2.200 -0.5153  0.2357  0.3521
14267TIP3    H164292   1.663   2.591   2.201  0.7792 -0.9186 -0.1065
14267TIP3    H264293   1.534   2.549   2.135  0.3233  0.6962 -0.2988
14268TIP3   OH264294   6.030   1.445  11.132  0.6294  0.0520 -0.4427
14268TIP3    H164295   6.027   1.402  11.217 -0.0372 -0.0618 -0.5160
14268TIP3    H264296   6.097   1.397  11.083  2.0266  0.9879  0.4559
14269TIP3   OH264297   0.119   4.548  15.062  0.5796  0.2506 -0.0344
14269TIP3    H164298   0.099   4.614  15.128  1.8723 -0.1882  0.8453
14269TIP3    H264299   0.215   4.546  15.059  0.5633 -1.2463 -0.3782
14270TIP3   OH264300   5.872   6.274   0.589  0.5169 -0.1198 -0.6686
14270TIP3    H164301   5.940   6.335   0.559  2.1985 -1.6456 -0.1325
14270TIP3    H264302   5.799   6.288   0.528  1.7477  0.7276 -2.0220
14271TIP3   OH264303   2.153   0.966  14.438  0.1802  0.0792  0.6490
14271TIP3    H164304   2.086   1.022  14.398 -0.7911 -0.4553  1.4891
14271TIP3    H264305   2.138   0.975  14.532 -0.8865 -2.6261  0.8154
14272TIP3   OH264306   4.197   4.389   2.279 -0.6488 -0.1788  0.1581
14272TIP3    H164307   4.190   4.352   2.367 -0.6221 -1.1587 -0.2313
14272TIP3    H264308   4.165   4.479   2.287 -1.0353 -0.3925  1.0807
14273TIP3   OH264309   6.800   4.559  12.010 -0.0449 -0.0869 -0.0721
14273TIP3    H164310   6.822   4.467  12.024  0.9616  0.0721 -0.5245
14273TIP3    H264311   6.879   4.607  12.035 -0.9002  0.7413  1.1230
14274TIP3   OH264312   3.641   0.732  15.453  0.4370  0.4417  0.3445
14274TIP3    H164313   3.576   0.786  15.408  0.7375  1.4334  1.0883
14274TIP3    H264314   3.700   0.702  15.382 -1.2365 -1.1440 -0.4663
14275TIP3   OH264315   0.891   4.177  14.241 -0.1278  0.2438 -0.4623
14275TIP3    H164316   0.871   4.130  14.160  0.5283 -0.1257 -0.4157
14275TIP3    H264317   0.857   4.265  14.227 -0.3554  0.0732 -0.9915
14276TIP3   OH264318   3.279   1.689  11.443  0.3922  0.0485 -0.2031
14276TIP3    H164319   3.313   1.778  11.440 -0.2906  0.3632  0.8776
14276TIP3    H264320   3.271   1.663  11.351 -0.1531  1.3829 -0.5499
14277TIP3   OH264321   1.689   1.496   0.091 -0.0630 -0.1334 -0.0822
14277TIP3    H164322   1.622   1.549   0.049 -0.3932 -0.8214 -0.4443
14277TIP3    H264323   1.726   1.553   0.158 -0.5814  0.4649 -0.2930
14278TIP3   OH264324   5.265   5.999  13.909  0.1841 -0.2452  0.1980
14278TIP3    H164325   5.198   5.953  13.858 -0.6806  1.6101 -0.4091
14278TIP3    H264326   5.215   6.051  13.972  1.1274  0.2366  0.5662
14279TIP3   OH264327   4.936   2.352   3.104  0.2131 -0.3073 -0.1449
14279TIP3    H164328   4.844   2.329   3.114 -0.2427  0.5049 -2.0134
14279TIP3    H264329   4.983   2.289   3.160 -1.5017 -0.0622  1.6676
14280TIP3   OH264330   2.533   1.362   0.921 -0.5516 -0.5346 -0.3786
14280TIP3    H164331   2.508   1.270   0.919 -0.9161 -0.4914 -3.4194
14280TIP3    H264332   2.476   1.403   0.855 -0.2407  1.8383  0.7225
14281TIP3   OH264333   0.770   1.789  17.034 -0.2281  0.1877 -0.5574
14281TIP3    H164334   0.733   1.758  17.117 -0.0886 -1.2382 -0.9951
14281TIP3    H264335   0.820   1.715  17.001  0.2703  0.9635 -1.6003
14282TIP3   OH264336   0.111   1.365   2.940 -0.0846 -0.2203  0.2193
14282TIP3    H164337   0.081   1.301   2.875 -1.5287 -1.0692  1.6544
14282TIP3    H264338   0.073   1.335   3.023 -0.3756  2.2128  1.0459
14283TIP3   OH264339   0.674   4.518   6.514  0.3789  0.9173  0.1637
14283TIP3    H164340   0.655   4.579   6.584 -0.2765 -1.0196  1.7771
14283TIP3    H264341   0.770   4.520   6.506  0.4414  1.3722  0.9333
14284TIP3   OH264342   0.973   5.502  14.027 -0.6604 -0.5976  0.1829
14284TIP3    H164343   1.016   5.481  14.111 -0.3964 -1.0103 -0.0539
14284TIP3    H264344   1.043   5.492  13.962 -0.1122  2.3213  0.1786
14285TIP3   OH264345   1.864   5.143  16.338  0.1683  0.2660  0.3442
14285TIP3    H164346   1.851   5.206  16.267  0.5661  2.5492  2.1812
14285TIP3    H264347   1.952   5.109  16.324  0.6564  1.4926  0.2876
14286TIP3   OH264348   2.678   5.653   2.786  0.4145 -0.2447  0.1191
14286TIP3    H164349   2.629   5.665   2.867  0.6990 -2.7466  0.7498
14286TIP3    H264350   2.767   5.682   2.806  0.7991 -2.0222  1.1676
14287TIP3   OH264351   4.532   2.580  13.735  0.0547  0.3893 -0.2477
14287TIP3    H164352   4.594   2.556  13.804 -0.2653 -0.4637 -0.2456
14287TIP3    H264353   4.446   2.554  13.770 -0.3707  1.9033 -0.0902
14288TIP3   OH264354   2.527   0.536   2.170  0.2900  0.3320  0.5232
14288TIP3    H164355   2.611   0.550   2.213 -0.7194 -1.1240  3.1860
14288TIP3    H264356   2.465   0.586   2.222 -0.7747 -0.1547 -0.2421
14289TIP3   OH264357   3.072   0.027   4.493  0.6492 -0.0060  0.1590
14289TIP3    H164358   3.103   0.022   4.402  0.9490 -2.1275  0.3325
14289TIP3    H264359   3.064   0.121   4.510  0.5821  0.4384 -2.0510
14290TIP3   OH264360   4.200   1.148  12.218  0.1748  0.1268  0.1059
14290TIP3    H164361   4.113   1.183  12.236 -0.0789 -0.7143  0.5773
14290TIP3    H264362   4.225   1.188  12.135 -0.4963  0.6823  0.1618
14291TIP3   OH264363   6.041   6.148  13.324 -0.4217  0.2293 -0.2711
14291TIP3    H164364   5.995   6.083  13.270 -2.4393  0.2300  1.3463
14291TIP3    H264365   6.132   6.118  13.323 -0.5350 -0.2888 -2.8506
14292TIP3   OH264366   0.909   4.777   6.487  0.5949  0.0331 -0.0222
14292TIP3    H164367   0.863   4.851   6.528  2.2409 -0.0820  2.1463
14292TIP3    H264368   1.000   4.788   6.512  1.0398 -2.2377 -0.4477
14293TIP3   OH264369   1.129   1.701  13.477 -0.3202 -0.9017  0.2513
14293TIP3    H164370   1.053   1.657  13.441 -0.7457 -0.6061  0.7714
14293TIP3    H264371   1.093   1.764  13.540  0.1706  1.1451 -1.4019
14294TIP3   OH264372   2.458   4.692   5.244  0.1531 -0.0059 -0.3615
14294TIP3    H164373   2.471   4.641   5.164 -0.0195  0.7177 -0.8585
14294TIP3    H264374   2.545   4.723   5.267  0.0308  0.8898 -1.0302
14295TIP3   OH264375   0.034   4.948   0.650 -0.0757  0.3408 -0.4143
14295TIP3    H164376   0.074   5.017   0.703 -0.4387  0.9586 -0.9294
14295TIP3    H264377   0.039   4.869   0.705 -0.9330  1.0795  0.7641
14296TIP3   OH264378   4.019   1.297  14.029 -0.0182 -0.1507 -0.6685
14296TIP3    H164379   4.063   1.370  14.074 -1.8757  0.4456  0.3195
14296TIP3    H264380   3.968   1.339  13.960 -0.3240 -0.6070 -0.7243
14297TIP3   OH264381   0.898   6.173   1.362 -0.3579 -0.1285 -0.4704
14297TIP3    H164382   0.913   6.078   1.357 -1.4847 -0.3388 -0.1779
14297TIP3    H264383   0.853   6.194   1.281 -0.0873  0.1593 -0.5435
14298TIP3   OH264384   3.743   4.765   6.420 -0.0364 -0.5787 -0.1019
14298TIP3    H164385   3.677   4.805   6.365 -0.1842  0.0593  0.5294
14298TIP3    H264386   3.801   4.719   6.359 -0.3044 -0.0426 -0.7631
14299TIP3   OH264387   0.804   0.706   4.332  0.2404  0.2778 -0.0151
14299TIP3    H164388   0.830   0.632   4.277 -0.1564  0.6852 -0.7647
14299TIP3    H264389   0.795   0.669   4.419 -1.2259 -0.8428 -0.6087
14300TIP3   OH264390   0.065   4.061  12.388  1.2685 -0.7615 -0.2255
14300TIP3    H164391   0.029   3.999  12.324 -1.3113  2.0322 -1.7439
14300TIP3    H264392   0.154   4.079  12.357  0.5750 -0.5622 -2.2472
14301TIP3   OH264393   0.458   5.438   6.278 -0.0049  0.1849 -0.1918
14301TIP3    H164394   0.488   5.484   6.356 -0.8836 -0.2111  0.3862
14301TIP3    H264395   0.522   5.368   6.265  0.3161  0.4420 -0.0212
14302TIP3   OH264396   2.039   6.474   6.096  0.9620  0.0865 -0.2676
14302TIP3    H164397   2.015   6.520   6.016  1.5929 -0.6366 -0.8851
14302TIP3    H264398   2.048   6.383   6.070  0.3924 -0.3035  0.7991
14303TIP3   OH264399   1.938   3.108  13.187  0.0794 -0.2310  0.2030
14303TIP3    H164400   1.877   3.087  13.258  0.0434 -0.5726  0.0781
14303TIP3    H264401   1.882   3.128  13.112  0.1192 -0.4952  0.1012
14304TIP3   OH264402   4.422   2.351   3.471  0.4690 -0.6913  0.4104
14304TIP3    H164403   4.424   2.447   3.469 -0.6081 -0.5996  1.8938
14304TIP3    H264404   4.413   2.330   3.564  0.9650 -2.2478  0.1219
14305TIP3   OH264405   4.272   2.625  16.412  0.3814  0.0141  0.1266
14305TIP3    H164406   4.231   2.665  16.489 -0.5482  1.5470 -1.0962
14305TIP3    H264407   4.216   2.549  16.392 -1.3652  1.4804 -0.8962
14306TIP3   OH264408   3.380   6.542   0.332 -0.1275  0.1283  0.1275
14306TIP3    H164409   3.370   6.608   0.263 -0.1658 -0.5065 -0.4764
14306TIP3    H264410   3.475   6.539   0.348 -0.1085  0.2069  0.0345
14307TIP3   OH264411   0.236   3.610  12.666  1.0626 -1.1049 -0.6693
14307TIP3    H164412   0.155   3.561  12.654  0.9549 -1.3978  1.0767
14307TIP3    H264413   0.212   3.700  12.643  0.2712 -1.2094 -0.2944
14308TIP3   OH264414   0.113   3.775   2.416  0.2187  0.1236 -0.4873
14308TIP3    H164415   0.136   3.830   2.341  1.2353  0.8278  0.2995
14308TIP3    H264416   0.149   3.822   2.491 -0.0200 -0.9933  0.3500
14309TIP3   OH264417   3.562   5.479  15.163 -1.2334 -0.5558  0.1339
14309TIP3    H164418   3.655   5.501  15.158 -1.2853 -0.6301 -1.4371
14309TIP3    H264419   3.558   5.409  15.228 -0.4250  0.6040  1.5053
14310TIP3   OH264420   1.240   2.096  14.164  0.6350 -0.2941 -0.4345
14310TIP3    H164421   1.246   2.145  14.082 -1.5445 -1.4521 -1.3778
14310TIP3    H264422   1.186   2.151  14.221 -2.4439 -1.6933 -1.7471
14311TIP3   OH264423   1.944   0.595  16.954  0.7452  0.1574  0.0962
14311TIP3    H164424   1.953   0.687  16.928  1.4096 -0.3219 -1.5280
14311TIP3    H264425   1.925   0.549  16.872 -0.0175 -1.1123  0.9514
14312TIP3   OH264426   0.396   5.524  12.165  0.7683  0.2047  0.5924
14312TIP3    H164427   0.442   5.561  12.241  0.0656 -0.4837  1.3884
14312TIP3    H264428   0.420   5.431  12.166  0.0299  0.0015  0.5325
14313TIP3   OH264429   1.072   2.477   1.873 -0.0861 -0.2839 -0.2655
14313TIP3    H164430   1.043   2.530   1.799 -1.8708  0.1456  0.6787
14313TIP3    H264431   1.102   2.395   1.834  0.6588  0.5728 -1.5751
14314TIP3   OH264432   0.872   3.120  14.862 -0.0209 -0.0388 -0.1490
14314TIP3    H164433   0.919   3.192  14.905  0.8060 -0.0402 -1.0159
14314TIP3    H264434   0.923   3.042  14.882 -0.9407 -0.4178  0.8240
14315TIP3   OH264435   1.573   0.377   1.887 -0.7412  0.1603 -0.0456
14315TIP3    H164436   1.582   0.334   1.802 -1.6731  1.7611 -0.9985
14315TIP3    H264437   1.480   0.366   1.910 -0.3804 -0.7455  1.0542
14316TIP3   OH264438   2.955   5.926  14.378  0.2489  0.1007 -0.0406
14316TIP3    H164439   2.999   5.886  14.453  2.0012  0.4948 -0.8159
14316TIP3    H264440   2.990   6.015  14.373 -2.4372  1.2922  0.7105
14317TIP3   OH264441   5.182   2.039  14.358 -0.2154  0.2486  0.2846
14317TIP3    H164442   5.119   2.100  14.319 -0.4880  0.1485  0.5566
14317TIP3    H264443   5.170   1.957  14.309  0.9834  0.7371 -0.8709
14318TIP3   OH264444   5.219   5.350  15.514 -0.3080  0.5351 -0.4595
14318TIP3    H164445   5.192   5.414  15.448  1.5379  1.7921 -0.0884
14318TIP3    H264446   5.304   5.318  15.482  0.7699  1.3868  1.3774
14319TIP3   OH264447   5.437   0.221  11.891  0.2598 -0.0780  0.2249
14319TIP3    H164448   5.523   0.202  11.854  0.1313  0.3515 -0.3155
14319TIP3    H264449   5.455   0.263  11.975  0.5658 -3.0345  1.7649
14320TIP3   OH264450   1.911   2.548  13.100 -0.3719 -0.2226 -0.6786
14320TIP3    H164451   1.932   2.629  13.147 -1.5324 -0.9783  1.2666
14320TIP3    H264452   1.954   2.479  13.152  0.1671 -0.9236 -2.0096
14321TIP3   OH264453   1.841   3.146  11.275 -0.2186 -0.4903 -0.4679
14321TIP3    H164454   1.894   3.192  11.209  0.5074 -1.2632 -0.4411
14321TIP3    H264455   1.848   3.054  11.251 -1.3153 -0.6419 -0.2750
14322TIP3   OH264456   0.641   3.392  13.797 -0.2066  0.0391  0.4584
14322TIP3    H164457   0.706   3.324  13.782 -1.3446 -1.1604  0.7903
14322TIP3    H264458   0.656   3.456  13.727  1.4004 -0.1279  0.6221
14323TIP3   OH264459   5.306   3.822   1.477 -0.5172  0.2641  0.3337
14323TIP3    H164460   5.228   3.770   1.457 -1.1544  1.7747 -1.3150
14323TIP3    H264461   5.291   3.906   1.433  1.6350  0.9261  0.7628
14324TIP3   OH264462   0.700   4.656   5.811 -0.0176  0.0137  0.6043
14324TIP3    H164463   0.703   4.750   5.794  1.8091 -0.2281 -0.6648
14324TIP3    H264464   0.764   4.641   5.880 -1.4514 -0.1165  1.9423
14325TIP3   OH264465   0.767   4.332   2.739  0.1261 -0.4894  0.3609
14325TIP3    H164466   0.787   4.385   2.817 -0.3048  0.8167 -0.3732
14325TIP3    H264467   0.848   4.331   2.689  0.5004 -1.6116  0.9667
14326TIP3   OH264468   4.670   4.125   1.696 -0.5581 -0.4548 -0.7059
14326TIP3    H164469   4.682   4.053   1.634  1.7460 -0.3854 -0.4278
14326TIP3    H264470   4.632   4.195   1.643 -1.3311 -1.3307 -1.3442
14327TIP3   OH264471   3.651   0.271   4.683  0.0288  0.5450  0.0261
14327TIP3    H164472   3.569   0.288   4.728  0.0195 -0.8043  0.5628
14327TIP3    H264473   3.631   0.284   4.590 -1.4166 -1.8396 -0.0815
14328TIP3   OH264474   0.742   2.719  12.717  0.1877  0.1275  0.5154
14328TIP3    H164475   0.670   2.707  12.655  0.5832  0.2873  0.0210
14328TIP3    H264476   0.756   2.632  12.754 -1.0009  0.3084  1.4578
14329TIP3   OH264477   4.945   6.504  13.577  0.2103 -0.2109  0.4869
14329TIP3    H164478   4.866   6.499  13.631  0.3728  3.2174  1.2597
14329TIP3    H264479   4.922   6.458  13.496 -2.2075 -0.1554  1.0719
14330TIP3   OH264480   1.741   0.270  11.591 -0.1280 -0.0231 -0.3444
14330TIP3    H164481   1.759   0.305  11.504 -0.9822 -0.8921 -0.8866
14330TIP3    H264482   1.826   0.238  11.622  0.3977  1.2595 -0.3931
14331TIP3   OH264483   1.620   5.056  11.712  0.4149  0.4867  0.0239
14331TIP3    H164484   1.692   5.119  11.719 -0.0892  1.0045  0.7290
14331TIP3    H264485   1.582   5.071  11.626 -0.0425  1.5366  0.4005
14332TIP3   OH264486   1.000   0.313   3.174  0.2183  0.4424  0.1318
14332TIP3    H164487   0.993   0.261   3.254  1.1643  0.1718  0.0499
14332TIP3    H264488   0.912   0.349   3.161  0.1197  0.7403  1.4581
14333TIP3   OH264489   0.069   0.566  12.513  0.0378  0.0420 -0.6247
14333TIP3    H164490   0.009   0.526  12.576  0.7047  0.4253  0.2674
14333TIP3    H264491   0.150   0.582  12.562  1.0036 -0.7393 -1.8637
14334TIP3   OH264492   2.439   6.120   4.347 -0.3741  0.5423  0.4046
14334TIP3    H164493   2.361   6.067   4.365 -0.5301  0.7985  0.4857
14334TIP3    H264494   2.511   6.057   4.346 -0.5555  0.3324  0.5305
14335TIP3   OH264495   4.673   3.920   1.866 -0.2340 -0.6745 -0.2609
14335TIP3    H164496   4.602   3.869   1.828 -0.9043  1.0104 -1.3222
14335TIP3    H264497   4.660   4.009   1.835  0.2192  0.4631  2.4779
14336TIP3   OH264498   2.302   4.122   5.298 -0.0682  0.4058 -0.0406
14336TIP3    H164499   2.218   4.162   5.277 -0.9770 -1.5377 -0.3767
14336TIP3    H264500   2.365   4.163   5.238 -1.3613 -0.2200 -1.9031
14337TIP3   OH264501   4.527   2.107   2.073 -0.0062 -0.1188  0.4434
14337TIP3    H164502   4.502   2.157   1.996  1.5214  0.9340  0.5743
14337TIP3    H264503   4.599   2.157   2.111  0.3688 -1.4881  1.6170
14338TIP3   OH264504   2.174   3.177  16.250 -0.3517 -0.5386 -0.5839
14338TIP3    H164505   2.126   3.179  16.167 -1.3924 -0.1177  0.0133
14338TIP3    H264506   2.265   3.193  16.225 -0.7790  0.5241 -1.5514
14339TIP3   OH264507   0.400   4.696   2.812  0.3208 -0.0154 -0.1112
14339TIP3    H164508   0.490   4.663   2.802 -0.4860 -2.3196 -0.5075
14339TIP3    H264509   0.368   4.652   2.891 -0.8485 -0.2383 -0.6897
14340TIP3   OH264510   5.887   4.752   1.079  0.3977  0.4939  0.1170
14340TIP3    H164511   5.962   4.796   1.120  1.2906 -0.8866  0.0147
14340TIP3    H264512   5.812   4.808   1.101  1.2904  1.3559  1.1010
14341TIP3   OH264513   1.380   1.190  16.959 -0.3780  0.0136 -0.3694
14341TIP3    H164514   1.398   1.269  17.010 -0.8598  0.1408 -0.3962
14341TIP3    H264515   1.353   1.223  16.873  0.8664 -0.1987 -0.8703
14342TIP3   OH264516   2.060   1.149   1.234 -0.4206 -0.3347 -0.2270
14342TIP3    H164517   2.036   1.146   1.142  1.8531 -1.6335 -0.8725
14342TIP3    H264518   2.152   1.175   1.234 -0.3777 -0.3158  1.6872
14343TIP3   OH264519   2.451   3.140  14.636  0.5017  0.1826  0.5365
14343TIP3    H164520   2.511   3.108  14.703 -0.7152  0.5011  1.8361
14343TIP3    H264521   2.395   3.065  14.616  0.3671  0.3008  0.4631
14344TIP3   OH264522   6.589   1.328   5.381  0.3093 -0.0717  0.3610
14344TIP3    H164523   6.517   1.321   5.443  1.3374  0.0403  1.6219
14344TIP3    H264524   6.641   1.248   5.396  0.4125 -0.1980 -0.5861
14345TIP3   OH264525   4.913   4.937  15.141 -0.7013  0.7199 -0.1563
14345TIP3    H164526   4.954   4.863  15.186 -0.2828 -0.9502 -3.0879
14345TIP3    H264527   4.848   4.898  15.083  0.7462  2.4180 -3.1258
14346TIP3   OH264528   2.167   4.813   2.171  0.0667  0.0198  0.0268
14346TIP3    H164529   2.206   4.885   2.219  2.2004 -0.5080 -0.8175
14346TIP3    H264530   2.210   4.735   2.206 -0.3049 -0.6093 -0.8785
14347TIP3   OH264531   3.385   6.005   3.998 -0.1669 -0.5845  0.2062
14347TIP3    H164532   3.380   6.089   4.043  1.5588 -1.0208  1.2865
14347TIP3    H264533   3.441   6.022   3.922  1.8966 -1.1506  1.5263
14348TIP3   OH264534   0.193   5.317  17.127  0.0867  0.5719 -0.0547
14348TIP3    H164535   0.180   5.277  17.213  0.8580  0.3214 -0.0474
14348TIP3    H264536   0.133   5.392  17.127 -1.6347 -0.7372 -0.2024
14349TIP3   OH264537   2.205   3.315  12.936 -0.2293  0.3993  0.1193
14349TIP3    H164538   2.153   3.366  12.998  2.4102  2.5093  0.7834
14349TIP3    H264539   2.265   3.378  12.897  2.7268 -2.0252  0.4001
14350TIP3   OH264540   4.413   5.634  13.831 -0.2909 -0.2390  0.1094
14350TIP3    H164541   4.363   5.575  13.886 -0.6997  1.9427  2.2678
14350TIP3    H264542   4.495   5.648  13.879 -0.0250  0.5972 -0.5555
14351TIP3   OH264543   4.558   5.371   1.134  0.1214  0.0979  0.4276
14351TIP3    H164544   4.497   5.443   1.148 -1.9051 -1.2759 -0.8656
14351TIP3    H264545   4.617   5.402   1.065 -0.0475  0.8880  0.6322
14352TIP3   OH264546   2.244   1.001   4.854  0.2506  0.9678 -0.1586
14352TIP3    H164547   2.182   1.013   4.782 -0.0987  1.3026  0.1923
14352TIP3    H264548   2.304   0.933   4.823 -0.1140  0.8498 -0.6194
14353TIP3   OH264549   0.263   0.922  15.494  0.2977  0.9891  0.1255
14353TIP3    H164550   0.181   0.943  15.538 -0.8673 -0.1595 -1.3885
14353TIP3    H264551   0.316   0.879  15.561 -1.5321 -0.9529  0.4570
14354TIP3   OH264552   2.905   3.923   1.044 -0.0704 -0.3901  0.1236
14354TIP3    H164553   2.867   3.911   1.132  0.1095  0.1256  0.2733
14354TIP3    H264554   2.993   3.887   1.051 -0.9193 -2.8220 -0.5827
14355TIP3   OH264555   6.758   3.194   4.053  0.3037  0.4148  0.3273
14355TIP3    H164556   6.686   3.256   4.039 -1.1777 -1.1935  0.5531
14355TIP3    H264557   6.722   3.127   4.111  1.4656 -1.3192 -0.8582
14356TIP3   OH264558   2.788   5.722   1.948  0.3497 -0.4711  0.0102
14356TIP3    H164559   2.788   5.636   1.990 -0.4401 -0.6488 -0.3297
14356TIP3    H264560   2.833   5.780   2.010  1.6149 -1.2863 -0.1104
14357TIP3   OH264561   3.201   2.240   2.447  0.1099 -0.0637 -0.3738
14357TIP3    H164562   3.207   2.264   2.355  1.6014 -2.3072 -0.9299
14357TIP3    H264563   3.126   2.181   2.452 -1.5568  1.9846  0.3973
14358TIP3   OH264564   0.233   2.999  15.402 -0.3519  0.0279  0.3364
14358TIP3    H164565   0.270   2.993  15.490 -2.8377 -1.9091  1.3817
14358TIP3    H264566   0.302   2.964  15.345  0.7717 -0.0428  1.6844
14359TIP3   OH264567   4.556   2.515  12.781 -0.4322  0.0089  0.0580
14359TIP3    H164568   4.564   2.451  12.851 -0.9890 -0.6571 -0.4734
14359TIP3    H264569   4.462   2.530  12.772 -0.5791 -1.8489 -2.2260
14360TIP3   OH264570   3.709   6.082  16.943  0.5615  0.4286 -0.8360
14360TIP3    H164571   3.621   6.061  16.974  0.6262  0.2713 -0.7568
14360TIP3    H264572   3.711   6.049  16.853 -0.0576  2.0495 -1.4705
14361TIP3   OH264573   3.232   6.509   4.270 -0.1060  0.1023 -0.1389
14361TIP3    H164574   3.242   6.530   4.177 -0.8328  2.2909  0.2199
14361TIP3    H264575   3.157   6.449   4.272 -1.0960  1.2419 -0.8913
14362TIP3   OH264576   2.145   4.435  14.923 -0.2616 -0.3082  0.1694
14362TIP3    H164577   2.212   4.389  14.972  1.6002  0.9017 -1.1192
14362TIP3    H264578   2.132   4.382  14.844 -0.5404 -0.3428  0.2372
14363TIP3   OH264579   2.918   1.805  13.806  0.5018  0.1876  0.2129
14363TIP3    H164580   2.919   1.892  13.764  1.0743  0.6610  1.1587
14363TIP3    H264581   2.966   1.818  13.888 -0.7053 -0.6684  1.0924
14364TIP3   OH264582   6.395   5.746  15.408  0.5230 -0.2208  0.4813
14364TIP3    H164583   6.441   5.823  15.373  5.0565 -3.1583 -0.9693
14364TIP3    H264584   6.444   5.723  15.487  0.3113 -2.3856  0.0563
14365TIP3   OH264585   0.824   4.561   0.824 -0.2074 -0.3269  0.0943
14365TIP3    H164586   0.802   4.615   0.748 -0.4733 -0.4192  0.1073
14365TIP3    H264587   0.878   4.491   0.788  0.3180  0.0574  0.1081
14366TIP3   OH264588   2.495   2.837   5.266  0.5208 -0.0482 -0.5211
14366TIP3    H164589   2.559   2.854   5.197 -0.0986  1.1721 -0.8183
14366TIP3    H264590   2.445   2.918   5.274  0.2297 -0.3382  1.0107
14367TIP3   OH264591   4.773   6.803  14.274  0.4670 -0.1437 -0.7572
14367TIP3    H164592   4.809   6.739  14.335 -0.8910  1.5194  2.0054
14367TIP3    H264593   4.686   6.769  14.252  0.0576  0.3295  0.0852
14368TIP3   OH264594   4.246   2.407  16.780 -0.3977 -0.3135  0.1834
14368TIP3    H164595   4.182   2.374  16.718 -1.0978 -0.0238  0.7267
14368TIP3    H264596   4.199   2.408  16.864  0.5560 -0.7894  0.7319
14369TIP3   OH264597   0.164   0.032   5.829 -0.2409 -0.2749  0.3164
14369TIP3    H164598   0.162  -0.040   5.891  1.3921  0.3462  1.1350
14369TIP3    H264599   0.255   0.038   5.801 -0.7060  0.2565 -1.2183
14370TIP3   OH264600   2.075   2.173  14.764 -0.3609  0.5582  0.4610
14370TIP3    H164601   2.154   2.142  14.720 -1.2279 -3.0005  1.0968
14370TIP3    H264602   2.062   2.112  14.836 -4.9609 -0.7114 -1.0922
14371TIP3   OH264603   1.990   5.751   0.167  0.1318 -0.6716 -0.5770
14371TIP3    H164604   2.040   5.703   0.234  0.1469  0.8422  0.5518
14371TIP3    H264605   1.950   5.824   0.215  0.5463  0.7537 -2.3055
14372TIP3   OH264606   5.319   2.991  17.049 -0.0080 -0.0092  0.0825
14372TIP3    H164607   5.344   3.068  17.099  2.3056 -0.1985 -0.6700
14372TIP3    H264608   5.244   3.019  16.997  1.8482  2.3382 -1.5215
14373TIP3   OH264609   3.889   5.846  13.909 -0.0317 -0.8955 -0.7197
14373TIP3    H164610   3.811   5.898  13.927 -0.6057 -1.4276 -1.6109
14373TIP3    H264611   3.933   5.840  13.994  0.0945  1.0796 -0.5954
14374TIP3   OH264612   3.161   5.030  16.925  0.3231 -0.2252  0.1323
14374TIP3    H164613   3.102   4.955  16.924 -0.2392  0.1934  0.8739
14374TIP3    H264614   3.239   5.000  16.973 -0.6209  0.1641  1.9960
14375TIP3   OH264615   5.202   1.760  15.358 -0.3089 -0.0854  0.1762
14375TIP3    H164616   5.116   1.724  15.340 -0.5744  1.2455 -1.5848
14375TIP3    H264617   5.243   1.767  15.271  0.1609  2.6225  0.5282
14376TIP3   OH264618   5.534   5.031  11.782 -0.1598  0.3754  0.7016
14376TIP3    H164619   5.599   4.971  11.746 -0.0418  0.9765 -0.1036
14376TIP3    H264620   5.457   4.976  11.796 -0.2240  0.1220 -0.5232
14377TIP3   OH264621   1.022   2.867   3.551 -0.0112  0.7012 -0.3349
14377TIP3    H164622   1.005   2.868   3.645  0.2733  0.8542 -0.2864
14377TIP3    H264623   0.963   2.933   3.515 -0.5389  0.2384 -0.3361
14378TIP3   OH264624   5.401   2.195   3.567  0.1571 -0.1966  0.3962
14378TIP3    H164625   5.435   2.113   3.602 -1.2023 -1.0285 -0.1489
14378TIP3    H264626   5.437   2.201   3.479  0.3323 -0.1640  0.4707
14379TIP3   OH264627   5.060   3.799   4.812 -0.2640 -0.1910  0.6382
14379TIP3    H164628   5.027   3.730   4.755  2.4607  0.1378 -1.5800
14379TIP3    H264629   5.004   3.875   4.793 -0.4447 -0.5591 -0.3532
14380TIP3   OH264630   4.365   3.865   1.485  0.1638 -0.1600  0.1798
14380TIP3    H164631   4.288   3.899   1.441  0.2500 -0.1723  0.0184
14380TIP3    H264632   4.428   3.937   1.484 -0.2687  0.2696  1.3872
14381TIP3   OH264633   3.019   3.810  11.899 -0.2593 -0.1401 -0.1879
14381TIP3    H164634   2.975   3.748  11.840 -1.0619  0.7329 -0.5255
14381TIP3    H264635   3.058   3.874  11.840 -0.5777  0.4194  0.2039
14382TIP3   OH264636   0.546   0.128   3.013  0.3462 -0.6012  0.7517
14382TIP3    H164637   0.577   0.038   3.024  0.0016 -0.6156  1.6867
14382TIP3    H264638   0.624   0.181   3.026  0.5994 -0.7699 -0.0384
14383TIP3   OH264639   3.314   4.818  15.541  0.4023  0.0290 -0.4404
14383TIP3    H164640   3.397   4.804  15.495  0.2936 -3.5440  0.1779
14383TIP3    H264641   3.341   4.837  15.631  0.5984 -1.5226 -0.1506
14384TIP3   OH264642   1.290   4.316   5.250 -0.3241 -0.0510 -0.2228
14384TIP3    H164643   1.252   4.367   5.322  0.6250  0.5152 -0.0959
14384TIP3    H264644   1.323   4.236   5.292 -1.5916 -0.6724 -0.3802
14385TIP3   OH264645   6.246   6.115   1.435  0.1846 -0.3925  0.2993
14385TIP3    H164646   6.284   6.065   1.507 -0.5064 -1.4041 -0.0166
14385TIP3    H264647   6.189   6.179   1.477 -0.9223 -1.5689  0.6580
14386TIP3   OH264648   4.317   0.281   3.678 -0.3963  0.6305  0.3001
14386TIP3    H164649   4.236   0.328   3.661 -0.8944 -0.1262  0.5268
14386TIP3    H264650   4.320   0.272   3.774 -0.3558  0.1287  0.2541
14387TIP3   OH264651   5.639   2.210  11.404  0.2901 -0.0872  0.0375
14387TIP3    H164652   5.707   2.172  11.349  1.1586  1.5375 -0.0640
14387TIP3    H264653   5.582   2.256  11.342  0.4375  0.5239  0.3537
14388TIP3   OH264654   2.629   4.062  16.520  0.2233 -0.2629 -0.3220
14388TIP3    H164655   2.595   4.091  16.605 -0.7815  0.3943 -0.9204
14388TIP3    H264656   2.720   4.037  16.537  0.2819  0.6327  0.7795
14389TIP3   OH264657   4.774   0.971  15.773  0.0482  0.1373 -0.5122
14389TIP3    H164658   4.760   1.058  15.811 -2.1895 -1.0498  1.6729
14389TIP3    H264659   4.852   0.938  15.817 -1.0137 -0.1919  1.1948
14390TIP3   OH264660   6.471   6.323   5.606  0.3802  0.2499  0.6214
14390TIP3    H164661   6.548   6.380   5.615 -0.5102  1.6009  0.1299
14390TIP3    H264662   6.398   6.377   5.638 -0.2961 -1.2393  1.7394
14391TIP3   OH264663   2.178   2.742   4.011 -0.1279  0.0544 -0.3206
14391TIP3    H164664   2.252   2.724   4.069 -0.2968 -2.4260 -0.7633
14391TIP3    H264665   2.106   2.689   4.046 -0.6055 -0.4937 -2.0337
14392TIP3   OH264666   1.047   4.563  16.287 -0.6808  0.1005 -0.6453
14392TIP3    H164667   1.001   4.480  16.275  0.0561 -0.3404 -0.4895
14392TIP3    H264668   1.100   4.550  16.365  0.8495  0.0603 -1.6555
14393TIP3   OH264669   6.342   3.764   5.340  0.6218  0.2056  0.4819
14393TIP3    H164670   6.402   3.788   5.410 -1.1236  1.8558  1.5281
14393TIP3    H264671   6.256   3.763   5.382 -0.1667 -1.8051 -1.0058
14394TIP3   OH264672   0.367   3.897  10.712  0.2049 -0.5457  0.6140
14394TIP3    H164673   0.409   3.910  10.797  3.1018 -0.0749 -0.7590
14394TIP3    H264674   0.374   3.803  10.695  0.9673 -0.4339  0.2826
14395TIP3   OH264675   2.189   5.439  13.371 -0.3621 -0.1237  0.4667
14395TIP3    H164676   2.169   5.389  13.292  1.0388  1.6456 -1.0997
14395TIP3    H264677   2.250   5.384  13.419  1.0119 -0.0758 -1.1283
14396TIP3   OH264678   1.278   0.420   0.292 -0.3386  0.7729 -0.7954
14396TIP3    H164679   1.187   0.397   0.311  0.5685 -1.2721  1.7279
14396TIP3    H264680   1.316   0.339   0.257  1.1015  0.7736  0.6851
14397TIP3   OH264681   2.105   4.347  15.284 -0.7204  0.2186  0.0543
14397TIP3    H164682   2.114   4.253  15.303 -0.1719  0.2819  0.1004
14397TIP3    H264683   2.041   4.350  15.213 -0.1225 -0.2441 -0.5112
14398TIP3   OH264684   0.009   0.260   1.042  0.2477 -0.5653 -0.6428
14398TIP3    H164685   0.086   0.271   0.986  0.6435 -0.0942 -0.0220
14398TIP3    H264686   0.013   0.334   1.102 -1.8315  0.6457 -1.9144
14399TIP3   OH264687   3.205   0.130  16.414 -0.4657 -0.2075 -0.1689
14399TIP3    H164688   3.203   0.225  16.403  0.8582 -0.0152  0.9175
14399TIP3    H264689   3.116   0.107  16.440 -0.6783  0.8096  0.0654
14400TIP3   OH264690   2.259   1.961  12.774 -0.1141  0.8049 -0.2097
14400TIP3    H164691   2.318   1.898  12.815 -1.0728  0.9942  1.5647
14400TIP3    H264692   2.188   1.907  12.739 -0.3160  0.7844  0.2187
14401TIP3   OH264693   3.041   0.857  14.216  0.2538 -0.0709  0.3761
14401TIP3    H164694   3.066   0.946  14.193 -0.1756 -0.1783 -0.5415
14401TIP3    H264695   3.059   0.850  14.310  0.1432  1.0293  0.4837
14402TIP3   OH264696   1.502   0.368   2.749  0.3504 -0.7870 -0.0324
14402TIP3    H164697   1.586   0.322   2.741  0.5407 -0.5147  0.3540
14402TIP3    H264698   1.484   0.400   2.660  1.1060 -0.0782  0.0504
14403TIP3   OH264699   0.576   4.397  13.905 -0.4861 -0.0560  0.1880
14403TIP3    H164700   0.538   4.478  13.938 -0.1444  0.6968 -1.1702
14403TIP3    H264701   0.642   4.426  13.841 -1.4321 -1.3852 -1.4791
14404TIP3   OH264702   6.327   2.673  15.553  0.0628 -0.1795 -0.2843
14404TIP3    H164703   6.234   2.674  15.528 -0.3877 -1.0042  1.2147
14404TIP3    H264704   6.341   2.757  15.597  0.4611  0.6189 -1.8835
14405TIP3   OH264705   4.836   3.637  16.231  0.5732  0.0148 -0.4124
14405TIP3    H164706   4.880   3.693  16.295 -0.4221 -0.4458  0.7102
14405TIP3    H264707   4.824   3.692  16.154 -0.3952  1.3531  0.6622
14406TIP3   OH264708   6.664   6.621  13.067  0.2203  0.1651  0.8551
14406TIP3    H164709   6.747   6.665  13.088  1.1511 -0.1073 -1.8679
14406TIP3    H264710   6.669   6.538  13.114  0.7050  0.8428  2.0559
14407TIP3   OH264711   5.822   1.841   4.012  0.1281  0.0726 -0.3879
14407TIP3    H164712   5.764   1.885   3.950  0.7849  2.5793  0.6833
14407TIP3    H264713   5.788   1.865   4.098  1.6505  0.0213  0.2506
14408TIP3   OH264714   1.297   2.363  15.545 -0.2808 -0.0797  0.0972
14408TIP3    H164715   1.234   2.305  15.587 -0.9655 -0.0733 -0.8808
14408TIP3    H264716   1.336   2.310  15.476 -1.7147  0.8670 -1.5491
14409TIP3   OH264717   3.476   4.155  14.493 -0.5561 -0.5056 -0.3753
14409TIP3    H164718   3.464   4.062  14.511 -1.4489 -0.4483 -0.6330
14409TIP3    H264719   3.443   4.199  14.571  0.3741 -0.4111 -0.0216
14410TIP3   OH264720   4.111   4.679  12.523 -0.8022 -0.0117  0.2365
14410TIP3    H164721   4.178   4.706  12.460 -0.5235 -0.1224  0.4822
14410TIP3    H264722   4.099   4.756  12.579 -0.8160 -0.0228  0.2486
14411TIP3   OH264723   5.585   2.248  15.699 -0.4215 -0.3989 -0.5024
14411TIP3    H164724   5.659   2.308  15.705 -0.5014 -0.4023  0.7151
14411TIP3    H264725   5.511   2.303  15.675 -0.5177  0.0243  0.7136
14412TIP3   OH264726   4.313   2.747   1.802 -0.1953 -0.2555 -0.3529
14412TIP3    H164727   4.325   2.794   1.720  1.7576  0.6490  0.3897
14412TIP3    H264728   4.277   2.813   1.862  2.3896  0.3536  0.6459
14413TIP3   OH264729   4.603   2.011   9.940 -0.4697 -0.0264  0.7594
14413TIP3    H164730   4.609   2.087   9.998 -2.2737  0.0870  0.8446
14413TIP3    H264731   4.517   2.018   9.900  0.6530 -0.2188 -1.8367
14414TIP3   OH264732   5.460   2.797  14.798 -0.2148  0.3097 -0.2748
14414TIP3    H164733   5.506   2.721  14.834 -1.0593  0.6444  1.5895
14414TIP3    H264734   5.466   2.785  14.703  3.2343  0.0475 -0.1760
14415TIP3   OH264735   0.670   3.897  12.113 -0.0954  0.1961  0.6143
14415TIP3    H164736   0.720   3.876  12.034  0.2219  1.6464  0.4021
14415TIP3    H264737   0.712   3.976  12.148 -1.0378  0.3227  1.5145
14416TIP3   OH264738   6.557   6.778  13.461 -0.0497  0.0938  1.1736
14416TIP3    H164739   6.485   6.785  13.523 -1.2990  0.2850 -0.2345
14416TIP3    H264740   6.522   6.724  13.390  0.9841  0.6885  0.1761
14417TIP3   OH264741   6.064   3.775   4.452 -0.6691 -0.1906  0.3787
14417TIP3    H164742   6.113   3.695   4.470 -1.7780 -1.3535 -1.4086
14417TIP3    H264743   6.101   3.807   4.369 -0.4123  1.0300  0.9463
14418TIP3   OH264744   3.247   5.072   3.933  0.0574 -0.4024  0.5557
14418TIP3    H164745   3.326   5.126   3.941 -1.7299  3.0544 -2.0812
14418TIP3    H264746   3.183   5.115   3.990 -0.6823 -1.5304  0.6051
14419TIP3   OH264747   1.731   5.060  12.160 -0.3662 -0.0937 -0.1254
14419TIP3    H164748   1.767   5.143  12.128 -4.2194  1.7908 -0.1895
14419TIP3    H264749   1.724   5.071  12.255 -1.6793  0.0960 -0.2188
14420TIP3   OH264750   1.954   6.810  13.703 -0.5236 -0.2097 -0.1738
14420TIP3    H164751   2.025   6.786  13.763 -0.0782 -1.9901 -1.3171
14420TIP3    H264752   1.874   6.796  13.753 -0.1060  0.6850  0.7591
14421TIP3   OH264753   3.781   1.797   2.537 -0.4259  0.3163 -0.0872
14421TIP3    H164754   3.846   1.748   2.487 -0.2889  0.1431  0.2572
14421TIP3    H264755   3.702   1.793   2.484 -0.3923 -0.2035 -0.1027
14422TIP3   OH264756   0.379   3.988   5.524 -0.3174 -0.4466  0.0707
14422TIP3    H164757   0.317   3.945   5.582  0.2967  0.8114  1.7385
14422TIP3    H264758   0.326   4.047   5.470 -0.9095 -1.7531 -0.8392
14423TIP3   OH264759   2.108   1.432  13.532  0.7724  0.4647  0.5435
14423TIP3    H164760   2.081   1.522  13.553  1.6290  1.2449 -1.4401
14423TIP3    H264761   2.200   1.441  13.504  0.7710 -0.9767  0.0083
14424TIP3   OH264762   2.953   0.697  16.342  0.1337 -0.0615 -0.2236
14424TIP3    H164763   2.949   0.644  16.263  1.6648  0.4553 -0.6725
14424TIP3    H264764   3.028   0.755  16.329  1.5731 -1.1958  2.3493
14425TIP3   OH264765   1.814   4.798  14.303  0.3570  0.7426 -0.5306
14425TIP3    H164766   1.808   4.705  14.327 -2.2200  0.5043 -1.8092
14425TIP3    H264767   1.905   4.809  14.273  1.1400 -0.9682  1.0154
14426TIP3   OH264768   4.979   3.503  17.004  0.7183  0.2384 -0.6638
14426TIP3    H164769   4.940   3.559  16.937 -0.9090  0.9787  0.8353
14426TIP3    H264770   4.905   3.473  17.057  1.8251 -1.3123  0.1039
14427TIP3   OH264771   0.056   5.864   4.843 -0.1278  0.0100 -0.5102
14427TIP3    H164772   0.097   5.794   4.792  0.0917 -0.0686 -0.2234
14427TIP3    H264773   0.113   5.876   4.918  0.3455  1.1464 -1.0271
14428TIP3   OH264774   0.938   0.752   1.899 -0.1275 -0.1184  0.0981
14428TIP3    H164775   0.880   0.710   1.963  1.3182 -0.0345  1.5255
14428TIP3    H264776   0.989   0.814   1.950 -0.3046  1.4378 -1.5131
14429TIP3   OH264777   5.438   4.561   2.158 -0.4444 -0.2210  0.1990
14429TIP3    H164778   5.446   4.526   2.247 -0.2894 -0.5925  0.0451
14429TIP3    H264779   5.522   4.604   2.142 -0.9412  0.9837  0.6950
14430TIP3   OH264780   0.903   1.078  12.192  0.2599  0.1970 -0.4052
14430TIP3    H164781   0.875   1.108  12.279  0.2403 -0.8896 -0.0236
14430TIP3    H264782   0.931   1.158  12.147  1.8826  0.5975  1.1853
14431TIP3   OH264783   1.227   5.989  15.333 -0.4795  0.4208 -0.3628
14431TIP3    H164784   1.216   6.036  15.250  1.4212 -0.1450 -0.9806
14431TIP3    H264785   1.170   5.912  15.324 -1.6566  1.2566 -0.3699
14432TIP3   OH264786   3.218   4.421   0.019 -0.1333  0.5267 -0.0501
14432TIP3    H164787   3.215   4.495  -0.041  1.7332 -1.0111 -2.2406
14432TIP3    H264788   3.137   4.372   0.001  0.3042  0.1964 -1.2453
14433TIP3   OH264789   4.710   2.291  15.506  0.7542  0.4327 -0.0586
14433TIP3    H164790   4.699   2.196  15.512  2.1537  0.1914 -0.7033
14433TIP3    H264791   4.703   2.322  15.596  0.3790 -0.2946  0.1692
14434TIP3   OH264792   0.156   3.279   5.006 -0.3076  0.2923  0.1709
14434TIP3    H164793   0.105   3.218   4.952 -1.2575  1.8228 -0.7354
14434TIP3    H264794   0.221   3.223   5.049 -2.6049 -1.7422  1.2833
14435TIP3   OH264795   2.575   6.238   4.559  0.2404 -0.0956  0.2255
14435TIP3    H164796   2.509   6.190   4.509 -0.3688 -0.4222  1.2977
14435TIP3    H264797   2.525   6.308   4.603  0.3282 -1.1406  2.0895
14436TIP3   OH264798   5.371   2.749   3.138  0.7111  0.2517 -0.4447
14436TIP3    H164799   5.431   2.815   3.105  0.4473  0.5581 -0.3254
14436TIP3    H264800   5.365   2.684   3.068  1.1350  0.2449 -0.4767
14437TIP3   OH264801   4.582   6.033   1.972  0.3471  0.0510 -0.0298
14437TIP3    H164802   4.537   6.030   1.888  0.5306  0.3935 -0.1422
14437TIP3    H264803   4.653   6.097   1.959  0.8704 -0.4895  0.1415
14438TIP3   OH264804   3.347   3.945   2.011 -0.5860 -0.2801  0.1723
14438TIP3    H164805   3.389   3.896   1.940  0.4522 -0.2976  0.7900
14438TIP3    H264806   3.295   3.880   2.057 -0.5774 -0.4457 -0.0483
14439TIP3   OH264807   4.814   5.860   4.199  0.5178  0.5627 -0.3318
14439TIP3    H164808   4.825   5.778   4.150 -0.4949  0.6657 -0.7479
14439TIP3    H264809   4.786   5.833   4.286  1.2003  0.4341 -0.1415
14440TIP3   OH264810   3.753   0.669   0.055  0.3176 -0.0578  0.3242
14440TIP3    H164811   3.709   0.637   0.134  1.0886 -2.6812 -0.2114
14440TIP3    H264812   3.695   0.737   0.022 -1.0901 -0.3608  2.0173
14441TIP3   OH264813   1.715   3.432   4.409  0.0180  0.1335  0.0331
14441TIP3    H164814   1.767   3.512   4.418 -1.1776  1.1290 -1.4921
14441TIP3    H264815   1.664   3.427   4.490 -1.5305  2.1912 -0.7352
14442TIP3   OH264816   5.106   3.134  16.557 -0.1301 -0.2625  0.1655
14442TIP3    H164817   5.017   3.167  16.547 -0.2283 -0.8495 -1.0767
14442TIP3    H264818   5.157   3.210  16.585 -1.0762 -0.0036  1.2182
14443TIP3   OH264819   4.157   4.606   1.390 -0.1341 -0.0275  0.0315
14443TIP3    H164820   4.237   4.560   1.364  0.1318  0.3851  0.0961
14443TIP3    H264821   4.151   4.679   1.328 -2.0184 -1.6382 -1.8128
14444TIP3   OH264822   6.666   0.903  15.721 -0.5486  0.3279  0.2240
14444TIP3    H164823   6.700   0.815  15.734 -0.0984  0.4813  0.1215
14444TIP3    H264824   6.577   0.900  15.755 -0.1991  0.0949  1.1606
14445TIP3   OH264825   5.142   3.308   6.005  0.3868 -0.0006  0.1963
14445TIP3    H164826   5.193   3.256   6.067  3.1236 -0.7754 -2.4398
14445TIP3    H264827   5.201   3.379   5.978 -0.3371 -0.1619 -2.0364
14446TIP3   OH264828   0.834   4.612   1.857  0.2226 -0.6395  0.6633
14446TIP3    H164829   0.805   4.604   1.765 -0.4088 -2.1175  0.9615
14446TIP3    H264830   0.836   4.706   1.873  0.1478 -0.3582 -0.8107
14447TIP3   OH264831   5.533   0.494   1.858 -0.1784  0.4887 -0.3021
14447TIP3    H164832   5.585   0.564   1.818  2.2653 -1.2710 -0.4373
14447TIP3    H264833   5.540   0.510   1.952 -0.3290  0.8853 -0.3570
14448TIP3   OH264834   4.497   0.566   4.273 -0.5961 -0.3606 -0.3633
14448TIP3    H164835   4.590   0.589   4.281 -0.4906 -0.6283 -0.7314
14448TIP3    H264836   4.467   0.615   4.196 -1.3692  1.5496  1.0819
14449TIP3   OH264837   4.272   6.177   3.541  0.3606  0.3353  0.4957
14449TIP3    H164838   4.360   6.199   3.573  0.4868  1.4316 -0.5580
14449TIP3    H264839   4.283   6.091   3.500  0.8283  0.2368  0.8104
14450TIP3   OH264840   2.811   6.652  14.116  0.2443  0.1054 -0.3990
14450TIP3    H164841   2.765   6.628  14.196 -0.6736  0.9735 -0.6401
14450TIP3    H264842   2.903   6.634  14.135 -0.1043 -0.9396  0.3708
14451TIP3   OH264843   5.590   1.123  15.799  0.0364 -0.2153  1.0034
14451TIP3    H164844   5.663   1.129  15.738  1.3986 -1.2066  2.4486
14451TIP3    H264845   5.515   1.159  15.751  0.8988 -1.3929 -1.3855
14452TIP3   OH264846   6.494   2.502  10.159  0.2693  0.2506  0.4643
14452TIP3    H164847   6.428   2.491  10.228  0.2676  1.6346  0.7041
14452TIP3    H264848   6.570   2.540  10.204  0.6803  0.1117 -0.0948
14453TIP3   OH264849   4.865   6.403   1.789  0.3898 -0.0146  0.3080
14453TIP3    H164850   4.835   6.389   1.699  0.3237 -1.5645  0.5542
14453TIP3    H264851   4.812   6.476   1.821 -2.0064 -1.5898  0.1876
14454TIP3   OH264852   2.771   0.459  12.608  0.1278 -0.1692  0.0810
14454TIP3    H164853   2.764   0.420  12.521 -0.5878  1.1869 -0.4986
14454TIP3    H264854   2.729   0.396  12.667  0.4789 -1.0189 -0.5704
14455TIP3   OH264855   5.101   3.089  11.548 -0.2305 -0.4456 -0.1731
14455TIP3    H164856   5.187   3.117  11.580 -0.0527 -1.6843  0.5030
14455TIP3    H264857   5.077   3.016  11.605 -1.4349 -0.5547 -0.7883
14456TIP3   OH264858   0.883   1.488   1.721  0.3115 -0.4607 -0.3069
14456TIP3    H164859   0.836   1.552   1.668  0.1354 -0.8211 -0.5863
14456TIP3    H264860   0.841   1.405   1.702  2.7022 -1.2825 -2.6076
14457TIP3   OH264861   2.546   3.346  15.665  0.0373 -0.0116  0.2119
14457TIP3    H164862   2.592   3.392  15.595  1.8816  0.1101  1.4167
14457TIP3    H264863   2.572   3.393  15.745 -1.0524 -0.8583  1.0983
14458TIP3   OH264864   1.783   2.784  12.037  0.1833  0.3758  0.0501
14458TIP3    H164865   1.727   2.741  12.101  0.4921 -0.1563 -0.0254
14458TIP3    H264866   1.726   2.847  11.993 -1.3393 -2.3694 -2.3051
14459TIP3   OH264867   3.896   0.142  16.185  0.0987  0.2377 -0.1673
14459TIP3    H164868   3.927   0.195  16.112  0.6449  0.1333 -0.0101
14459TIP3    H264869   3.929   0.054  16.167  0.3666  0.2457  0.2918
14460TIP3   OH264870   0.469   6.802   1.304 -0.1478 -0.0756 -0.1189
14460TIP3    H164871   0.537   6.826   1.241 -2.1501  1.8811 -1.7177
14460TIP3    H264872   0.429   6.724   1.267 -0.3027  0.1654 -0.4709
14461TIP3   OH264873   2.013   4.280   3.994  0.1927 -0.2352 -0.1424
14461TIP3    H164874   1.990   4.220   3.922 -0.6173 -0.4906  0.3127
14461TIP3    H264875   2.060   4.351   3.952 -0.1301 -0.4656 -0.9091
14462TIP3   OH264876   2.589   0.908   2.188  0.3521 -0.0465 -0.1854
14462TIP3    H164877   2.627   0.878   2.270 -2.0603  0.5995  1.2706
14462TIP3    H264878   2.568   1.000   2.203 -0.7887 -0.1009 -1.2519
14463TIP3   OH264879   0.831   5.869  11.953  0.7004  0.1265 -0.2504
14463TIP3    H164880   0.891   5.831  11.889  1.2138  0.1182  0.2274
14463TIP3    H264881   0.869   5.847  12.038  0.7463  1.2518  0.0469
14464TIP3   OH264882   3.695   2.904   1.788  1.2306  0.1133 -0.4091
14464TIP3    H164883   3.784   2.887   1.757  1.6359  0.8520  0.3032
14464TIP3    H264884   3.690   2.857   1.872  1.1151  0.4580 -0.2203
14465TIP3   OH264885   4.874   5.039  16.530  0.4905 -0.2032  0.6161
14465TIP3    H164886   4.866   5.131  16.505 -0.1303  0.6534  3.5410
14465TIP3    H264887   4.966   5.017  16.513  0.7026  1.0390  0.0598
14466TIP3   OH264888   1.072   1.016   1.244  0.5102  0.3718 -0.2376
14466TIP3    H164889   1.007   1.020   1.174 -1.2133  2.8954  1.3299
14466TIP3    H264890   1.040   0.948   1.303  0.6887 -0.1178 -0.6954
14467TIP3   OH264891   5.987   1.340  11.887  0.0005 -0.0868  0.0020
14467TIP3    H164892   6.028   1.395  11.820  1.1003  0.6095  1.2057
14467TIP3    H264893   5.943   1.271  11.837 -0.1867  1.0536 -1.4736
14468TIP3   OH264894   3.106   4.411  11.403  0.3468  0.4678  0.4221
14468TIP3    H164895   3.092   4.396  11.310  1.4840  1.1176  0.1347
14468TIP3    H264896   3.031   4.369  11.445 -0.6632  0.9352 -0.8280
14469TIP3   OH264897   1.412   4.624   0.291 -0.0002  0.1248 -0.1172
14469TIP3    H164898   1.406   4.528   0.287  0.4017  0.0790  0.3104
14469TIP3    H264899   1.355   4.654   0.221 -0.7319 -0.4155  0.2349
14470TIP3   OH264900   5.896   6.578   4.096  0.2785  0.0286  0.7944
14470TIP3    H164901   5.983   6.567   4.057  1.0758  0.7650  2.2794
14470TIP3    H264902   5.912   6.579   4.190 -0.9988  2.7827  1.0821
14471TIP3   OH264903   5.582   3.928  13.895  0.1855  0.3081 -0.1348
14471TIP3    H164904   5.517   3.973  13.950  0.9320  1.1881  0.0416
14471TIP3    H264905   5.600   3.989  13.824  1.3283  0.3724  0.1925
14472TIP3   OH264906   3.875   3.606  10.760  0.5539  0.3016  0.3688
14472TIP3    H164907   3.954   3.647  10.725 -0.2739  1.0621 -0.6980
14472TIP3    H264908   3.803   3.655  10.720 -0.4667 -0.7492  0.8513
14473TIP3   OH264909   4.698   2.557  16.437  0.5112 -0.3592  0.3354
14473TIP3    H164910   4.633   2.499  16.477  0.1576  0.9479  1.7632
14473TIP3    H264911   4.744   2.502  16.375 -1.3604 -1.5691 -0.0663
14474TIP3   OH264912   6.488   6.586   4.438 -0.3915 -0.1457  0.4385
14474TIP3    H164913   6.520   6.559   4.523 -0.1437 -2.1241 -0.2421
14474TIP3    H264914   6.538   6.534   4.375 -2.5661 -0.9121 -0.7883
14475TIP3   OH264915   3.156   1.856  13.615  0.7907 -0.0105  0.0383
14475TIP3    H164916   3.160   1.760  13.616  0.3707 -0.0424 -0.8781
14475TIP3    H264917   3.072   1.877  13.576  0.5836  0.7475  0.8445
14476TIP3   OH264918   6.821   6.384  15.555  0.1762  0.4172  0.1006
14476TIP3    H164919   6.788   6.403  15.467  1.6292  1.8397 -0.1872
14476TIP3    H264920   6.855   6.468  15.586 -1.3344  0.2490  2.5238
14477TIP3   OH264921   5.086   6.711  11.848  0.4023  0.5045 -0.3333
14477TIP3    H164922   4.999   6.742  11.874  0.9652  1.5394  0.4034
14477TIP3    H264923   5.137   6.791  11.836  1.5313 -0.1029  0.2647
14478TIP3   OH264924   4.657   1.977   4.086 -0.3752  0.3325  0.2586
14478TIP3    H164925   4.623   1.958   3.998 -0.0181  1.4145 -0.1208
14478TIP3    H264926   4.738   1.925   4.091  0.0714  0.9429 -0.3939
14479TIP3   OH264927   4.499   4.698  15.400  0.2268  0.1492  0.0559
14479TIP3    H164928   4.454   4.614  15.402 -1.5550  0.9692 -1.5752
14479TIP3    H264929   4.587   4.678  15.368 -0.0410 -1.1311  0.0886
14480TIP3   OH264930   5.761   0.515  11.881 -0.9558  0.2262  0.0097
14480TIP3    H164931   5.855   0.504  11.895 -0.7888  0.5911 -0.7654
14480TIP3    H264932   5.751   0.511  11.786 -1.5410  1.4984 -0.0059
14481TIP3   OH264933   3.073   0.996   4.328  0.3360 -0.7889 -0.3061
14481TIP3    H164934   3.126   0.916   4.330  2.1785  0.3381 -1.1823
14481TIP3    H264935   2.992   0.970   4.285 -0.4455 -2.8509  2.1020
14482TIP3   OH264936   1.911   6.652  12.360 -0.1161  0.1700 -0.0087
14482TIP3    H164937   1.817   6.665  12.351  0.0258  0.9659 -0.4654
14482TIP3    H264938   1.945   6.736  12.391  0.5349  0.1385 -0.5952
14483TIP3   OH264939   0.945   3.981   5.615  0.2802 -0.3880  0.2360
14483TIP3    H164940   0.957   4.020   5.702  2.6196  0.2065 -0.2871
14483TIP3    H264941   0.998   3.902   5.617 -0.0629 -0.6375 -0.5033
14484TIP3   OH264942   3.242   4.520  12.092  0.4948 -0.0136 -0.2658
14484TIP3    H164943   3.226   4.429  12.067 -0.9553  0.3934 -0.9797
14484TIP3    H264944   3.331   4.538  12.063  0.2135 -0.7273 -1.6658
14485TIP3   OH264945   4.593   5.777   2.053 -0.3139  0.0081  0.5416
14485TIP3    H164946   4.602   5.746   1.962 -1.2158  0.4470  0.2918
14485TIP3    H264947   4.601   5.872   2.046 -0.5863  0.0560  0.8950
14486TIP3   OH264948   3.007   3.466  12.858 -0.5047  0.1296  0.3542
14486TIP3    H164949   3.049   3.435  12.778 -1.0072 -0.7630  0.4239
14486TIP3    H264950   3.025   3.560  12.860  1.2793 -0.1826  0.2659
14487TIP3   OH264951   5.287   3.893   3.302  0.0858  0.3123  0.2734
14487TIP3    H164952   5.194   3.913   3.313  0.1648  0.3487  0.9177
14487TIP3    H264953   5.304   3.823   3.366  0.2152 -0.5947 -0.7192
14488TIP3   OH264954   6.444   3.965  12.628 -0.0281  0.2404 -0.2260
14488TIP3    H164955   6.423   3.921  12.545  0.2732 -0.1984 -0.0734
14488TIP3    H264956   6.488   4.045  12.602  0.6194 -0.1929 -0.4803
14489TIP3   OH264957   1.532   0.252   6.249  0.0265 -0.2209 -0.1172
14489TIP3    H164958   1.509   0.163   6.274 -1.8353  0.2378 -0.0400
14489TIP3    H264959   1.452   0.289   6.214  0.5070  1.7034  0.6634
14490TIP3   OH264960   6.417   2.530  16.244  0.0193 -0.6716  0.3730
14490TIP3    H164961   6.359   2.514  16.169  0.6701  0.3759 -0.3913
14490TIP3    H264962   6.499   2.487  16.220 -0.3330 -1.9261  1.3340
14491TIP3   OH264963   0.556   2.392  15.160 -0.2256 -0.0274  0.1290
14491TIP3    H164964   0.496   2.443  15.106 -1.4542 -0.6682  0.8599
14491TIP3    H264965   0.625   2.364  15.098 -1.0810  0.0715 -0.8956
14492TIP3   OH264966   4.403   3.342   4.158 -0.1313  0.4229  0.4093
14492TIP3    H164967   4.469   3.295   4.209  1.1302  2.5754  0.9266
14492TIP3    H264968   4.338   3.276   4.136  1.6657 -1.6058  0.7635
14493TIP3   OH264969   2.570   6.330   2.789 -0.4261  0.1243 -0.4635
14493TIP3    H164970   2.515   6.408   2.779  1.0944  1.2364 -0.5736
14493TIP3    H264971   2.614   6.321   2.704 -1.1129 -1.2993 -0.6917
14494TIP3   OH264972   5.784   5.715  16.853 -0.6124  0.3211  0.1371
14494TIP3    H164973   5.716   5.781  16.842 -0.4406  0.5365  0.3560
14494TIP3    H264974   5.782   5.665  16.772 -1.6952 -0.2993  0.5358
14495TIP3   OH264975   5.696   4.616   2.090  0.0218  0.1598 -0.0163
14495TIP3    H164976   5.740   4.609   2.005  1.4935  3.9687  0.2178
14495TIP3    H264977   5.746   4.558   2.147  3.2920  2.2986 -0.4064
14496TIP3   OH264978   6.821   5.799  16.856 -0.1094 -0.0679  0.0718
14496TIP3    H164979   6.728   5.788  16.876 -0.2243  0.3921 -0.1932
14496TIP3    H264980   6.842   5.725  16.799  0.1367 -1.1885  1.5596
14497TIP3   OH264981   2.418   5.301  13.445 -0.0914  0.3625 -0.5772
14497TIP3    H164982   2.447   5.391  13.428 -0.4337  0.5883  0.0054
14497TIP3    H264983   2.414   5.294  13.541  0.8261 -0.5640 -0.5856
14498TIP3   OH264984   0.045   1.991   3.485 -0.1906 -0.1980 -0.0932
14498TIP3    H164985  -0.042   1.989   3.525 -0.7669  2.1618 -1.0614
14498TIP3    H264986   0.030   2.018   3.395  1.4175 -1.7501 -0.9064
14499TIP3   OH264987   4.052   1.100   0.390  0.1610  0.0633  0.0338
14499TIP3    H164988   3.978   1.106   0.449  0.6915  1.5850  0.6018
14499TIP3    H264989   4.013   1.083   0.304 -0.6907 -1.0031  0.6030
14500TIP3   OH264990   1.756   5.147  13.234 -0.3517  0.0204  0.0574
14500TIP3    H164991   1.752   5.228  13.285  1.4008  0.2888 -0.1538
14500TIP3    H264992   1.837   5.105  13.262 -0.6547 -1.0957 -0.6783
14501TIP3   OH264993   6.156   3.704  17.111  0.2358 -0.1555  0.0014
14501TIP3    H164994   6.176   3.664  17.027  0.2087  1.1068 -0.6420
14501TIP3    H264995   6.093   3.774  17.090  0.6244  0.5168  0.9816
14502TIP3   OH264996   4.260   2.280   1.272 -0.2301  0.3465  0.4629
14502TIP3    H164997   4.185   2.313   1.225  0.2783 -1.1575 -1.5363
14502TIP3    H264998   4.324   2.352   1.271 -0.8082  0.8601  0.2527
14503TIP3   OH264999   0.695   4.217  15.040  0.0090  0.1674 -0.4977
14503TIP3    H165000   0.787   4.202  15.059  0.3010  2.1399 -0.0774
14503TIP3    H265001   0.656   4.237  15.126 -1.8870 -4.9060  0.1634
14504TIP3   OH265002   3.856   5.205   2.444  1.0669 -0.3789  0.2162
14504TIP3    H165003   3.809   5.197   2.361  0.1033 -0.6662  0.7713
14504TIP3    H265004   3.844   5.120   2.487  1.6438 -0.2696  0.6067
14505TIP3   OH265005   1.638   0.915  11.675  0.2339  0.8350  0.0587
14505TIP3    H165006   1.690   0.974  11.622 -0.2363  1.3846  0.2051
14505TIP3    H265007   1.577   0.874  11.613  1.5722 -0.6811 -0.3285
14506TIP3   OH265008   1.864   4.787   3.036 -0.5059  0.2381  0.4422
14506TIP3    H165009   1.917   4.864   3.017  0.4902  0.1168  2.4506
14506TIP3    H265010   1.881   4.768   3.128 -2.2927 -1.1922  0.5457
14507TIP3   OH265011   1.845   2.606   5.470 -0.3496  0.3426 -0.2585
14507TIP3    H165012   1.885   2.616   5.556  0.0803  1.5826 -0.5839
14507TIP3    H265013   1.919   2.599   5.410 -0.6129  1.2791 -0.7138
14508TIP3   OH265014   5.603   1.331   0.645 -0.2553  0.3872 -0.2829
14508TIP3    H165015   5.677   1.272   0.626  0.1049  0.7128  0.0746
14508TIP3    H265016   5.638   1.392   0.710 -1.2823 -0.3580  1.0168
14509TIP3   OH265017   2.735   2.903   0.613 -0.0443  0.0890 -0.3603
14509TIP3    H165018   2.802   2.953   0.566 -0.8563  2.4165  0.8076
14509TIP3    H265019   2.654   2.919   0.563 -0.1074 -1.2228 -0.7290
14510TIP3   OH265020   4.355   4.512   3.904  0.3973  0.3389  0.2777
14510TIP3    H165021   4.271   4.503   3.860  0.7154  1.8325 -0.6954
14510TIP3    H265022   4.336   4.565   3.982  0.1866 -0.6580  0.9302
14511TIP3   OH265023   0.790   1.646  13.635  0.1810 -0.3977  0.3758
14511TIP3    H165024   0.718   1.611  13.583  1.1978  0.8076 -2.0049
14511TIP3    H265025   0.833   1.569  13.672 -1.4067 -1.2084  0.6478
14512TIP3   OH265026   1.955   0.724   5.512  0.0132 -0.3491  0.3298
14512TIP3    H165027   1.936   0.692   5.424  0.8749  0.3111 -0.1123
14512TIP3    H265028   1.871   0.757   5.544 -0.1320  0.1775 -0.5717
14513TIP3   OH265029   6.674   1.819   2.995  0.0250  0.1346  0.0547
14513TIP3    H165030   6.634   1.836   2.910  2.4159  0.9192 -1.0306
14513TIP3    H265031   6.633   1.739   3.026 -1.7242  0.4567 -1.3020
14514TIP3   OH265032   1.035   1.716  11.977 -0.0226 -0.0992  0.1422
14514TIP3    H165033   1.093   1.722  12.052 -0.5604 -0.7199  0.6233
14514TIP3    H265034   1.077   1.769  11.909  2.3489 -2.3502 -0.3338
14515TIP3   OH265035   1.923   4.543  11.390 -0.7520  0.5231  0.2514
14515TIP3    H165036   1.869   4.582  11.459 -0.8320 -0.0616  0.5181
14515TIP3    H265037   1.949   4.458  11.424 -1.9935 -0.4013 -1.0085
14516TIP3   OH265038   3.465   2.659  16.209  0.1996  0.5952  0.3530
14516TIP3    H165039   3.442   2.623  16.123 -0.6119  2.5148 -0.2834
14516TIP3    H265040   3.415   2.605  16.271  0.6579 -0.6970 -0.3567
14517TIP3   OH265041   1.702   1.688   3.983 -0.0534 -0.4191  0.4017
14517TIP3    H165042   1.638   1.625   4.018  0.4998 -1.8651 -1.0622
14517TIP3    H265043   1.650   1.763   3.955 -0.7269 -0.1400  2.2645
14518TIP3   OH265044   3.444   5.251   3.232  0.2011  0.0243 -0.1571
14518TIP3    H165045   3.514   5.196   3.268  0.5208  0.9728  0.7332
14518TIP3    H265046   3.479   5.283   3.149  0.7185  0.2664  0.1511
14519TIP3   OH265047   1.596   6.783   2.108 -0.3759 -0.0768 -0.6216
14519TIP3    H165048   1.565   6.807   2.020 -0.2851  1.2711 -0.2968
14519TIP3    H265049   1.525   6.729   2.144 -2.1309  2.3394 -0.1701
14520TIP3   OH265050   2.022   0.828  12.459 -0.2896 -0.6360 -0.1504
14520TIP3    H165051   2.036   0.911  12.413 -1.4515  0.4495  1.3444
14520TIP3    H265052   2.110   0.797  12.480  0.1570  0.4553 -0.3362
14521TIP3   OH265053   1.499   4.456   5.562 -0.0906  0.4078  0.2009
14521TIP3    H165054   1.498   4.465   5.657 -1.4941  0.3215  0.2052
14521TIP3    H265055   1.514   4.362   5.547 -0.0433  0.3955  0.3248
14522TIP3   OH265056   1.785   4.178  15.365 -0.1645 -1.0638 -0.0535
14522TIP3    H165057   1.843   4.102  15.375 -0.6088 -1.9245 -2.9807
14522TIP3    H265058   1.698   4.146  15.391 -0.2671 -1.4355 -0.8389
14523TIP3   OH265059   5.429   6.177  14.159 -0.2566  0.0354 -0.3462
14523TIP3    H165060   5.439   6.265  14.196  1.8348  0.5404 -1.9146
14523TIP3    H265061   5.339   6.175  14.126  0.0701  2.1583 -1.5500
14524TIP3   OH265062   6.254   6.015   3.035  0.2103 -0.8320 -0.1348
14524TIP3    H165063   6.335   6.046   2.996 -0.6732  0.8603 -0.7387
14524TIP3    H265064   6.250   6.058   3.120 -0.3276 -0.4005 -0.3679
14525TIP3   OH265065   1.470   5.149  12.062 -0.2674 -0.0441  0.1691
14525TIP3    H165066   1.565   5.139  12.072 -0.3072 -0.5138  0.0679
14525TIP3    H265067   1.437   5.155  12.152 -0.1686 -0.0923  0.2085
14526TIP3   OH265068   0.165   2.768  16.110  0.0544  0.1841 -0.1214
14526TIP3    H165069   0.168   2.720  16.193  1.0434  1.2175  0.4737
14526TIP3    H265070   0.074   2.761  16.081  0.3193 -2.7507 -0.5298
14527TIP3   OH265071   3.967   4.950   3.212  0.0990  0.2808 -0.0045
14527TIP3    H165072   3.916   4.880   3.171 -2.0803  1.2966  0.8227
14527TIP3    H265073   3.960   5.024   3.151 -0.7716  0.9051  0.8161
14528TIP3   OH265074   6.370   0.975  12.460  0.0833  0.4213  1.2188
14528TIP3    H165075   6.437   0.925  12.506  0.5527 -0.7316 -0.5964
14528TIP3    H265076   6.387   1.066  12.485  1.0189 -0.0433  2.3888
14529TIP3   OH265077   5.592   6.695   2.195  0.2665  0.3299 -0.1399
14529TIP3    H165078   5.553   6.773   2.233 -0.1834  0.0621 -0.0384
14529TIP3    H265079   5.682   6.694   2.228  0.1193  0.5318  0.2713
14530TIP3   OH265080   3.182   0.308  15.971 -0.4095 -1.3171 -0.5182
14530TIP3    H165081   3.245   0.309  16.043 -0.9571 -0.1376 -0.0327
14530TIP3    H265082   3.232   0.275  15.896  0.8487 -0.2037 -0.2074
14531TIP3   OH265083   5.916   2.348   1.412  0.0909 -0.0094 -0.2418
14531TIP3    H165084   5.882   2.311   1.331  0.2252 -0.6040 -0.0370
14531TIP3    H265085   5.915   2.274   1.474  0.1038  0.4030  0.2592
14532TIP3   OH265086   2.454   5.782   0.411 -0.4313 -0.0156 -0.0709
14532TIP3    H165087   2.453   5.814   0.321 -1.9622  0.2930  0.0295
14532TIP3    H265088   2.544   5.755   0.426 -0.0793  0.2388 -1.5865
14533TIP3   OH265089   0.867   2.979  14.589 -0.0903 -0.0353 -0.6251
14533TIP3    H165090   0.957   3.004  14.610 -0.2640  1.4564 -1.4829
14533TIP3    H265091   0.814   3.053  14.619 -1.0507 -0.9386 -0.0495
14534TIP3   OH265092   3.721   6.810  15.080  0.3601  0.0240 -0.4993
14534TIP3    H165093   3.757   6.857  15.004  0.4121 -2.9416 -2.4394
14534TIP3    H265094   3.628   6.831  15.079  0.6943  1.7571  0.0440
14535TIP3   OH265095   1.982   1.831  16.202  0.0348  0.3991 -0.5187
14535TIP3    H165096   2.051   1.802  16.143  1.3447  1.3208  0.4965
14535TIP3    H265097   2.008   1.919  16.229  0.6430 -0.6455  2.9349
14536TIP3   OH265098   6.302   2.246  11.310 -0.1399  0.1203 -0.5432
14536TIP3    H165099   6.334   2.194  11.384 -1.2705  1.1395  0.7242
14536TIP3    H265100   6.247   2.185  11.260 -0.2848 -0.2825  0.0951
14537TIP3   OH265101   2.380   3.616   0.550 -0.4398 -0.2646 -0.0033
14537TIP3    H165102   2.300   3.586   0.595 -1.3687 -0.7323 -1.8629
14537TIP3    H265103   2.451   3.569   0.594 -0.9901  1.0950  2.5317
14538TIP3   OH265104   6.554   4.419  15.520 -0.4842 -0.0049  0.3431
14538TIP3    H165105   6.568   4.330  15.553 -0.0986 -0.5687 -1.2409
14538TIP3    H265106   6.466   4.417  15.483  0.2724 -0.3974 -1.5758
14539TIP3   OH265107   4.344   2.239   0.726  0.0048  0.2321  0.3994
14539TIP3    H165108   4.286   2.208   0.796 -1.4943  0.3068 -0.7736
14539TIP3    H265109   4.389   2.160   0.696  0.0566  0.0731  0.8758
14540TIP3   OH265110   3.932   6.116  11.452  0.0740  0.1191  0.1784
14540TIP3    H165111   3.995   6.154  11.513  0.1780 -0.0537  0.1812
14540TIP3    H265112   3.849   6.118  11.498 -0.0699  1.0199 -0.0991
14541TIP3   OH265113   5.788   2.084   3.288  0.1002 -0.5042 -0.2094
14541TIP3    H165114   5.810   2.146   3.358 -0.4281 -1.3705  0.7391
14541TIP3    H265115   5.872   2.066   3.246  0.0905  1.9662 -1.4782
14542TIP3   OH265116   3.542   5.803  13.314 -0.1782 -0.0478 -0.2502
14542TIP3    H165117   3.557   5.714  13.346 -1.9129 -0.2617  0.0602
14542TIP3    H265118   3.560   5.859  13.389 -0.8193 -0.2814  0.0811
14543TIP3   OH265119   0.995   2.494  12.731 -0.0650 -0.2434 -0.2355
14543TIP3    H165120   1.068   2.460  12.680 -0.3941  0.4847 -1.2288
14543TIP3    H265121   0.934   2.420  12.738  0.2789 -0.5388 -0.3443
14544TIP3   OH265122   5.493   3.992   6.089  0.0353  0.2145 -0.2866
14544TIP3    H165123   5.466   3.967   6.177 -0.1865  0.3201 -0.3246
14544TIP3    H265124   5.518   4.084   6.097  3.3380 -0.6048  0.4396
14545TIP3   OH265125   4.242   6.136  13.893 -0.3252 -0.1813  0.1246
14545TIP3    H165126   4.163   6.152  13.946 -0.5273 -2.2118  0.5417
14545TIP3    H265127   4.265   6.045  13.913  0.7775 -0.3625 -1.7726
14546TIP3   OH265128   5.353   6.562   4.154  0.3471  0.1045  0.0220
14546TIP3    H165129   5.416   6.587   4.221  1.7088 -0.1851 -1.1041
14546TIP3    H265130   5.405   6.554   4.074 -1.0203 -0.7477 -0.8201
14547TIP3   OH265131   0.606   0.571   1.166  0.1850  0.0282  0.5635
14547TIP3    H165132   0.658   0.597   1.090 -0.9136 -0.1345 -0.2614
14547TIP3    H265133   0.600   0.475   1.158 -0.8087  0.1051  0.2576
14548TIP3   OH265134   3.858   5.911   2.560  0.4029  0.0604 -0.5347
14548TIP3    H165135   3.806   5.832   2.573  1.0271 -0.1760  0.7677
14548TIP3    H265136   3.828   5.970   2.629  0.9935  0.3759 -0.5414
14549TIP3   OH265137   3.760   6.536   5.728 -0.0787  0.1115  0.0431
14549TIP3    H165138   3.805   6.502   5.651  1.3488 -3.0813  2.0540
14549TIP3    H265139   3.667   6.536   5.704  0.1042 -2.9962 -1.0511
14550TIP3   OH265140   0.751   1.062  14.239 -0.1386  0.0955  0.6776
14550TIP3    H165141   0.664   1.056  14.199 -0.5255 -1.8926  1.6932
14550TIP3    H265142   0.810   1.080  14.166 -1.0752 -1.3042 -0.4689
14551TIP3   OH265143   2.183   4.804   3.704  0.6892  0.3390  0.0278
14551TIP3    H165144   2.226   4.776   3.785 -1.2803 -1.5692  0.5134
14551TIP3    H265145   2.105   4.852   3.734  1.0241  1.4237 -0.7857
14552TIP3   OH265146   4.138   4.083   5.275 -0.2524 -0.2030  0.4020
14552TIP3    H165147   4.112   4.175   5.281  0.0268 -0.1546  1.0149
14552TIP3    H265148   4.177   4.075   5.188 -3.0515 -0.5060 -0.9050
14553TIP3   OH265149   2.612   1.463  12.893 -0.8493  0.2943  0.1018
14553TIP3    H165150   2.534   1.472  12.948 -0.9336 -2.4596  0.5582
14553TIP3    H265151   2.610   1.372  12.864  2.9631 -0.3044  1.2744
14554TIP3   OH265152   3.289   1.054   4.975 -0.0564 -0.1872  0.1709
14554TIP3    H165153   3.368   1.081   4.928  0.7729 -2.2274  0.3202
14554TIP3    H265154   3.272   1.125   5.037  1.0794  0.7257 -0.5264
14555TIP3   OH265155   5.727   3.475  12.473 -0.0240  0.0396  0.1540
14555TIP3    H165156   5.770   3.400  12.432  3.4457  0.9038  1.8524
14555TIP3    H265157   5.750   3.468  12.566 -0.9897  2.3372  0.6484
14556TIP3   OH265158   1.257   6.718   0.734  0.2127 -0.2793 -0.0271
14556TIP3    H165159   1.301   6.771   0.801  0.3029 -1.1631  0.6240
14556TIP3    H265160   1.329   6.686   0.678  0.0091  1.9652 -1.7205
14557TIP3   OH265161   2.967   3.760   1.562  0.3060 -0.2209 -0.1143
14557TIP3    H165162   2.996   3.779   1.652 -0.7318  0.4597  0.0910
14557TIP3    H265163   2.994   3.836   1.512  0.8735 -0.5967 -0.3908
14558TIP3   OH265164   4.756   0.965  15.340 -0.2164 -0.2707 -0.3335
14558TIP3    H165165   4.717   1.013  15.413  0.1387  0.5384 -0.6679
14558TIP3    H265166   4.688   0.903  15.313 -0.0812 -1.1326  1.1642
14559TIP3   OH265167   2.150   2.023   5.043 -0.2883  0.1428  0.1755
14559TIP3    H165168   2.089   1.949   5.035  0.5825 -0.6471  0.6333
14559TIP3    H265169   2.235   1.982   5.061  0.1194  1.2832  0.9249
14560TIP3   OH265170   6.354   0.759  14.371  0.0105  0.0163 -0.7069
14560TIP3    H165171   6.426   0.797  14.321  0.1542 -0.4999 -0.8992
14560TIP3    H265172   6.374   0.666  14.376  0.0503  0.0788  0.4250
14561TIP3   OH265173   3.950   1.703  14.222  0.1593 -0.4454  0.3773
14561TIP3    H165174   3.863   1.708  14.183  1.0480 -1.1435 -1.8429
14561TIP3    H265175   3.964   1.610  14.238  1.4236 -0.6954 -1.7225
14562TIP3   OH265176   3.291   1.223  13.131  0.3752 -0.3214 -0.3139
14562TIP3    H165177   3.201   1.190  13.132 -0.0850  0.8476 -0.8917
14562TIP3    H265178   3.345   1.147  13.153 -0.7460 -1.0633 -0.0489
14563TIP3   OH265179   1.905   2.525   2.488 -0.1892 -0.0869 -0.4147
14563TIP3    H165180   1.873   2.609   2.521 -1.2727 -0.2273 -1.0325
14563TIP3    H265181   1.890   2.464   2.560  1.7130  0.4314  0.4899
14564TIP3   OH265182   5.688   1.487  12.373 -0.1598  0.5753  0.0870
14564TIP3    H165183   5.717   1.555  12.434 -2.7664  1.5329  0.3882
14564TIP3    H265184   5.692   1.406  12.423 -1.4136  1.2206  1.2813
14565TIP3   OH265185   0.370   4.289  11.419  0.5498  0.4017 -0.1928
14565TIP3    H165186   0.355   4.379  11.389  2.5543  0.9023  0.1157
14565TIP3    H265187   0.428   4.299  11.495  0.4605 -1.1339  0.1019
14566TIP3   OH265188   6.184   2.767  11.017  0.0056 -0.5319  0.3822
14566TIP3    H165189   6.095   2.736  11.004 -0.7834  0.6634  2.3969
14566TIP3    H265190   6.212   2.799  10.931 -2.1819  0.6935  0.0603
14567TIP3   OH265191   2.454   4.143   5.872  0.5461 -0.8279  0.0975
14567TIP3    H165192   2.520   4.171   5.809 -0.1172 -1.5530 -0.9441
14567TIP3    H265193   2.503   4.095   5.939  1.3316  0.4508  0.4797
14568TIP3   OH265194   4.277   4.737   2.314  0.5280  0.1358  0.2846
14568TIP3    H165195   4.365   4.703   2.297  0.8146 -0.0920  2.0676
14568TIP3    H265196   4.292   4.829   2.339  0.0576  0.6721 -1.3091
14569TIP3   OH265197   1.086   0.924  13.215 -0.0094  0.1454 -0.1904
14569TIP3    H165198   1.145   1.000  13.206  1.4097 -0.8742  0.2123
14569TIP3    H265199   1.039   0.940  13.297  2.8647 -1.0261  1.8687
14570TIP3   OH265200   3.424   1.279   4.061  0.4936  0.7374 -0.3930
14570TIP3    H165201   3.343   1.287   4.010 -0.0646 -0.4611  0.2724
14570TIP3    H265202   3.473   1.209   4.018  0.2874  0.1272  0.3417
14571TIP3   OH265203   2.438   0.514   4.925  0.3838  0.3500  0.1237
14571TIP3    H165204   2.394   0.431   4.904 -0.3193  0.2100  1.9766
14571TIP3    H265205   2.529   0.499   4.901  0.5213 -1.4521  1.5388
14572TIP3   OH265206   2.294   6.790   3.688 -0.0482 -0.4721  0.0872
14572TIP3    H165207   2.297   6.831   3.774  2.0123 -0.5175  0.1008
14572TIP3    H265208   2.269   6.860   3.628  0.3148  0.0213  0.5071
14573TIP3   OH265209   4.284   3.215  13.388 -0.0987  0.2636  0.5456
14573TIP3    H165210   4.249   3.195  13.302 -0.3353 -0.2655  0.7584
14573TIP3    H265211   4.309   3.307  13.384  0.2617  0.1411 -0.2080
14574TIP3   OH265212   4.182   1.527  15.455 -0.7189  0.1158 -0.0699
14574TIP3    H165213   4.109   1.586  15.470 -1.1455 -0.4107 -0.0630
14574TIP3    H265214   4.158   1.477  15.377  0.0367  0.5621 -0.6113
14575TIP3   OH265215   5.436   0.098   6.125  0.6174 -0.4364  0.9576
14575TIP3    H165216   5.365   0.158   6.144  0.0882 -1.0639  0.9881
14575TIP3    H265217   5.416   0.019   6.176  0.9094 -0.9183  0.3411
14576TIP3   OH265218   6.029   3.358   2.730  0.1160 -0.3251 -0.1365
14576TIP3    H165219   6.011   3.268   2.758  1.1218 -0.4797  0.0657
14576TIP3    H265220   6.030   3.354   2.635  0.6916 -0.6438 -0.1203
14577TIP3   OH265221   6.559   6.840  15.032  0.1393 -0.0718  0.4637
14577TIP3    H165222   6.612   6.771  15.072  1.6805 -0.5029 -2.0885
14577TIP3    H265223   6.621   6.911  15.016 -0.6891  0.5486 -0.0530
14578TIP3   OH265224   3.041   2.083   4.678 -0.3983 -0.0215  0.1470
14578TIP3    H165225   3.111   2.030   4.716  0.6074  0.7068 -0.6130
14578TIP3    H265226   2.999   2.025   4.614  0.8836  0.1481 -0.8881
14579TIP3   OH265227   3.796   6.329  13.214  0.9971 -0.2393 -0.2400
14579TIP3    H165228   3.701   6.337  13.204  0.9649 -1.0258 -0.5922
14579TIP3    H265229   3.830   6.416  13.192  0.4598 -0.3022 -1.3827
14580TIP3   OH265230   2.254   1.234   0.509 -0.2538  0.3287 -0.6481
14580TIP3    H165231   2.329   1.181   0.535 -1.6826 -1.0382  0.9124
14580TIP3    H265232   2.229   1.200   0.423 -0.8016 -1.1895  0.0812
14581TIP3   OH265233   2.848   4.880  13.015  0.2366 -0.1993 -0.8200
14581TIP3    H165234   2.933   4.909  13.047 -0.5572  1.4761 -0.1242
14581TIP3    H265235   2.861   4.787  12.994  1.5158 -0.7188  1.8480
14582TIP3   OH265236   4.471   3.592   0.569  0.4313  0.2218 -0.1668
14582TIP3    H165237   4.515   3.589   0.654  1.3717 -0.5255 -0.6602
14582TIP3    H265238   4.378   3.586   0.590  0.5947  0.9722  0.8509
14583TIP3   OH265239   1.841   2.080   3.114  0.2044  0.8792  0.2151
14583TIP3    H165240   1.753   2.087   3.151 -0.2276  1.3026 -0.8276
14583TIP3    H265241   1.860   2.169   3.083  0.2453  0.4146 -1.1674
14584TIP3   OH265242   0.118   1.920  11.452  0.1453 -0.1631  0.2992
14584TIP3    H165243   0.045   1.960  11.406 -0.6943 -0.4132  1.3838
14584TIP3    H265244   0.099   1.933  11.545  1.7635  0.2762  0.6126
14585TIP3   OH265245   0.357   1.526  12.992 -0.5129 -0.0510 -0.0147
14585TIP3    H165246   0.336   1.546  12.900  1.0258 -1.5854 -0.7552
14585TIP3    H265247   0.364   1.431  12.995 -1.3319 -0.0992  1.9122
14586TIP3   OH265248   2.633   6.361   5.895  0.4515 -0.1211  0.1152
14586TIP3    H165249   2.628   6.437   5.837  0.1710 -0.4387 -0.2805
14586TIP3    H265250   2.629   6.398   5.984  5.5455  0.8994  0.2258
14587TIP3   OH265251   1.955   5.117  13.482 -0.0894  0.1314 -0.8577
14587TIP3    H165252   1.901   5.045  13.515 -0.0051 -0.8695 -2.7962
14587TIP3    H265253   2.039   5.106  13.526 -0.1750 -0.7529 -0.8992
14588TIP3   OH265254   3.751   4.486   6.420  0.3284 -0.0322  0.2121
14588TIP3    H165255   3.742   4.580   6.433 -1.3596 -0.2018  0.4337
14588TIP3    H265256   3.717   4.447   6.501 -0.8035 -0.8593 -0.6319
14589TIP3   OH265257   0.943   4.084   5.337  0.5486  0.1781  0.0141
14589TIP3    H165258   0.900   4.005   5.304  1.2427 -0.0713 -0.3046
14589TIP3    H265259   0.921   4.085   5.430  1.1061 -0.7717  0.1708
14590TIP3   OH265260   3.572   4.550   3.198  0.0123 -0.3185  0.0836
14590TIP3    H165261   3.562   4.577   3.106 -0.4266  0.9521  0.4773
14590TIP3    H265262   3.612   4.626   3.240 -0.1139 -0.7606  1.0054
14591TIP3   OH265263   4.166   4.951  11.860  0.2917 -0.5524  0.2967
14591TIP3    H165264   4.158   4.863  11.823 -0.7711 -0.3405 -0.0073
14591TIP3    H265265   4.158   5.010  11.785 -2.6093 -0.0874  0.8313
14592TIP3   OH265266   6.126   3.626  15.759  0.1732  0.1261 -0.0498
14592TIP3    H165267   6.073   3.702  15.782 -2.8002 -1.6444 -0.4609
14592TIP3    H265268   6.161   3.595  15.843  1.9752  2.2237  0.0396
14593TIP3   OH265269   3.075   2.851  15.856  0.0428  0.5384  0.2930
14593TIP3    H165270   3.037   2.775  15.813 -0.1999  1.1162 -0.5538
14593TIP3    H265271   3.152   2.817  15.903  0.1265 -0.1691 -0.3368
14594TIP3   OH265272   2.260   4.082  16.117 -0.2237  0.1807  0.7340
14594TIP3    H165273   2.196   4.035  16.063 -1.5412  0.7271  1.7598
14594TIP3    H265274   2.207   4.133  16.178  1.2069  0.2007  2.0277
14595TIP3   OH265275   0.768   5.098  16.986 -0.2947 -0.4361 -0.1193
14595TIP3    H165276   0.834   5.031  17.006  0.3704  0.7228  1.7995
14595TIP3    H265277   0.752   5.142  17.069 -1.3740  1.2296 -1.1475
14596TIP3   OH265278   1.922   6.560  10.708 -0.0656 -0.0191 -0.3704
14596TIP3    H165279   1.833   6.542  10.677 -0.2644 -1.6982  1.0097
14596TIP3    H265280   1.974   6.487  10.675  0.4050 -0.0359  0.3856
14597TIP3   OH265281   5.368   4.644   1.863  0.0729  0.1865  0.1276
14597TIP3    H165282   5.399   4.555   1.883 -0.8188  0.1020  1.2361
14597TIP3    H265283   5.273   4.635   1.859  0.0080  1.0075 -0.2413
14598TIP3   OH265284   3.400   4.429   1.827 -0.4154  0.1252  0.4574
14598TIP3    H165285   3.378   4.340   1.855 -0.5676 -0.2448 -0.7756
14598TIP3    H265286   3.449   4.466   1.901 -0.3254 -0.9891  0.9782
14599TIP3   OH265287   2.673   1.846   4.926  0.2434  0.5782  0.3892
14599TIP3    H165288   2.735   1.776   4.947  1.8721  2.1864  1.1212
14599TIP3    H265289   2.683   1.858   4.831  0.5720  0.4082  0.3996
14600TIP3   OH265290   1.458   4.923  11.279  0.1441 -0.7583  0.6690
14600TIP3    H165291   1.524   4.855  11.272 -0.9116 -1.8621  1.1865
14600TIP3    H265292   1.375   4.879  11.260 -0.3034  1.0423 -2.3581
14601TIP3   OH265293   1.681   2.361  16.194  0.2642 -0.3967  0.1038
14601TIP3    H165294   1.599   2.329  16.156 -0.8480  0.7111  1.4705
14601TIP3    H265295   1.743   2.288  16.181 -0.3127 -0.4847 -2.7573
14602TIP3   OH265296   2.984   5.296   1.395 -1.5045 -0.2793  0.9138
14602TIP3    H165297   2.933   5.342   1.328 -0.6597  0.0381  0.4782
14602TIP3    H265298   3.047   5.361   1.425 -1.4991 -0.6040  1.6021
14603TIP3   OH265299   5.701   3.640   1.047  0.2618 -0.3882 -0.1810
14603TIP3    H165300   5.696   3.702   0.974  0.3657 -1.2554 -0.9382
14603TIP3    H265301   5.640   3.676   1.112 -0.2933  0.0798 -0.9332
14604TIP3   OH265302   6.451   4.471   1.567 -0.7641 -0.7237 -0.1277
14604TIP3    H165303   6.414   4.418   1.637 -0.0260 -1.2259 -0.1082
14604TIP3    H265304   6.386   4.466   1.497 -1.2951 -0.5903  0.3509
14605TIP3   OH265305   6.724   2.875   5.784  0.4331  0.0588 -0.2462
14605TIP3    H165306   6.736   2.856   5.877 -2.9700 -0.2686  0.2633
14605TIP3    H265307   6.745   2.968   5.776 -0.4620  0.4201  1.1817
14606TIP3   OH265308   3.386   2.140   4.977  0.2656  0.1293 -0.8471
14606TIP3    H165309   3.400   2.214   5.036 -0.6276 -0.2774 -0.0904
14606TIP3    H265310   3.293   2.144   4.954  0.4343 -0.1657 -1.6241
14607TIP3   OH265311   0.406   2.524  12.833  0.5780  0.5359 -0.3431
14607TIP3    H165312   0.357   2.497  12.911  1.1979  2.2655  0.6936
14607TIP3    H265313   0.338   2.556  12.773 -0.0724 -2.2766 -1.2378
14608TIP3   OH265314   6.213   3.041   1.395  0.0912 -0.2791 -0.5559
14608TIP3    H165315   6.170   3.003   1.319 -1.3558  1.5149 -0.6906
14608TIP3    H265316   6.263   3.115   1.360  2.7540 -1.8291 -0.2902
14609TIP3   OH265317   4.988   3.799  16.407  0.2211 -0.2181 -0.4077
14609TIP3    H165318   4.922   3.867  16.420 -0.3185 -0.7063 -0.5433
14609TIP3    H265319   5.055   3.840  16.353 -1.0033 -0.3275 -2.1124
14610TIP3   OH265320   2.833   5.132   0.035 -0.1871  0.5584  0.0431
14610TIP3    H165321   2.791   5.047   0.024  0.9001  0.0678 -0.4845
14610TIP3    H265322   2.841   5.166  -0.054 -0.0346  0.9219  0.1966
14611TIP3   OH265323   3.683   5.746  12.809  0.5433 -0.2180 -0.3437
14611TIP3    H165324   3.689   5.690  12.887  2.0717 -0.8775 -0.9059
14611TIP3    H265325   3.668   5.685  12.737  1.2023  0.1977 -0.8351
14612TIP3   OH265326   6.145   2.632   3.031  0.4518 -0.2327 -0.3411
14612TIP3    H165327   6.132   2.552   3.082  0.2466  0.4334  0.6928
14612TIP3    H265328   6.237   2.627   3.003  0.2165 -1.2056 -0.9874
14613TIP3   OH265329   0.890   3.342  13.115  0.1105  0.0871  0.1060
14613TIP3    H165330   0.906   3.436  13.111 -1.5780  0.4504  0.8870
14613TIP3    H265331   0.848   3.321  13.032  0.2157  0.0888  0.0530
14614TIP3   OH265332   6.750   4.867   5.562 -0.1689 -0.5733 -0.0380
14614TIP3    H165333   6.741   4.775   5.536 -2.3942 -1.2571  2.6659
14614TIP3    H265334   6.676   4.911   5.522 -0.4256 -0.4741  0.5279
14615TIP3   OH265335   2.644   5.898  12.396  0.0717  0.3100 -0.0366
14615TIP3    H165336   2.619   5.881  12.305 -0.8209 -0.8433  0.4070
14615TIP3    H265337   2.564   5.883  12.446  1.1767 -1.7688  1.2399
14616TIP3   OH265338   4.490   3.773   1.714  0.3725 -0.1389 -0.0565
14616TIP3    H165339   4.503   3.686   1.675 -2.3155 -1.9098  2.5101
14616TIP3    H265340   4.446   3.824   1.646  0.5179 -1.3331 -1.0910
14617TIP3   OH265341   3.667   5.558   0.337  0.3185 -0.2519 -0.3781
14617TIP3    H165342   3.575   5.545   0.361  0.1371  0.0990 -0.8488
14617TIP3    H265343   3.716   5.496   0.391 -0.1307  0.0640  0.3998
14618TIP3   OH265344   5.728   2.010  16.416  0.0494 -0.6704 -0.0384
14618TIP3    H165345   5.740   2.099  16.448 -0.1718 -0.9155  0.7629
14618TIP3    H265346   5.762   1.955  16.487  4.3234 -1.2321 -2.1770
14619TIP3   OH265347   4.422   4.167   5.199  0.4605 -0.6111 -0.2043
14619TIP3    H165348   4.355   4.227   5.232  1.2899  0.6054 -0.6538
14619TIP3    H265349   4.494   4.224   5.172  1.2204 -1.8098 -0.7990
14620TIP3   OH265350   4.945   3.767   3.249  0.2742 -0.0447 -0.1038
14620TIP3    H165351   4.973   3.762   3.158 -1.5832 -0.3161 -0.7118
14620TIP3    H265352   4.963   3.857   3.275  0.2589  0.2153 -0.9553
14621TIP3   OH265353   4.006   2.380   4.132  0.2043  0.0267  0.3644
14621TIP3    H165354   4.022   2.337   4.216  0.6609 -1.7671 -0.5811
14621TIP3    H265355   3.950   2.319   4.084  0.8974  0.4644 -1.0637
14622TIP3   OH265356   6.844   3.485   1.425 -0.1478 -0.0411 -0.0739
14622TIP3    H165357   6.788   3.412   1.397 -0.2629 -0.1418  0.4008
14622TIP3    H265358   6.807   3.512   1.509  0.4676 -0.0458  0.1994
14623TIP3   OH265359   2.025   2.883  12.393 -0.1474 -0.1689  0.3415
14623TIP3    H165360   2.102   2.914  12.347 -0.8680 -0.4988 -1.1362
14623TIP3    H265361   2.041   2.790  12.408 -0.6322 -0.4543 -0.8072
14624TIP3   OH265362   6.131   6.702  10.723 -0.3910 -0.6441 -0.4342
14624TIP3    H165363   6.132   6.796  10.740  0.0181 -0.7165 -0.0206
14624TIP3    H265364   6.098   6.663  10.804 -1.5901 -0.7983 -0.9737
14625TIP3   OH265365   1.924   6.295  14.785  0.1462  0.6253 -0.3990
14625TIP3    H165366   1.969   6.378  14.802  2.7645 -0.5207 -1.1340
14625TIP3    H265367   1.988   6.228  14.808 -1.1693 -1.1696 -1.6397
14626TIP3   OH265368   2.847   5.858   3.321 -0.0452  0.0379  0.1269
14626TIP3    H165369   2.880   5.780   3.275 -0.3275  0.5479 -0.9638
14626TIP3    H265370   2.780   5.823   3.381  1.4673 -0.8386  1.4022
14627TIP3   OH265371   3.317   6.371  14.285 -0.2110 -0.0136 -0.5711
14627TIP3    H165372   3.292   6.296  14.338 -2.3606  0.6664 -0.5323
14627TIP3    H265373   3.253   6.372  14.213  0.9480  0.6808 -1.6410
14628TIP3   OH265374   2.144   3.215  15.172  0.7174  0.7477  0.1013
14628TIP3    H165375   2.193   3.200  15.253  0.4971  3.1665  0.7515
14628TIP3    H265376   2.055   3.185  15.193  0.5398  1.8123  0.9524
14629TIP3   OH265377   3.940   5.842   2.055 -0.5832  0.0577  0.4513
14629TIP3    H165378   4.002   5.915   2.047  0.3974 -0.8877 -1.4135
14629TIP3    H265379   3.967   5.796   2.134  0.1822  0.4806  0.4513
14630TIP3   OH265380   5.942   2.388   5.524  0.1387 -0.3547 -0.4166
14630TIP3    H165381   6.005   2.346   5.582 -0.5186 -1.4025 -0.4497
14630TIP3    H265382   5.864   2.400   5.577  0.9891  3.0101  0.3389
14631TIP3   OH265383   0.818   4.232  11.838  0.0802  0.0500 -0.5724
14631TIP3    H165384   0.764   4.302  11.803 -1.1649 -1.3210 -1.5300
14631TIP3    H265385   0.789   4.154  11.790 -0.4265 -1.6015  2.2103
14632TIP3   OH265386   0.236   3.941   1.864  0.4911  0.1279  0.1982
14632TIP3    H165387   0.230   3.958   1.958  0.7286  0.9955  0.0627
14632TIP3    H265388   0.308   3.879   1.856 -0.6570 -1.3361  0.7354
14633TIP3   OH265389   2.606   5.948  11.475 -0.0517 -0.5156  0.1822
14633TIP3    H165390   2.632   6.020  11.417  1.3489 -1.0659  0.0938
14633TIP3    H265391   2.528   5.912  11.434  0.5680 -0.5117 -1.0608
14634TIP3   OH265392   5.745   2.944  17.124 -0.3433  0.1614  0.1180
14634TIP3    H165393   5.710   3.028  17.155 -1.5997  0.3951 -1.7460
14634TIP3    H265394   5.675   2.881  17.141  0.4511 -0.4603  1.1723
14635TIP3   OH265395   6.140   3.242   3.567 -0.0942  0.1356  0.2844
14635TIP3    H165396   6.181   3.314   3.519 -0.2950  0.4641  0.6009
14635TIP3    H265397   6.206   3.173   3.566 -0.1831  0.0592 -0.6481
14636TIP3   OH265398   4.920   3.669  12.476 -0.0196  0.3109  0.4092
14636TIP3    H165399   5.013   3.652  12.464 -0.2067  0.7192 -2.2880
14636TIP3    H265400   4.904   3.752  12.430 -1.8529 -0.1987  0.0230
14637TIP3   OH265401   5.495   5.019  10.417  0.5991 -0.1230  0.0959
14637TIP3    H165402   5.556   4.972  10.473  0.6331  0.5408  0.6361
14637TIP3    H265403   5.551   5.071  10.359  0.5653 -0.8472 -0.6017
14638TIP3   OH265404   2.722   4.645  11.710 -0.1163  0.2251 -0.2471
14638TIP3    H165405   2.698   4.591  11.635 -0.6155 -0.7534  0.6060
14638TIP3    H265406   2.639   4.681  11.741 -0.2682 -1.3851  1.3508
14639TIP3   OH265407   2.955   4.807  11.820 -0.1488 -0.5365  0.4084
14639TIP3    H165408   2.925   4.895  11.845 -0.1700 -0.2690 -0.5108
14639TIP3    H265409   2.874   4.758  11.806 -0.1438 -0.4863  0.1998
14640TIP3   OH265410   2.060   0.249  14.667 -0.2074  0.0431  0.1578
14640TIP3    H165411   2.083   0.160  14.640 -0.0763 -0.6269  2.2848
14640TIP3    H265412   2.143   0.289  14.691 -0.4228  0.1537  0.7513
14641TIP3   OH265413   0.203   1.292   2.599 -0.2112 -0.0831  0.1289
14641TIP3    H165414   0.277   1.353   2.593  1.0107 -1.5899 -0.9664
14641TIP3    H265415   0.169   1.287   2.509 -1.4846  0.3659  0.5676
14642TIP3   OH265416   3.365   6.366   4.516 -0.2481  0.9114 -0.0997
14642TIP3    H165417   3.331   6.433   4.456  1.7354  2.3795  0.3249
14642TIP3    H265418   3.459   6.382   4.520  0.5542 -2.7419 -0.9287
14643TIP3   OH265419   1.813   5.337   4.724 -0.1926 -0.4517  0.0735
14643TIP3    H165420   1.884   5.326   4.662 -1.0580 -0.5682 -0.9211
14643TIP3    H265421   1.794   5.431   4.723  1.8006  0.0810  2.4884
14644TIP3   OH265422   4.656   3.130  15.050 -0.1231  0.8680  0.3251
14644TIP3    H165423   4.677   3.222  15.065  0.2337  0.8462 -0.0041
14644TIP3    H265424   4.664   3.119  14.955  0.2327  0.4041  0.4064
14645TIP3   OH265425   0.346   5.275   4.818 -0.1743  0.1968 -0.1804
14645TIP3    H165426   0.440   5.267   4.800 -0.4529 -0.5046 -1.4244
14645TIP3    H265427   0.340   5.349   4.879  1.3500 -1.0101  1.5437
14646TIP3   OH265428   3.061   4.436   1.382  0.4318  0.1146  0.4120
14646TIP3    H165429   2.994   4.409   1.445 -0.8527  0.8887 -0.5783
14646TIP3    H265430   3.016   4.436   1.298  1.7678  0.3825 -0.3333
14647TIP3   OH265431   1.469   0.369   3.019 -0.3814 -0.4770  0.7013
14647TIP3    H165432   1.475   0.350   2.925  1.8600 -0.0095  0.7091
14647TIP3    H265433   1.401   0.436   3.025  2.6191  3.1111 -1.2775
14648TIP3   OH265434   0.361   5.250  12.119 -0.1162  0.0505 -0.1801
14648TIP3    H165435   0.428   5.190  12.086 -1.3683 -0.9475 -1.0230
14648TIP3    H265436   0.320   5.286  12.040 -1.1184  0.0052  0.3074
14649TIP3   OH265437   5.968   2.306  15.834  0.4772  0.8623  0.6283
14649TIP3    H165438   5.959   2.390  15.879  0.7690  0.5305  1.3286
14649TIP3    H265439   6.040   2.262  15.880  0.3066  0.2175  0.2941
14650TIP3   OH265440   1.758   0.051  16.220  0.2373  0.2615  0.1232
14650TIP3    H165441   1.810  -0.027  16.239 -0.0792 -0.8326 -2.8627
14650TIP3    H265442   1.679   0.041  16.272  1.8016  0.6352  2.7383
14651TIP3   OH265443   0.057   2.290   6.280  0.4065 -0.4704  0.1929
14651TIP3    H165444   0.014   2.292   6.365 -2.1126  0.3180 -0.9994
14651TIP3    H265445   0.078   2.382   6.261 -0.6506 -0.4007 -0.7505
14652TIP3   OH265446   5.688   4.889   3.992 -0.0927 -0.2473 -0.4941
14652TIP3    H165447   5.716   4.819   4.051 -0.5802 -0.3844 -0.4179
14652TIP3    H265448   5.599   4.910   4.020  1.0151  2.5021  1.4770
14653TIP3   OH265449   1.477   4.905  11.926  0.1498  0.5737  0.0481
14653TIP3    H165450   1.468   4.987  11.975 -0.0482  0.6210 -0.0693
14653TIP3    H265451   1.512   4.931  11.841 -0.7582  0.6385 -0.3164
14654TIP3   OH265452   5.625   6.727   3.484  0.6392 -0.6252  0.8186
14654TIP3    H165453   5.711   6.686   3.478  1.4412  1.0932 -0.2302
14654TIP3    H265454   5.640   6.807   3.535 -0.4364 -0.5785  1.0814
14655TIP3   OH265455   3.895   2.870   0.667  0.2548  0.0234 -0.4517
14655TIP3    H165456   3.908   2.880   0.762 -0.5328 -1.5638 -0.1400
14655TIP3    H265457   3.980   2.891   0.628  1.3672 -1.8240  0.8191
14656TIP3   OH265458   1.229   5.432   3.733 -0.0199  0.0572 -0.2053
14656TIP3    H165459   1.230   5.527   3.740 -0.7253  0.0790 -0.2648
14656TIP3    H265460   1.222   5.415   3.639 -1.6961 -0.0053 -0.0964
14657TIP3   OH265461   6.621   4.643  14.530  0.0210  0.6938  0.1096
14657TIP3    H165462   6.531   4.675  14.534  0.0652  0.7657  0.7050
14657TIP3    H265463   6.647   4.653  14.439 -0.5951  0.6160 -0.0775
14658TIP3   OH265464   1.338   1.699   5.688  0.0818 -0.0681  0.2145
14658TIP3    H165465   1.332   1.633   5.619 -0.1730  0.8894 -0.7057
14658TIP3    H265466   1.261   1.685   5.742  0.1991 -0.7325  0.2094
14659TIP3   OH265467   5.994   5.325   4.631 -0.0634 -0.1204  0.8239
14659TIP3    H165468   5.921   5.331   4.569  1.6279  0.5725 -1.2184
14659TIP3    H265469   5.967   5.380   4.704 -1.8201 -0.3389  0.3860
14660TIP3   OH265470   3.620   5.394   1.061 -0.0837  0.0273 -0.3937
14660TIP3    H165471   3.633   5.316   1.008  0.6837 -0.6872  0.7868
14660TIP3    H265472   3.619   5.362   1.151 -0.4535  1.3000  0.0802
14661TIP3   OH265473   1.570   3.236  14.091 -0.3831 -0.4269  0.1920
14661TIP3    H165474   1.487   3.189  14.097  0.6107 -2.0870  2.2412
14661TIP3    H265475   1.616   3.214  14.172  1.6368  1.2803 -0.4110
14662TIP3   OH265476   6.835   0.741   5.978  0.2469 -0.1565 -0.0268
14662TIP3    H165477   6.806   0.719   6.066  0.2348 -2.0245 -0.4650
14662TIP3    H265478   6.925   0.708   5.973 -0.1374 -1.1058 -1.0593
14663TIP3   OH265479   2.971   5.305  14.425  0.2421 -0.0998 -0.3187
14663TIP3    H165480   2.981   5.365  14.351  0.0198  1.0108  0.5247
14663TIP3    H265481   3.011   5.351  14.499 -1.3717 -0.2811  0.7107
14664TIP3   OH265482   0.863   1.670  15.605  0.1234  0.2552  0.4975
14664TIP3    H165483   0.867   1.644  15.513  0.2705 -0.3682  0.6752
14664TIP3    H265484   0.822   1.596  15.650  1.2705 -0.0327  1.1353
14665TIP3   OH265485   3.724   0.605   1.847  0.2441  0.0229  0.5124
14665TIP3    H165486   3.816   0.600   1.873  0.7610  1.6624 -0.8029
14665TIP3    H265487   3.687   0.673   1.903  0.2769  0.5429 -0.0827
14666TIP3   OH265488   6.063   1.457   0.318  0.3956 -0.9455  0.0253
14666TIP3    H165489   6.082   1.523   0.385 -3.4953 -1.4332  1.9423
14666TIP3    H265490   6.016   1.504   0.250 -1.3731 -1.3922  0.8561
14667TIP3   OH265491   3.898   1.059   4.881  0.1007  0.2232  0.2589
14667TIP3    H165492   3.952   1.134   4.856  0.6125  0.0578  0.8440
14667TIP3    H265493   3.900   1.059   4.977  0.8922 -1.0961  0.2655
14668TIP3   OH265494   3.046   3.977   3.744 -0.0665 -0.1068  0.1291
14668TIP3    H165495   3.064   3.925   3.665  1.1461  1.5774 -0.7577
14668TIP3    H265496   3.107   3.942   3.810  0.0176 -0.4839 -0.1453
14669TIP3   OH265497   6.223   2.038  11.998 -0.2119  0.1029 -0.1595
14669TIP3    H165498   6.237   2.115  12.054 -1.7588 -0.0510  0.4701
14669TIP3    H265499   6.164   1.982  12.048  0.6020 -1.3546 -0.7692
14670TIP3   OH265500   0.538   6.263   0.246 -0.4401  0.4089 -0.3101
14670TIP3    H165501   0.486   6.185   0.230 -0.0813  0.1500 -0.2339
14670TIP3    H265502   0.575   6.250   0.334  0.0091  0.4380 -0.4923
14671TIP3   OH265503   5.085   0.023  14.930  0.2525  0.4988 -0.4441
14671TIP3    H165504   5.069   0.068  14.847 -0.5314  2.8367  0.8539
14671TIP3    H265505   5.162   0.067  14.966 -0.2675  0.5374  0.6729
14672TIP3   OH265506   0.178   6.480   3.643  0.3512 -0.0103  0.3406
14672TIP3    H165507   0.253   6.446   3.691 -0.5038  0.3495  1.9720
14672TIP3    H265508   0.105   6.423   3.667 -0.5476  1.4249  1.1393
14673TIP3   OH265509   6.475   6.277  14.097 -0.2477 -0.5444 -0.2873
14673TIP3    H165510   6.452   6.349  14.155  0.7200 -0.2885 -0.2067
14673TIP3    H265511   6.461   6.198  14.150  0.6168 -0.3148  0.3104
14674TIP3   OH265512   5.817   2.907  15.691 -0.3611 -0.2146  0.3361
14674TIP3    H165513   5.844   2.977  15.632  0.4538 -0.7248  0.1049
14674TIP3    H265514   5.727   2.930  15.715 -0.1050  0.9205  0.2716
14675TIP3   OH265515   6.684   2.032   1.780 -0.5427  0.6711 -0.2025
14675TIP3    H165516   6.701   2.026   1.686 -0.5505 -0.2515 -0.1498
14675TIP3    H265517   6.677   1.941   1.809 -1.8362  0.9536  0.4487
14676TIP3   OH265518   3.009   5.795  13.425  0.3378 -0.1863  0.1009
14676TIP3    H165519   3.085   5.796  13.367  0.4199 -0.7904  0.1997
14676TIP3    H265520   2.961   5.875  13.402  1.3143  0.5191  0.4627
14677TIP3   OH265521   5.402   6.795   1.153 -0.3609 -0.2762  0.3679
14677TIP3    H165522   5.433   6.878   1.118  0.2135 -1.0235 -0.9457
14677TIP3    H265523   5.478   6.737   1.148 -0.8109 -0.9496  1.0746
14678TIP3   OH265524   1.252   5.162   3.185 -0.2557 -0.0238  0.5701
14678TIP3    H165525   1.272   5.255   3.200 -0.6877  0.0088  0.9388
14678TIP3    H265526   1.218   5.130   3.268 -1.3373 -0.1895  0.0864
14679TIP3   OH265527   4.360   5.799  11.696 -0.0700  0.2658 -0.0916
14679TIP3    H165528   4.455   5.789  11.683  0.0427 -1.0734  1.4387
14679TIP3    H265529   4.329   5.711  11.715 -1.7781  0.5743 -1.2222
14680TIP3   OH265530   1.528   4.793   5.934  0.4201 -0.0538  0.4462
14680TIP3    H165531   1.593   4.837   5.878  1.3417  0.2235  1.6979
14680TIP3    H265532   1.510   4.855   6.004 -0.0631 -0.7346  0.9359
14681TIP3   OH265533   1.728   6.349   1.452  0.2196  0.1146  0.2264
14681TIP3    H165534   1.723   6.261   1.414  1.1459 -0.1589  0.7232
14681TIP3    H265535   1.798   6.392   1.403 -0.0339  0.4804  0.1834
14682TIP3   OH265536   0.986   1.391   3.586  0.2502  0.5634  0.3311
14682TIP3    H165537   0.995   1.396   3.681 -0.3771 -0.4460  0.4666
14682TIP3    H265538   0.903   1.436   3.568  0.3020  0.6362  0.2747
14683TIP3   OH265539   3.438   0.186   5.889  0.2932 -0.2650  0.5334
14683TIP3    H165540   3.450   0.195   5.794 -0.3211  1.8368  0.6090
14683TIP3    H265541   3.429   0.275   5.921 -2.6479 -1.0088  2.1587
14684TIP3   OH265542   3.022   1.263   1.273 -0.5634 -0.0564 -0.0035
14684TIP3    H165543   2.939   1.304   1.294 -0.6410  0.1931 -0.7686
14684TIP3    H265544   3.059   1.238   1.358  0.0258  2.6114  0.5969
14685TIP3   OH265545   3.414   4.683   3.664 -0.9253  0.1333 -0.5698
14685TIP3    H165546   3.447   4.595   3.652  0.3878  0.7078 -1.3479
14685TIP3    H265547   3.399   4.716   3.576 -1.0858  0.8059 -0.2978
14686TIP3   OH265548   3.588   6.219   1.526 -0.2015 -0.3229  0.1011
14686TIP3    H165549   3.597   6.175   1.610 -1.0833 -0.1322  0.3082
14686TIP3    H265550   3.576   6.312   1.549  3.5702  0.4310 -0.3746
14687TIP3   OH265551   2.122   6.774   0.491 -0.8157  0.1764 -0.4786
14687TIP3    H165552   2.029   6.770   0.512 -0.9274 -0.1831 -1.0019
14687TIP3    H265553   2.155   6.687   0.511 -0.4256  0.5220  0.4169
14688TIP3   OH265554   2.287   3.666   4.599  0.0826 -0.6242  0.0426
14688TIP3    H165555   2.331   3.731   4.545 -0.9504 -1.5019 -2.0174
14688TIP3    H265556   2.215   3.713   4.641 -1.0028 -0.4799 -1.8734
14689TIP3   OH265557   6.332   2.006   3.344  0.3866  0.1356 -0.1284
14689TIP3    H165558   6.310   2.064   3.417 -2.6655 -0.7814 -0.1624
14689TIP3    H265559   6.362   1.925   3.386  0.5517  0.2945  0.0579
14690TIP3   OH265560   5.665   3.358  16.174 -0.5747 -0.5576 -0.3867
14690TIP3    H165561   5.704   3.328  16.092 -0.4156  1.3772 -1.0545
14690TIP3    H265562   5.589   3.410  16.147 -1.5795 -1.3653  0.7758
14691TIP3   OH265563   5.775   1.296   4.575 -0.5236 -0.7649  0.3456
14691TIP3    H165564   5.772   1.210   4.532  0.1261 -1.5535  1.7936
14691TIP3    H265565   5.692   1.303   4.621 -1.8445  0.7018 -2.0440
14692TIP3   OH265566   1.071   5.768  15.335 -0.1980 -0.6763  0.2659
14692TIP3    H165567   1.006   5.705  15.305  1.1855 -2.1855  0.2880
14692TIP3    H265568   1.131   5.717  15.390  0.6180  0.8028  0.8323
14693TIP3   OH265569   2.329   5.612   5.532 -0.8063 -0.2294  0.1876
14693TIP3    H165570   2.361   5.663   5.458 -2.6182 -0.8990 -1.1309
14693TIP3    H265571   2.398   5.548   5.549  0.0338  0.5276 -0.3090
14694TIP3   OH265572   4.191   5.761  12.290  0.5890  0.4262 -0.1645
14694TIP3    H165573   4.121   5.824  12.309 -0.6915 -0.5923 -1.2412
14694TIP3    H265574   4.193   5.704  12.367 -2.7300 -2.0619 -1.6704
14695TIP3   OH265575   0.968   0.882   3.050  0.0805  0.1333 -0.2095
14695TIP3    H165576   0.895   0.918   3.000 -0.0133  1.2643  0.7071
14695TIP3    H265577   1.040   0.945   3.038  0.0396  0.4574  1.0866
14696TIP3   OH265578   4.523   2.510   3.827 -0.3460  0.1381  0.5899
14696TIP3    H165579   4.512   2.426   3.782 -0.0027 -0.0923  0.9332
14696TIP3    H265580   4.434   2.538   3.849 -0.6376  0.8831 -1.3629
14697TIP3   OH265581   2.912   4.760   3.147 -0.2261  0.3741  0.2707
14697TIP3    H165582   2.989   4.744   3.094  0.6058  0.7648  1.3320
14697TIP3    H265583   2.909   4.686   3.209 -0.8175  0.2522  0.1070
14698TIP3   OH265584   1.492   2.907  16.547  0.4366 -0.3075  0.5546
14698TIP3    H165585   1.489   2.835  16.610 -0.9164 -0.1282  0.7246
14698TIP3    H265586   1.466   2.985  16.598  0.3768  0.0236  0.0288
14699TIP3   OH265587   3.711   1.683   4.227  0.3384  0.4260 -0.1398
14699TIP3    H165588   3.770   1.730   4.169  0.9769 -1.1112 -0.7653
14699TIP3    H265589   3.634   1.740   4.234  0.1165  0.5199 -2.7263
14700TIP3   OH265590   2.245   4.129   1.151 -0.1247 -0.2119  0.2411
14700TIP3    H165591   2.193   4.184   1.092 -0.9931  0.0524  1.2310
14700TIP3    H265592   2.221   4.157   1.239  0.3878 -1.2911  0.7523
14701TIP3   OH265593   2.233   3.077  16.764 -0.0496 -0.1947 -0.3479
14701TIP3    H165594   2.148   3.092  16.806 -0.7728 -0.8625 -1.5355
14701TIP3    H265595   2.251   3.158  16.716 -2.3524 -1.6072 -3.9917
14702TIP3   OH265596   4.043   5.661  10.375 -0.2770 -1.0384 -0.2277
14702TIP3    H165597   4.125   5.701  10.405 -0.7273  0.9398 -1.4578
14702TIP3    H265598   4.063   5.567  10.370  0.8877 -1.0278  2.5909
14703TIP3   OH265599   0.944   1.607  10.391 -0.0942 -0.4652  0.4939
14703TIP3    H165600   1.007   1.678  10.405 -0.3406 -0.2664  0.5948
14703TIP3    H265601   0.859   1.650  10.384 -0.0522 -0.5889 -1.2157
14704TIP3   OH265602   5.648   2.014   3.867 -0.1727  0.3584  0.6382
14704TIP3    H165603   5.559   2.047   3.881  0.2916  2.6394 -1.1732
14704TIP3    H265604   5.646   1.975   3.780  0.8759  1.6968 -0.0238
14705TIP3   OH265605   4.706   4.760   3.594  0.3819 -0.2443  0.2157
14705TIP3    H165606   4.611   4.764   3.587  0.3487 -0.3484  0.6431
14705TIP3    H265607   4.727   4.666   3.590  0.4705 -0.2189  0.0720
14706TIP3   OH265608   4.363   0.059  14.406  0.0002 -0.5907  0.1909
14706TIP3    H165609   4.308   0.093  14.478 -0.8027  0.9566 -1.0918
14706TIP3    H265610   4.339  -0.034  14.400 -2.4788  0.0058 -0.2537
14707TIP3   OH265611   4.037   0.096   5.498  0.6636 -0.2807 -0.6420
14707TIP3    H165612   4.007   0.179   5.535  1.0170  0.1988 -1.4123
14707TIP3    H265613   3.974   0.031   5.530  0.1448  0.3484 -0.3651
14708TIP3   OH265614   0.261   6.239   2.796 -0.1898 -0.3176 -0.1678
14708TIP3    H165615   0.304   6.324   2.802 -3.0569  1.2997 -0.5623
14708TIP3    H265616   0.261   6.206   2.885 -1.6430  1.5675  0.6036
14709TIP3   OH265617   6.016   3.478  12.686  0.7615  0.0501  0.0750
14709TIP3    H165618   6.016   3.386  12.713  0.8614  0.3111  0.9876
14709TIP3    H265619   6.056   3.525  12.760  2.9530  0.5580 -1.3384
14710TIP3   OH265620   1.571   5.052   4.558 -0.1882  0.0572 -0.7759
14710TIP3    H165621   1.485   5.084   4.587 -0.6721  0.5343 -2.6434
14710TIP3    H265622   1.622   5.044   4.639 -1.8781  0.0805  0.3322
14711TIP3   OH265623   2.163   4.371  16.181  0.0892  0.1840  0.0137
14711TIP3    H165624   2.224   4.381  16.108  0.3227  0.3368  0.2287
14711TIP3    H265625   2.206   4.413  16.255 -0.5456  0.8536  0.0208
14712TIP3   OH265626   4.625   2.420  17.043  0.0953  0.3133 -0.4458
14712TIP3    H165627   4.664   2.410  17.130  0.3019 -0.8904 -0.6562
14712TIP3    H265628   4.700   2.440  16.986  0.2726 -0.8492 -0.6554
14713TIP3   OH265629   3.825   3.914   5.290 -0.5401 -0.1704  0.1830
14713TIP3    H165630   3.731   3.921   5.306 -1.3642 -0.1476 -3.7929
14713TIP3    H265631   3.857   4.004   5.302 -0.6362 -0.4310  3.0093
14714TIP3   OH265632   1.502   3.824  11.580 -0.4095 -0.1319 -0.3533
14714TIP3    H165633   1.432   3.768  11.547 -0.9392 -0.0603  0.6292
14714TIP3    H265634   1.482   3.836  11.673  0.5319  0.4453 -0.2123
14715TIP3   OH265635   5.214   4.495   4.125 -0.0823  0.2274  0.0747
14715TIP3    H165636   5.244   4.405   4.111 -0.3884 -0.0186  0.9334
14715TIP3    H265637   5.265   4.526   4.199 -0.7181  0.3945  0.4488
14716TIP3   OH265638   5.813   3.223   1.162  0.0195 -0.5081  0.5132
14716TIP3    H165639   5.738   3.213   1.221  1.0373 -1.2002  1.7343
14716TIP3    H265640   5.795   3.163   1.090  0.8356 -3.1404  2.3555
14717TIP3   OH265641   2.542   2.747  14.414  0.6118 -0.2402 -0.0126
14717TIP3    H165642   2.449   2.749  14.391  0.4286  2.5248  0.5425
14717TIP3    H265643   2.542   2.745  14.510  1.1532 -1.2090 -0.0294
14718TIP3   OH265644   2.059   2.369   1.833  0.2530 -0.7202  0.2544
14718TIP3    H165645   2.074   2.412   1.917 -1.4804 -2.1763  1.3929
14718TIP3    H265646   2.116   2.292   1.835  1.5285  0.1643 -0.7151
14719TIP3   OH265647   3.427   4.031   2.380 -0.8420  0.3647 -0.7673
14719TIP3    H165648   3.403   4.064   2.467 -0.1483 -0.1475 -0.3764
14719TIP3    H265649   3.513   3.992   2.392 -1.4013 -1.1015 -1.3496
14720TIP3   OH265650   4.246   5.672  15.440 -0.1577  0.0828 -0.8227
14720TIP3    H165651   4.202   5.697  15.521  1.0539 -0.1217 -0.0814
14720TIP3    H265652   4.269   5.580  15.452  2.0231  0.6281 -0.4359
14721TIP3   OH265653   3.015   6.204   0.169 -0.5748  0.3169 -0.0958
14721TIP3    H165654   3.105   6.206   0.202 -0.5960 -3.1251  0.5428
14721TIP3    H265655   3.022   6.163   0.083 -1.5569 -0.5498  0.2189
14722TIP3   OH265656   6.556   6.499  14.700  0.0546 -0.1581 -0.2878
14722TIP3    H165657   6.473   6.545  14.685  0.2798  1.1057  1.8383
14722TIP3    H265658   6.622   6.557  14.661  0.0406 -0.6687 -1.0918
14723TIP3   OH265659   0.386   5.018   6.589 -0.0958 -0.4502 -0.3310
14723TIP3    H165660   0.340   4.985   6.512  0.8829  0.9143 -1.5615
14723TIP3    H265661   0.333   5.093   6.618  0.2275 -0.1518 -0.4963
14724TIP3   OH265662   0.822   2.008  13.320  0.4046 -0.1385  0.5877
14724TIP3    H165663   0.874   1.956  13.259 -2.7413  0.4699 -2.9744
14724TIP3    H265664   0.869   2.091  13.328  0.8226 -0.1636 -1.2598
14725TIP3   OH265665   4.739   1.656  12.403 -0.3814 -0.2072 -0.1119
14725TIP3    H165666   4.768   1.588  12.464  0.0181  1.9766  2.2792
14725TIP3    H265667   4.648   1.672  12.427 -0.4554  0.1623 -0.6269
14726TIP3   OH265668   3.171   1.471  16.485  0.2292  0.2372 -0.0972
14726TIP3    H165669   3.256   1.497  16.520  0.2519 -0.8905  0.7164
14726TIP3    H265670   3.177   1.376  16.475 -0.8072  0.1920 -0.3870
14727TIP3   OH265671   4.502   3.310  15.747 -0.3634  0.0215  0.6190
14727TIP3    H165672   4.550   3.282  15.669 -1.0287 -0.2641  0.3031
14727TIP3    H265673   4.566   3.361  15.797  0.4225 -0.7910  0.4752
14728TIP3   OH265674   5.236   2.890   1.859 -0.4172 -0.3341  0.3053
14728TIP3    H165675   5.299   2.881   1.931 -1.9547 -0.6686  1.6473
14728TIP3    H265676   5.216   2.983   1.856 -1.8760 -0.5703  1.6948
14729TIP3   OH265677   1.039   2.925  14.941  0.0614  0.9852 -0.1336
14729TIP3    H165678   1.087   2.848  14.910 -0.6055  0.7418 -0.5785
14729TIP3    H265679   1.096   2.999  14.921  1.2985  0.5240  1.4690
14730TIP3   OH265680   1.349   2.979  15.749  0.3239  0.3559  0.2807
14730TIP3    H165681   1.422   2.920  15.731 -0.2074 -0.1427 -0.3168
14730TIP3    H265682   1.333   3.024  15.666  0.2589  0.8196  0.5402
14731TIP3   OH265683   1.823   3.689   0.770 -0.8922  0.1553 -0.5087
14731TIP3    H165684   1.877   3.690   0.849  0.4890  1.2597 -1.4272
14731TIP3    H265685   1.753   3.752   0.788 -1.5786 -0.8215  0.4381
14732TIP3   OH265686   2.612   5.879   1.323  0.2156 -0.0070 -0.2067
14732TIP3    H165687   2.533   5.857   1.371  0.1879 -0.8852 -0.6349
14732TIP3    H265688   2.581   5.904   1.236  0.1492  2.7811  0.5073
14733TIP3   OH265689   3.222   5.418   6.112  0.2864 -0.6131  0.0533
14733TIP3    H165690   3.180   5.345   6.158 -0.7003 -0.7031 -0.9175
14733TIP3    H265691   3.228   5.488   6.177 -0.3277 -1.0001  0.5400
14734TIP3   OH265692   5.686   6.663  16.141  0.4111 -0.0655  0.2400
14734TIP3    H165693   5.635   6.592  16.180  1.0052  0.4162  2.0086
14734TIP3    H265694   5.624   6.736  16.135  0.5673  0.1881  1.3767
14735TIP3   OH265695   5.077   1.635  14.368 -0.8468  0.0426 -0.3806
14735TIP3    H165696   5.102   1.574  14.298  2.0733  0.7896 -0.1049
14735TIP3    H265697   5.130   1.608  14.443 -1.6566  1.1625  0.6309
14736TIP3   OH265698   1.627   0.079  13.239  0.4685  0.3443 -0.3389
14736TIP3    H165699   1.592   0.161  13.274  2.9805  0.7277  1.5715
14736TIP3    H265700   1.699   0.106  13.182  0.2115 -0.4979 -1.0725
14737TIP3   OH265701   3.201   4.293   0.633  0.4376 -0.5518 -0.1389
14737TIP3    H165702   3.283   4.321   0.674 -0.4381  1.6679  0.2994
14737TIP3    H265703   3.147   4.264   0.706  0.0895  0.0711 -0.1436
14738TIP3   OH265704   0.593   0.724  11.748 -0.2075 -0.5362 -0.3203
14738TIP3    H165705   0.532   0.796  11.766 -1.6321 -1.3678 -1.5794
14738TIP3    H265706   0.565   0.689  11.664  1.5782 -1.4500 -0.5942
14739TIP3   OH265707   5.852   5.858  16.275 -0.2439 -0.0192 -0.1334
14739TIP3    H165708   5.821   5.788  16.332  0.3554 -0.1220  0.0792
14739TIP3    H265709   5.926   5.819  16.227  1.3228  1.0032  1.3610
14740TIP3   OH265710   2.726   5.473  12.163  1.1381  0.1397  0.6084
14740TIP3    H165711   2.704   5.522  12.084  0.6298 -0.9982  0.0405
14740TIP3    H265712   2.812   5.436  12.145  0.5389 -1.0478  0.1313
14741TIP3   OH265713   6.136   2.766  11.581 -0.2806  0.2131  0.4152
14741TIP3    H165714   6.077   2.839  11.601 -0.6609 -0.0960  0.4339
14741TIP3    H265715   6.097   2.724  11.505  0.4615  0.6021 -0.2072
14742TIP3   OH265716   3.922   1.993  14.800 -0.2246 -0.3776  0.7553
14742TIP3    H165717   3.926   2.077  14.754  1.8121 -0.0749  1.4007
14742TIP3    H265718   3.899   1.930  14.731  0.4004  0.3984 -0.1886
14743TIP3   OH265719   2.421   6.007   4.004 -0.0386  0.1158 -0.4850
14743TIP3    H165720   2.440   5.946   3.933  0.3958  0.1405 -0.3922
14743TIP3    H265721   2.381   5.952   4.072 -2.0274  0.3769 -1.3876
14744TIP3   OH265722   2.706   0.765   4.066 -0.5595 -0.2240  0.6352
14744TIP3    H165723   2.725   0.673   4.045 -0.2715 -0.2007  0.7883
14744TIP3    H265724   2.625   0.762   4.116 -0.9659 -0.3295 -0.0201
14745TIP3   OH265725   2.550   2.616   1.616 -0.4370  0.4881 -0.2118
14745TIP3    H165726   2.624   2.565   1.650 -0.4408  1.7308  1.7970
14745TIP3    H265727   2.474   2.582   1.663 -1.2963 -1.0688 -2.5619
14746TIP3   OH265728   4.239   2.397  15.113 -0.1796 -0.7627  0.6635
14746TIP3    H165729   4.334   2.409  15.113 -0.2674  0.1170  1.5885
14746TIP3    H265730   4.226   2.306  15.137  0.4435 -1.2731 -0.8158
14747TIP3   OH265731   1.897   6.195  13.100 -0.7174 -0.2270  0.3903
14747TIP3    H165732   1.850   6.242  13.170  0.7903  1.4911  0.3454
14747TIP3    H265733   1.868   6.237  13.019  0.0180  0.0738  0.2752
14748TIP3   OH265734   1.256   0.950  15.027 -0.2105 -0.2344 -0.2039
14748TIP3    H165735   1.214   0.898  15.095  2.5362 -1.9850  0.3015
14748TIP3    H265736   1.282   0.887  14.960 -0.2603  1.0635 -1.5252
14749TIP3   OH265737   1.168   6.634  12.190 -0.2441 -0.2908  0.6179
14749TIP3    H165738   1.159   6.620  12.284 -0.7685 -1.1208  0.4490
14749TIP3    H265739   1.078   6.643  12.158 -0.1780 -1.6691 -0.0372
14750TIP3   OH265740   4.474   6.231  12.601  0.5291 -0.1983 -0.1629
14750TIP3    H165741   4.398   6.203  12.550  1.4383 -0.5320 -1.3866
14750TIP3    H265742   4.452   6.319  12.630  0.1250  0.1659 -1.4837
14751TIP3   OH265743   6.020   5.676  15.121  0.4179  0.4016  0.2942
14751TIP3    H165744   6.056   5.705  15.038 -0.1233  0.6947  0.1554
14751TIP3    H265745   5.936   5.635  15.098  0.0454  0.8992  0.7346
14752TIP3   OH265746   1.901   2.901   4.238  0.4413 -0.0536  0.0731
14752TIP3    H165747   1.886   2.995   4.246 -1.1818 -0.3866  1.4468
14752TIP3    H265748   1.823   2.867   4.195  0.7454 -0.8521  0.1318
14753TIP3   OH265749   0.285   6.026  11.972  0.4564  0.1690  0.7085
14753TIP3    H165750   0.285   5.943  12.019 -0.1590  1.0173  2.3254
14753TIP3    H265751   0.306   6.091  12.040  0.7787  1.3417 -0.4746
14754TIP3   OH265752   5.609   5.127   1.421  0.4303  0.2799  0.1412
14754TIP3    H165753   5.545   5.064   1.387 -0.3983  0.1261  1.8396
14754TIP3    H265754   5.561   5.209   1.428  0.4597  0.2312  1.1674
14755TIP3   OH265755   0.688   5.456   4.590 -0.2626 -0.4464  0.1075
14755TIP3    H165756   0.638   5.478   4.669  0.9329 -1.2412  1.1181
14755TIP3    H265757   0.736   5.377   4.613  0.1158 -0.6931 -1.4332
14756TIP3   OH265758   0.728   4.495   5.191  0.7965 -0.4420  0.2816
14756TIP3    H165759   0.641   4.501   5.231 -0.1931 -0.4015 -1.7427
14756TIP3    H265760   0.781   4.447   5.254 -1.4764 -3.0202  0.3883
14757TIP3   OH265761   6.594   0.302  15.039 -0.0087  0.3069  0.1207
14757TIP3    H165762   6.588   0.387  15.082  1.8403  1.0351 -0.9412
14757TIP3    H265763   6.567   0.318  14.949  0.1500 -0.2728 -0.0386
14758TIP3   OH265764   4.191   6.819  10.611  0.2322 -0.4668  0.0992
14758TIP3    H165765   4.262   6.765  10.576  0.8646  0.1204  0.4705
14758TIP3    H265766   4.178   6.888  10.546 -0.3838 -0.8901 -0.2371
14759TIP3   OH265767   0.393   5.443   5.057 -0.1994 -0.1824  0.0497
14759TIP3    H165768   0.371   5.366   5.110  0.1174 -0.3880 -0.1189
14759TIP3    H265769   0.484   5.462   5.080  0.6598 -1.5470 -1.9797
14760TIP3   OH265770   6.809   5.655  10.681  0.6915  0.2506 -0.0217
14760TIP3    H165771   6.730   5.633  10.633 -0.7462 -1.2540  2.7867
14760TIP3    H265772   6.778   5.678  10.769  3.3491 -0.0974  1.1008
14761TIP3   OH265773   5.565   0.338   4.698 -0.2775 -0.2196  0.1828
14761TIP3    H165774   5.551   0.269   4.632  0.0084 -0.6746  0.5913
14761TIP3    H265775   5.517   0.413   4.664 -0.2949 -0.5101 -0.4514
14762TIP3   OH265776   3.937   2.017   2.048  0.3165 -0.1829 -0.0160
14762TIP3    H165777   3.927   2.110   2.065 -0.3388 -0.1572 -0.4741
14762TIP3    H265778   3.960   1.979   2.132 -0.9170  0.1980  0.5200
14763TIP3   OH265779   0.417   0.485   2.222  0.2284  0.2022 -0.4369
14763TIP3    H165780   0.504   0.507   2.254  0.2308 -1.0095  0.4697
14763TIP3    H265781   0.414   0.389   2.222 -0.8924  0.2106 -1.0413
14764TIP3   OH265782   4.080   4.467  13.455  0.0660  0.5059 -0.2982
14764TIP3    H165783   4.155   4.425  13.413  0.9983  1.2653  0.5855
14764TIP3    H265784   4.032   4.395  13.496  0.1871 -0.0034 -1.0228
14765TIP3   OH265785   5.916   5.336  13.278  0.0607 -0.1906 -0.2535
14765TIP3    H165786   5.950   5.379  13.199  2.3474  0.2029  0.8606
14765TIP3    H265787   5.940   5.395  13.350 -0.5021 -1.3254  0.9177
14766TIP3   OH265788   4.820   6.843  13.948  0.5397  0.4747 -0.0316
14766TIP3    H165789   4.787   6.754  13.958  1.2145  0.1803 -0.3298
14766TIP3    H265790   4.765   6.882  13.881  1.6281 -0.4654 -1.5485
14767TIP3   OH265791   5.733   5.196   0.887  0.4188  0.0363  0.1238
14767TIP3    H165792   5.816   5.241   0.902 -0.0127  0.6866  0.6144
14767TIP3    H265793   5.666   5.264   0.896 -0.2846 -0.7757  1.4327
14768TIP3   OH265794   3.225   0.273  13.107 -0.1754 -0.0107 -0.1394
14768TIP3    H165795   3.241   0.230  13.023  1.1913  0.6724 -0.2521
14768TIP3    H265796   3.306   0.321  13.125 -0.4106 -0.2094  1.6089
14769TIP3   OH265797   3.040   4.232  11.832 -1.0668 -0.8151  0.0884
14769TIP3    H165798   3.039   4.319  11.792  1.0097 -0.8702 -0.2022
14769TIP3    H265799   3.061   4.173  11.759 -2.2855 -1.5511  0.3166
14770TIP3   OH265800   4.184   5.592  17.092 -0.8623 -0.4231  0.0295
14770TIP3    H165801   4.142   5.512  17.060  0.3397 -0.5489 -1.3495
14770TIP3    H265802   4.179   5.585  17.188  0.3402 -2.8010 -0.0019
14771TIP3   OH265803   6.050   0.574  16.361 -0.0949  0.2448  0.3327
14771TIP3    H165804   6.135   0.545  16.326  0.2634  1.8745 -0.2401
14771TIP3    H265805   6.069   0.600  16.451  0.0510  0.6446  0.1929
14772TIP3   OH265806   5.595   0.925   4.051  0.0239  0.2792 -0.4228
14772TIP3    H165807   5.585   0.850   3.992  2.3611  0.3899 -1.0616
14772TIP3    H265808   5.652   0.892   4.121 -1.0785  0.7318  0.7274
14773TIP3   OH265809   1.366   1.975   1.868  0.9183 -0.0021  0.4444
14773TIP3    H165810   1.271   1.979   1.873  0.8699 -0.3740 -0.1077
14773TIP3    H265811   1.387   1.882   1.876  1.1266 -0.1002 -0.9268
14774TIP3   OH265812   0.742   2.572   4.864  0.4687 -0.4835  0.0889
14774TIP3    H165813   0.682   2.571   4.939  0.7266 -0.5570  0.2980
14774TIP3    H265814   0.730   2.658   4.824  1.5441  0.2245  1.2157
14775TIP3   OH265815   4.858   0.495  13.460  0.2635 -0.1432  0.2978
14775TIP3    H165816   4.808   0.431  13.510  0.1352  0.8013  1.4302
14775TIP3    H265817   4.880   0.564  13.524  0.8249  0.6910 -0.7545
14776TIP3   OH265818   3.636   2.945  15.822 -0.2123 -0.5688  0.1546
14776TIP3    H165819   3.688   2.957  15.901 -1.3432 -0.8302  0.9574
14776TIP3    H265820   3.695   2.900  15.762  1.4758  1.7493 -0.0732
14777TIP3   OH265821   3.303   2.702  13.315  0.3509  0.1902  0.2891
14777TIP3    H165822   3.258   2.736  13.237  0.1094 -0.6720  0.0417
14777TIP3    H265823   3.252   2.737  13.388 -0.5751 -0.5290  0.0186
14778TIP3   OH265824   5.152   0.417  13.405  0.0666  0.1017  0.4471
14778TIP3    H165825   5.157   0.481  13.476  3.0430  1.5572 -0.9074
14778TIP3    H265826   5.087   0.453  13.345 -0.0674  0.5777  0.8693
14779TIP3   OH265827   0.864   0.646   5.498  0.1524 -0.5476  0.4815
14779TIP3    H165828   0.789   0.611   5.547 -1.1870  0.1359 -0.9882
14779TIP3    H265829   0.934   0.651   5.563 -1.5035  0.2208  2.3342
14780TIP3   OH265830   0.490   5.000  11.473  0.0040  0.6606  0.0720
14780TIP3    H165831   0.575   5.013  11.431  0.5895 -0.4150  0.8484
14780TIP3    H265832   0.431   4.975  11.402 -0.1746  3.2998 -0.7880
14781TIP3   OH265833   4.050   0.397  12.400 -0.6213 -0.1422  0.4461
14781TIP3    H165834   4.000   0.454  12.459 -0.9594 -1.6576  1.7038
14781TIP3    H265835   4.134   0.385  12.443  0.4681  1.4743 -1.1110
14782TIP3   OH265836   5.146   0.903  11.663  0.2074 -0.1463 -0.1893
14782TIP3    H165837   5.231   0.937  11.635 -0.2052 -0.6497 -2.2453
14782TIP3    H265838   5.108   0.866  11.583 -2.2572  0.7087  0.4922
14783TIP3   OH265839   0.389   5.309   0.702 -0.8259 -0.1417  0.1802
14783TIP3    H165840   0.387   5.300   0.607  1.9083 -0.6584  0.0932
14783TIP3    H265841   0.387   5.403   0.718 -1.3455 -0.0552 -0.3939
14784TIP3   OH265842   0.584   1.387   4.792 -0.3084 -0.2260 -0.0981
14784TIP3    H165843   0.641   1.414   4.720 -1.1080 -1.5223 -1.2665
14784TIP3    H265844   0.498   1.423   4.770 -0.4731 -0.2921  0.4143
14785TIP3   OH265845   0.738   4.628  16.844 -0.3028 -0.2358 -0.2252
14785TIP3    H165846   0.651   4.664  16.824 -1.3581 -2.0027  0.8941
14785TIP3    H265847   0.724   4.574  16.922  1.4885 -1.7850 -0.9127
14786TIP3   OH265848   6.696   0.433  12.614 -0.2099 -0.6641  0.4967
14786TIP3    H165849   6.708   0.360  12.674 -0.5109  0.5470  2.0923
14786TIP3    H265850   6.685   0.392  12.528 -0.8952 -2.5075  1.4170
14787TIP3   OH265851   4.741   6.434   0.898 -0.4136  0.3733 -0.1446
14787TIP3    H165852   4.791   6.354   0.882  0.6291  0.7197  1.2144
14787TIP3    H265853   4.802   6.505   0.879 -1.2334  0.8639 -1.0380
14788TIP3   OH265854   2.654   2.198   1.455 -0.0386  0.1567  0.3154
14788TIP3    H165855   2.741   2.178   1.489 -0.9963 -1.6013  1.9271
14788TIP3    H265856   2.625   2.274   1.507  0.7309  1.1801 -0.6885
14789TIP3   OH265857   5.561   2.527   0.347 -0.0217  0.0571 -0.0510
14789TIP3    H165858   5.535   2.476   0.270 -2.2547 -0.6635  1.1000
14789TIP3    H265859   5.644   2.487   0.374 -0.7647 -1.7444 -0.2835
14790TIP3   OH265860   0.486   4.603   0.454 -0.5854 -0.2735 -0.5501
14790TIP3    H165861   0.392   4.610   0.471 -1.0204 -2.0861 -1.9163
14790TIP3    H265862   0.502   4.509   0.450  1.8412 -0.1205  2.2803
14791TIP3   OH265863   1.060   0.382  12.387  0.1854  0.3881 -0.1524
14791TIP3    H165864   1.038   0.461  12.338 -2.4783  1.0790  1.8647
14791TIP3    H265865   1.080   0.317  12.321 -1.6576  1.6756 -2.1195
14792TIP3   OH265866   0.067   1.729  12.940 -0.0670  0.0491  0.1554
14792TIP3    H165867   0.009   1.806  12.939  1.7110  1.4687 -0.5369
14792TIP3    H265868   0.010   1.656  12.963 -2.5795  0.9828 -2.4046
14793TIP3   OH265869   1.730   5.162   6.220 -0.5055 -0.5017  0.2530
14793TIP3    H165870   1.670   5.089   6.231 -1.3648  0.3207  1.2393
14793TIP3    H265871   1.676   5.240   6.235  0.5815  0.2974  0.1267
14794TIP3   OH265872   5.519   4.272   4.898 -0.2630 -0.0698 -0.1911
14794TIP3    H165873   5.504   4.177   4.891 -1.8139  0.0678  0.7170
14794TIP3    H265874   5.565   4.283   4.980  1.3349 -0.1361 -1.0417
14795TIP3   OH265875   0.698   2.526   4.317 -0.4589 -0.2109 -0.3523
14795TIP3    H165876   0.737   2.610   4.295  1.7596 -1.4590 -1.4744
14795TIP3    H265877   0.720   2.513   4.409 -0.2505  0.1312 -0.3510
14796TIP3   OH265878   0.041   5.689  16.605 -0.0141 -0.5794 -0.1674
14796TIP3    H165879   0.036   5.734  16.521  0.7286  0.5474  0.3673
14796TIP3    H265880   0.104   5.618  16.590  0.5479 -0.0354 -0.4123
14797TIP3   OH265881   2.268   1.534   3.042 -0.3455  0.0776 -0.1685
14797TIP3    H165882   2.180   1.562   3.016 -1.0500 -1.5209  0.3818
14797TIP3    H265883   2.297   1.477   2.971 -1.0133 -1.8037  0.9986
14798TIP3   OH265884   1.056   3.685   4.118  0.4258  0.0991  0.2916
14798TIP3    H165885   0.995   3.686   4.044  0.2938  0.9482  0.3972
14798TIP3    H265886   1.143   3.677   4.078  0.3542  0.5529  0.0423
14799TIP3   OH265887   6.149   3.766   6.124 -0.3072  0.4668 -0.3938
14799TIP3    H165888   6.079   3.824   6.154  1.2911  2.0470  0.5446
14799TIP3    H265889   6.115   3.678   6.137 -2.1580  1.1790 -0.1151
14800TIP3   OH265890   1.186   0.312   1.462 -0.0614 -0.4364 -0.9134
14800TIP3    H165891   1.260   0.368   1.487 -0.6434 -0.5214  1.1735
14800TIP3    H265892   1.189   0.240   1.525 -0.9744 -1.2904 -1.8243
14801TIP3   OH265893   5.385   5.900   5.341 -0.4102  0.1574 -0.4845
14801TIP3    H165894   5.333   5.980   5.338 -1.9416 -0.7911 -0.7149
14801TIP3    H265895   5.320   5.830   5.355  0.6340 -1.2097 -1.9979
14802TIP3   OH265896   3.248   1.786  13.263 -0.0343 -0.0066 -0.0351
14802TIP3    H165897   3.160   1.756  13.286 -0.3394 -0.1469 -1.3079
14802TIP3    H265898   3.258   1.869  13.310 -1.2135  0.4877 -0.6185
14803TIP3   OH265899   5.081   4.374   0.306 -0.0774  0.2698  0.4303
14803TIP3    H165900   5.157   4.409   0.353 -0.3063  0.2080  0.8510
14803TIP3    H265901   5.033   4.451   0.276 -0.1692  0.3136  0.6871
14804TIP3   OH265902   3.026   2.150  14.059 -0.3817 -0.1727  0.2234
14804TIP3    H165903   3.110   2.196  14.055 -0.5265  0.0102 -2.2271
14804TIP3    H265904   2.963   2.217  14.085 -0.0915  0.2124 -0.0629
14805TIP3   OH265905   3.189   4.477   4.140  0.2632 -0.4075  0.6560
14805TIP3    H165906   3.264   4.533   4.159  0.7430 -0.3551 -1.1801
14805TIP3    H265907   3.224   4.410   4.081 -1.1623 -0.1926 -0.4902
14806TIP3   OH265908   5.551   0.944   0.935 -0.0305  0.4613 -0.2541
14806TIP3    H165909   5.497   0.874   0.899 -0.0322  0.4777 -0.2840
14806TIP3    H265910   5.496   0.984   1.003  0.2972 -0.1315  0.3774
14807TIP3   OH265911   2.026   0.618  16.572  0.7014 -0.1477  0.4245
14807TIP3    H165912   2.052   0.710  16.579  0.6480 -0.2419  2.3122
14807TIP3    H265913   1.939   0.620  16.532  0.9333  0.5799 -0.0545
14808TIP3   OH265914   4.683   2.282  11.219 -0.2176  0.3437 -0.0275
14808TIP3    H165915   4.601   2.268  11.172 -0.1335 -2.2557  0.4546
14808TIP3    H265916   4.751   2.262  11.155 -0.0338 -0.0245  0.2767
14809TIP3   OH265917   3.768   2.276  13.891  0.3078  0.2598  0.1029
14809TIP3    H165918   3.687   2.321  13.868  0.2443  0.6324  1.0373
14809TIP3    H265919   3.837   2.329  13.850  0.1642  0.6346  0.3495
14810TIP3   OH265920   1.410   6.314   0.378 -0.1502  0.5117 -0.1096
14810TIP3    H165921   1.361   6.239   0.409  1.1281  0.0899  0.9645
14810TIP3    H265922   1.400   6.312   0.283  0.8850 -1.7798 -0.2264
14811TIP3   OH265923   3.679   5.888  11.417  0.8804  0.1095  0.1792
14811TIP3    H165924   3.589   5.857  11.426  0.9837 -0.5236 -0.7045
14811TIP3    H265925   3.733   5.815  11.448  1.1048 -0.1205 -0.7098
14812TIP3   OH265926   5.781   5.302   2.766 -0.1490 -0.4244  0.4294
14812TIP3    H165927   5.802   5.245   2.840 -1.2228  0.6330  1.6094
14812TIP3    H265928   5.742   5.380   2.806 -2.8626 -0.7212 -1.3118
14813TIP3   OH265929   5.658   6.388  14.858 -0.3199 -0.3311 -0.5671
14813TIP3    H165930   5.741   6.352  14.827  0.4430  0.8765 -0.0057
14813TIP3    H265931   5.612   6.312  14.894  1.1326 -0.8165  0.3798
14814TIP3   OH265932   6.837   2.239   0.640  1.1074  0.0984  0.4935
14814TIP3    H165933   6.894   2.239   0.717  0.5650 -1.0405  0.9221
14814TIP3    H265934   6.797   2.326   0.640  1.6694  0.3687  1.0749
14815TIP3   OH265935   0.670   5.206   5.850 -0.1376 -0.3533 -0.2855
14815TIP3    H165936   0.644   5.253   5.771  1.2355 -0.4341 -0.8175
14815TIP3    H265937   0.653   5.268   5.921 -0.2150  0.1879 -0.7715
14816TIP3   OH265938   3.116   5.889  11.658  0.4526 -0.0288  0.1125
14816TIP3    H165939   3.125   5.800  11.624  1.4667  0.5425 -1.2146
14816TIP3    H265940   3.063   5.935  11.592  0.3166  0.4691  0.5581
14817TIP3   OH265941   2.768   0.312   5.422 -0.3975 -0.0367  0.7780
14817TIP3    H165942   2.691   0.344   5.469 -0.5697 -0.4154  0.7586
14817TIP3    H265943   2.754   0.338   5.331 -1.2420 -1.4034  0.4806
14818TIP3   OH265944   3.600   5.782   4.216  0.0202 -0.7313 -0.0455
14818TIP3    H165945   3.513   5.806   4.248 -0.1993 -1.0180 -0.4297
14818TIP3    H265946   3.620   5.699   4.259  0.1460 -0.6240  0.1089
14819TIP3   OH265947   5.277   3.217   4.441 -0.6697  0.2618  1.1538
14819TIP3    H165948   5.346   3.244   4.380 -1.7658 -0.9433 -0.7395
14819TIP3    H265949   5.255   3.297   4.489 -2.0626  2.2823 -2.4405
14820TIP3   OH265950   5.676   3.097  11.329  0.9622 -0.0663  0.1284
14820TIP3    H165951   5.646   3.050  11.251 -1.6035 -0.5936  1.3532
14820TIP3    H265952   5.629   3.181  11.326  2.1990  0.6557  0.2371
14821TIP3   OH265953   4.892   2.796   0.826  0.1435 -0.4857 -0.0600
14821TIP3    H165954   4.863   2.705   0.817 -0.3849 -0.4687  1.2017
14821TIP3    H265955   4.939   2.815   0.745 -0.3063 -1.6727 -0.6204
14822TIP3   OH265956   2.569   3.891   6.399 -0.3207 -0.4103 -0.1122
14822TIP3    H165957   2.503   3.876   6.331  0.2472 -0.8147 -0.5786
14822TIP3    H265958   2.518   3.900   6.480 -1.0309  0.3953 -0.6228
14823TIP3   OH265959   5.859   2.754  11.940  0.1986  0.5182 -0.0051
14823TIP3    H165960   5.844   2.784  11.850  0.0757 -1.5609 -0.7354
14823TIP3    H265961   5.771   2.737  11.974  0.1835  2.1615  0.8747
14824TIP3   OH265962   0.326   0.298   0.535  0.1041  0.1212  0.1265
14824TIP3    H165963   0.352   0.294   0.443 -2.2966  0.3370 -0.6409
14824TIP3    H265964   0.307   0.391   0.550 -0.4206 -0.0474  0.5433
14825TIP3   OH265965   4.292   1.800   0.461  0.5445 -0.0641  0.2292
14825TIP3    H165966   4.314   1.782   0.370  2.7755  1.4098  0.4145
14825TIP3    H265967   4.196   1.808   0.461  0.3155 -1.9614 -1.5768
14826TIP3   OH265968   2.724   5.385  17.024  0.4719 -0.0830  0.2416
14826TIP3    H165969   2.775   5.461  16.996  2.5798 -1.0961  1.1271
14826TIP3    H265970   2.753   5.315  16.966 -0.5561 -0.5191  0.2314
14827TIP3   OH265971   0.376   6.516  12.835 -0.3983 -0.1425 -0.2537
14827TIP3    H165972   0.334   6.499  12.750 -0.0410 -0.4635 -0.3683
14827TIP3    H265973   0.470   6.509  12.816 -0.1422  2.8210 -0.5351
14828TIP3   OH265974   0.271   3.382   1.318  0.2505  0.0584  0.0717
14828TIP3    H165975   0.187   3.400   1.359  1.4003  0.6069  2.4175
14828TIP3    H265976   0.257   3.303   1.267 -1.6127 -0.0271  0.6477
14829TIP3   OH265977   2.055   5.943  15.316  0.1373  0.0329 -0.4574
14829TIP3    H165978   1.991   5.888  15.271  0.7628 -1.2524  0.1652
14829TIP3    H265979   2.005   5.991  15.381 -0.2866 -0.5674 -0.3311
14830TIP3   OH265980   5.288   5.443  12.102 -0.2680  0.3291 -0.0727
14830TIP3    H165981   5.239   5.519  12.134  2.2009  2.4975 -1.0160
14830TIP3    H265982   5.335   5.411  12.178  0.7519  1.5286 -0.1551
14831TIP3   OH265983   4.658   0.751   3.061 -0.1258  0.0365 -0.1741
14831TIP3    H165984   4.648   0.814   3.133 -2.4301 -1.3406  0.8416
14831TIP3    H265985   4.732   0.696   3.088  0.4564  0.8951  0.0301
14832TIP3   OH265986   1.702   5.895   4.294 -0.5145  0.7160  0.3053
14832TIP3    H165987   1.671   5.959   4.230 -0.7121  1.7979  1.4349
14832TIP3    H265988   1.791   5.874   4.265 -0.7418  0.8733 -0.5381
14833TIP3   OH265989   1.570   1.671   6.264 -0.0037 -0.5908  0.4876
14833TIP3    H165990   1.537   1.583   6.245 -0.8838  0.2017 -1.9299
14833TIP3    H265991   1.496   1.717   6.304 -0.2739 -0.3008 -0.3284
14834TIP3   OH265992   6.194   0.025   0.843  0.3228  0.1730  0.5963
14834TIP3    H165993   6.227   0.106   0.882 -0.1675  2.3906 -3.1085
14834TIP3    H265994   6.222  -0.044   0.903  0.3863  3.0511  4.2204
14835TIP3   OH265995   3.616   3.753  15.327 -0.1828  0.3380 -0.6393
14835TIP3    H165996   3.525   3.727  15.312  0.3465 -2.0902 -0.0037
14835TIP3    H265997   3.615   3.786  15.417 -0.1571 -1.4019  0.0440
14836TIP3   OH265998   4.709   5.564   5.129 -0.2829  0.1601  0.0635
14836TIP3    H165999   4.644   5.515   5.179 -0.5648  1.2674  0.8173
14836TIP3    H266000   4.663   5.592   5.050 -0.9270  1.4089  0.8465
14837TIP3   OH266001   4.043   5.206  16.653  0.4959  0.4569 -0.3658
14837TIP3    H166002   4.138   5.195  16.644  0.5306 -0.2874  0.7833
14837TIP3    H266003   4.033   5.295  16.687  0.5485  1.9237 -3.8150
14838TIP3   OH266004   1.940   1.417  11.730 -0.0671 -0.0456  0.5083
14838TIP3    H166005   1.924   1.452  11.642 -0.4224  1.3209  1.0906
14838TIP3    H266006   1.852   1.405  11.767  0.0396 -1.6391  0.3218
14839TIP3   OH266007   0.994   3.465   5.528  0.6832 -0.0924 -0.3443
14839TIP3    H166008   0.961   3.406   5.596 -0.5981 -0.8588 -1.6030
14839TIP3    H266009   1.087   3.443   5.522  0.7493 -0.2431  0.9195
14840TIP3   OH266010   6.255   4.320  12.239  0.2290 -0.3356  0.3449
14840TIP3    H166011   6.250   4.384  12.168 -2.3810 -0.3683  0.4105
14840TIP3    H266012   6.326   4.261  12.212  0.7902  0.9160 -1.1174
14841TIP3   OH266013   0.114   0.306   6.077 -0.1953 -0.1983 -0.1575
14841TIP3    H166014   0.094   0.388   6.124 -0.3346  0.6603 -1.6406
14841TIP3    H266015   0.209   0.305   6.071 -0.2328  1.2640 -2.3837
14842TIP3   OH266016   5.486   0.449  13.493  0.1043  0.4729  0.0091
14842TIP3    H166017   5.521   0.488  13.413  0.9435 -0.3581 -0.0444
14842TIP3    H266018   5.398   0.485  13.501  0.7105  2.0780 -0.2305
14843TIP3   OH266019   5.108   2.401   5.928  0.1623  0.3118  0.1030
14843TIP3    H166020   5.159   2.320   5.922  0.8813  0.8078 -0.5988
14843TIP3    H266021   5.024   2.380   5.886  0.0319 -0.2979  0.6407
14844TIP3   OH266022   3.028   1.229  13.724 -0.0774 -0.0138  0.2157
14844TIP3    H166023   3.063   1.263  13.806  1.6172 -1.1874  0.0250
14844TIP3    H266024   3.077   1.148  13.709  0.2600  0.5982 -2.3869
14845TIP3   OH266025   2.662   0.499  13.029  0.0568  0.2348  0.5494
14845TIP3    H166026   2.603   0.571  13.048  1.2603  1.7229 -1.0576
14845TIP3    H266027   2.661   0.446  13.109  0.5838  3.0419  2.5816
14846TIP3   OH266028   0.446   1.798   6.300  0.3449 -0.2097 -0.2549
14846TIP3    H166029   0.362   1.827   6.263  1.6330 -0.6602 -4.0515
14846TIP3    H266030   0.434   1.704   6.315  0.2284 -0.3366 -1.0800
14847TIP3   OH266031   4.436   1.992  16.503  0.2445 -0.5380 -0.3466
14847TIP3    H166032   4.432   1.939  16.582  0.3189  0.2557  0.2080
14847TIP3    H266033   4.507   2.055  16.520 -0.2370  0.1237 -0.7216
14848TIP3   OH266034   4.285   5.633   0.599 -0.5271  0.4729 -0.3548
14848TIP3    H166035   4.334   5.611   0.519 -1.4484  1.2241 -1.1420
14848TIP3    H266036   4.315   5.721   0.621 -3.5030  2.2190 -2.5129
14849TIP3   OH266037   4.596   0.592  15.500 -0.1543  0.0361 -0.3529
14849TIP3    H166038   4.574   0.556  15.586  1.0611 -1.4866 -0.6395
14849TIP3    H266039   4.646   0.671  15.520  1.0769 -0.8952  0.3869
14850TIP3   OH266040   0.215   6.033  16.015  0.2210  0.2470  0.3013
14850TIP3    H166041   0.310   6.035  16.014  0.2295 -0.0783  0.2697
14850TIP3    H266042   0.190   6.003  15.927 -0.0197  3.3646 -0.8142
14851TIP3   OH266043   0.851   1.176  16.484  0.1558 -0.9569  0.7905
14851TIP3    H166044   0.861   1.096  16.536  1.6392  0.1777  2.3583
14851TIP3    H266045   0.799   1.234  16.540  0.5665 -0.2165  0.4092
14852TIP3   OH266046   5.675   1.180  13.093  0.1613  0.3011  0.5801
14852TIP3    H166047   5.671   1.122  13.170 -2.1287  0.9508  1.0076
14852TIP3    H266048   5.761   1.222  13.100  1.7251 -2.5816  0.5300
14853TIP3   OH266049   1.309   6.747   5.004 -0.4897  0.3799  0.3741
14853TIP3    H166050   1.251   6.820   5.025 -0.1126  0.3381  1.6232
14853TIP3    H266051   1.280   6.718   4.917 -1.8750  0.8109  0.6609
14854TIP3   OH266052   3.098   4.840   2.106 -0.0355 -0.4163 -0.4964
14854TIP3    H166053   3.108   4.813   2.015  1.1738  0.1470 -0.5482
14854TIP3    H266054   3.151   4.920   2.114  0.8057 -1.0719  0.9660
14855TIP3   OH266055   5.282   1.259  12.288 -0.0906 -0.3554  0.0806
14855TIP3    H166056   5.195   1.231  12.261 -0.3251 -0.4566  0.8900
14855TIP3    H266057   5.287   1.234  12.381  0.8257 -0.4156  0.0204
14856TIP3   OH266058   0.716   2.848   0.722 -0.1877 -0.2643 -0.3654
14856TIP3    H166059   0.753   2.788   0.658  1.0892  1.2847 -1.1376
14856TIP3    H266060   0.654   2.795   0.772  2.2802 -2.7167  0.2954
14857TIP3   OH266061   0.613   5.804   3.936 -0.0299 -0.1057  0.0640
14857TIP3    H166062   0.559   5.757   3.999 -0.7863  2.2465  1.2936
14857TIP3    H266063   0.700   5.805   3.975  0.9240 -3.3308 -1.6136
14858TIP3   OH266064   6.596   0.979   1.307  0.2897 -0.1351  0.0119
14858TIP3    H166065   6.562   1.065   1.333 -0.2432 -0.2312 -0.3468
14858TIP3    H266066   6.558   0.918   1.371 -1.2598 -0.4122 -1.0906
14859TIP3   OH266067   6.513   2.085  16.535  0.4510  0.0810  0.2867
14859TIP3    H166068   6.452   2.155  16.557  0.8576  0.3940  0.4411
14859TIP3    H266069   6.592   2.106  16.585  0.4539 -0.6918  0.6339
14860TIP3   OH266070   0.513   0.376  14.623  0.3406 -0.5930  0.6649
14860TIP3    H166071   0.478   0.434  14.556 -0.6642 -1.6305  0.2646
14860TIP3    H266072   0.608   0.386  14.616  0.2650 -0.8865 -1.0946
14861TIP3   OH266073   3.202   6.739  13.654 -0.2724 -0.6090 -0.2220
14861TIP3    H166074   3.255   6.706  13.581 -0.5508  0.7109 -1.0546
14861TIP3    H266075   3.180   6.661  13.705 -0.0479 -1.5698 -1.5407
14862TIP3   OH266076   5.550   4.629  10.883 -0.0427 -0.6159 -0.0816
14862TIP3    H166077   5.528   4.719  10.860  0.2550 -0.5979 -0.2989
14862TIP3    H266078   5.468   4.581  10.872 -0.5418 -0.1393  1.3195
14863TIP3   OH266079   1.532   5.250  14.583 -0.0848 -0.5303  0.8767
14863TIP3    H166080   1.452   5.209  14.615  0.4909 -1.4708  1.1585
14863TIP3    H266081   1.520   5.255  14.488 -0.4580 -0.6975  0.9133
14864TIP3   OH266082   3.224   1.122  10.337  0.1716 -0.1418 -0.4056
14864TIP3    H166083   3.277   1.116  10.416 -1.1716 -1.1300  0.4674
14864TIP3    H266084   3.238   1.210  10.304 -1.6167  1.4647  2.6851
14865TIP3   OH266085   4.976   6.471   0.028  0.0331 -0.0913 -0.1184
14865TIP3    H166086   4.898   6.430   0.065 -0.2895  0.2921 -0.3698
14865TIP3    H266087   5.047   6.446   0.087  0.1576 -2.4094 -1.1443
14866TIP3   OH266088   1.882   4.625   4.209  0.3462 -0.2470 -0.0118
14866TIP3    H166089   1.819   4.664   4.149  1.8924 -1.0952 -2.3725
14866TIP3    H266090   1.961   4.679   4.200  0.0850  0.7638  2.8201
14867TIP3   OH266091   4.101   0.803   4.503 -0.2742 -0.5217  0.1613
14867TIP3    H166092   4.124   0.838   4.590  1.3142  0.8747 -0.7580
14867TIP3    H266093   4.114   0.709   4.512  0.1392 -0.3726  1.3781
14868TIP3   OH266094   2.514   4.083   4.115  0.2425 -0.6085 -0.3072
14868TIP3    H166095   2.461   4.004   4.103 -2.1308  0.6912  0.7283
14868TIP3    H266096   2.449   4.152   4.134  2.3742  0.7934  2.7198
14869TIP3   OH266097   2.462   2.061   1.969 -0.1661 -0.3716 -0.0198
14869TIP3    H166098   2.549   2.096   1.951  0.0689  0.4869  2.4932
14869TIP3    H266099   2.475   1.966   1.971  0.4505 -0.3198 -0.7866
14870TIP3   OH266100   0.803   2.276  13.900  0.3703  0.0318  0.2695
14870TIP3    H166101   0.829   2.184  13.894  0.8772  0.2462 -1.5715
14870TIP3    H266102   0.721   2.275  13.949  0.5232 -1.3705  0.5353
14871TIP3   OH266103   4.950   3.530   3.001  0.3387 -0.2845 -0.4185
14871TIP3    H166104   4.985   3.480   3.075  1.8838  1.1290 -0.1147
14871TIP3    H266105   5.023   3.587   2.976 -1.4827  2.1764 -0.3926
14872TIP3   OH266106   1.780   5.223   1.321  0.1865  0.4361 -0.0136
14872TIP3    H166107   1.770   5.270   1.404  0.8701  1.1348 -0.3145
14872TIP3    H266108   1.819   5.139   1.345  0.2578  0.5850  0.3921
14873TIP3   OH266109   2.411   3.928   1.207 -0.1895  0.4013  0.5520
14873TIP3    H166110   2.344   3.992   1.180 -0.1030  0.1789 -0.2322
14873TIP3    H266111   2.494   3.975   1.198 -0.2180  0.5912  1.2601
14874TIP3   OH266112   1.613   4.703  11.226  0.3053  0.5585 -0.6820
14874TIP3    H166113   1.671   4.669  11.294 -0.9022 -1.0401 -0.3943
14874TIP3    H266114   1.654   4.674  11.144 -0.9926 -2.3094 -0.4408
14875TIP3   OH266115   3.516   5.669  14.981 -0.0032 -0.2266 -0.1273
14875TIP3    H166116   3.605   5.699  14.963 -0.3830  1.3754  0.5222
14875TIP3    H266117   3.527   5.596  15.042  0.9212 -1.1702 -1.3641
14876TIP3   OH266118   0.520   5.349   1.184  0.2106 -0.2108  0.3814
14876TIP3    H166119   0.522   5.261   1.147 -0.4071 -0.2405  0.4128
14876TIP3    H266120   0.566   5.341   1.268 -1.4782 -0.9429  1.2895
14877TIP3   OH266121   6.625   6.647  16.676  0.4365  0.1944 -0.1367
14877TIP3    H166122   6.707   6.647  16.727  0.4942 -1.0609 -0.1988
14877TIP3    H266123   6.591   6.558  16.686  0.2134  0.0446 -1.9283
14878TIP3   OH266124   6.512   5.980  15.391 -0.1216 -0.4979 -0.2413
14878TIP3    H166125   6.497   6.056  15.333 -0.6054 -2.0442 -2.2554
14878TIP3    H266126   6.598   5.997  15.429 -0.2169  1.0666 -0.6178
14879TIP3   OH266127   2.948   1.660  11.869 -0.4179  0.6666 -0.1767
14879TIP3    H166128   2.924   1.732  11.928  1.9509  1.6038 -0.2280
14879TIP3    H266129   2.901   1.584  11.903  0.5058  1.2713  2.6853
14880TIP3   OH266130   5.223   1.725   2.023  0.0654  0.2946 -0.6330
14880TIP3    H166131   5.308   1.716   2.066  1.0097  2.0523 -1.9833
14880TIP3    H266132   5.172   1.650   2.053  2.4171 -1.3549 -0.5105
14881TIP3   OH266133   1.758   2.705  15.898 -0.5228 -0.5410  0.6063
14881TIP3    H166134   1.839   2.757  15.904 -1.1341  0.9841 -2.1766
14881TIP3    H266135   1.706   2.733  15.973  0.1623  1.1005  0.5161
14882TIP3   OH266136   0.284   0.774  14.437 -0.7088  0.0097 -0.0287
14882TIP3    H166137   0.257   0.851  14.387  0.7406  1.3440  1.1691
14882TIP3    H266138   0.224   0.772  14.512  1.1108  1.8250  1.5764
14883TIP3   OH266139   1.882   6.634   3.187  0.1349  0.0625  0.2323
14883TIP3    H166140   1.880   6.539   3.182 -0.3143  0.0219  1.0915
14883TIP3    H266141   1.877   6.654   3.280  1.7416  0.9035  0.1699
14884TIP3   OH266142   0.167   0.171  16.018  0.4373 -0.1104 -0.3018
14884TIP3    H166143   0.179   0.078  16.037  2.0885  0.2332  0.5934
14884TIP3    H266144   0.127   0.173  15.931 -1.2877 -1.6632  0.4049
14885TIP3   OH266145   0.699   4.495   3.631  0.0181  0.3705 -0.1421
14885TIP3    H166146   0.754   4.429   3.672 -0.2948 -0.4322 -0.9884
14885TIP3    H266147   0.657   4.450   3.558 -0.5637  1.3800 -0.4543
14886TIP3   OH266148   2.363   0.937   2.512 -0.0237 -0.1042 -0.3625
14886TIP3    H166149   2.306   0.926   2.588 -1.0453  0.9359 -0.9434
14886TIP3    H266150   2.306   0.975   2.445  0.8513 -0.9818 -1.6543
14887TIP3   OH266151   0.924   3.422  12.418  0.0269 -0.5521 -0.1123
14887TIP3    H166152   1.015   3.444  12.439 -1.0925  2.8219  2.2868
14887TIP3    H266153   0.872   3.487  12.466 -3.7078 -2.3937 -1.2065
14888TIP3   OH266154   2.613   0.534  14.058  0.0214  0.2617 -0.2750
14888TIP3    H166155   2.569   0.463  14.104  0.9973  0.0459  0.3587
14888TIP3    H266156   2.543   0.595  14.034 -0.7382 -0.5970 -0.2614
14889TIP3   OH266157   1.162   6.648  15.836 -0.4365  0.4267  0.2871
14889TIP3    H166158   1.072   6.669  15.814 -0.5879 -1.5006 -1.1572
14889TIP3    H266159   1.176   6.559  15.803  1.0061 -0.6475  3.3466
14890TIP3   OH266160   4.332   0.971   0.399 -0.4582 -0.7983  0.0537
14890TIP3    H166161   4.309   0.955   0.308 -0.7129 -0.4484  0.0547
14890TIP3    H266162   4.255   1.014   0.437 -0.1812 -0.5137  0.3086
14891TIP3   OH266163   5.827   3.827   4.883 -0.1500  0.0946 -0.8671
14891TIP3    H166164   5.840   3.918   4.907  2.1043 -0.4915  0.4316
14891TIP3    H266165   5.828   3.780   4.966 -0.0237 -1.2369 -1.5951
14892TIP3   OH266166   5.576   4.044  14.924 -0.6350 -0.2358  0.1362
14892TIP3    H166167   5.547   4.001  15.005 -2.1929  1.3028  0.4678
14892TIP3    H266168   5.506   4.024  14.861  0.0088 -0.4770 -0.5137
14893TIP3   OH266169   1.275   3.603  11.116  0.4253  0.1156  0.5439
14893TIP3    H166170   1.344   3.652  11.161  1.6228 -1.6274  0.7382
14893TIP3    H266171   1.198   3.611  11.172  0.4433  2.0672  0.3528
14894TIP3   OH266172   6.707   1.998  16.068 -0.6906 -0.0893  0.1141
14894TIP3    H166173   6.641   2.046  16.018 -0.0787  0.6256 -0.0309
14894TIP3    H266174   6.664   1.976  16.150 -0.0887  3.4629  1.5383
14895TIP3   OH266175   4.043   3.007   1.202  0.1777 -0.2319 -0.5434
14895TIP3    H166176   3.982   2.948   1.157  1.3173 -2.2346  0.3939
14895TIP3    H266177   4.081   2.953   1.272  2.1437  1.2832 -0.3571
14896TIP3   OH266178   2.339   1.380  16.149 -0.6089 -0.2310  0.3664
14896TIP3    H166179   2.322   1.287  16.163 -0.0733 -0.3626  0.1509
14896TIP3    H266180   2.327   1.394  16.055 -0.6099 -0.0996  0.3844
14897TIP3   OH266181   3.530   5.668   0.880  0.0051  0.6679 -0.6719
14897TIP3    H166182   3.612   5.635   0.845  0.0289 -0.0728  0.0373
14897TIP3    H266183   3.472   5.591   0.883  0.9306 -0.1233  3.5954
14898TIP3   OH266184   3.861   5.961   0.990 -0.2819 -0.0650 -0.5290
14898TIP3    H166185   3.943   5.913   0.976 -0.6118 -1.4596  1.8156
14898TIP3    H266186   3.885   6.053   0.974  1.3991 -0.5623 -1.1329
14899TIP3   OH266187   1.663   3.794  14.128 -0.0181 -0.4333 -0.0255
14899TIP3    H166188   1.588   3.810  14.185  0.4256  0.5814  0.2919
14899TIP3    H266189   1.668   3.699  14.121 -0.8121 -0.5318  0.6431
14900TIP3   OH266190   3.936   0.101  16.470 -0.0178  0.0140  0.9008
14900TIP3    H166191   3.961   0.121  16.379  3.0304 -1.1373  1.3619
14900TIP3    H266192   3.857   0.047  16.461  1.1007 -1.4623 -1.2585
14901TIP3   OH266193   4.138   0.270   3.967  0.3844  0.1427 -0.2359
14901TIP3    H166194   4.073   0.272   3.898  1.1222  0.7721 -0.9314
14901TIP3    H266195   4.087   0.273   4.048 -0.4582  0.1111 -0.7505
14902TIP3   OH266196   4.093   6.182   5.842  0.4476  0.3516  0.2144
14902TIP3    H166197   4.083   6.241   5.917  1.2106 -0.3030  0.8466
14902TIP3    H266198   4.180   6.142   5.854 -0.2417 -1.2675  0.0596
14903TIP3   OH266199   1.080   4.125   4.810 -0.5666 -0.0722  0.2014
14903TIP3    H166200   1.091   4.142   4.903  0.6495 -1.5427  0.3722
14903TIP3    H266201   1.015   4.054   4.806  0.2714 -0.8602  0.0439
14904TIP3   OH266202   6.442   0.054  12.606 -0.2625 -0.2455 -0.0162
14904TIP3    H166203   6.464  -0.030  12.567 -1.5972  0.5028 -2.5582
14904TIP3    H266204   6.526   0.087  12.640  0.4359 -2.1673  0.2269
14905TIP3   OH266205   6.326   2.397   1.985  0.7167 -0.2243 -0.5762
14905TIP3    H166206   6.340   2.371   1.894  0.1348  2.7789 -1.6207
14905TIP3    H266207   6.399   2.456   2.004  0.6904 -0.6174  0.8579
14906TIP3   OH266208   4.947   3.393  16.307  0.3793 -0.3106  0.1385
14906TIP3    H166209   4.887   3.449  16.257  1.0121  0.5308  0.3062
14906TIP3    H266210   4.898   3.311  16.320 -1.3509  0.8834  1.5957
14907TIP3   OH266211   0.274   1.469   4.493 -0.8715  0.2670  0.8919
14907TIP3    H166212   0.345   1.413   4.524 -0.9937  0.4183  1.4558
14907TIP3    H266213   0.207   1.409   4.462 -0.1533  0.1247 -0.4591
14908TIP3   OH266214   0.178   6.838   4.312 -0.4685 -0.3060 -0.3165
14908TIP3    H166215   0.223   6.788   4.380 -0.2514  1.1712  0.6656
14908TIP3    H266216   0.136   6.910   4.359  0.2476  1.1533 -1.8125
14909TIP3   OH266217   5.423   2.827   5.478 -0.0600  0.0186  0.1523
14909TIP3    H166218   5.502   2.847   5.529 -1.2056  0.7400  1.7296
14909TIP3    H266219   5.363   2.900   5.497 -0.3352  0.6384 -2.7631
14910TIP3   OH266220   2.870   3.460   0.523  0.1432  0.5109  0.5012
14910TIP3    H166221   2.821   3.542   0.512 -0.0773  0.2843 -0.3027
14910TIP3    H266222   2.876   3.448   0.618  0.5773  1.6927  0.6484
14911TIP3   OH266223   4.766   3.626  10.657 -0.4185  0.6857  0.1400
14911TIP3    H166224   4.842   3.570  10.669  0.9801  2.6694  1.1794
14911TIP3    H266225   4.694   3.566  10.636  1.3884 -1.2555 -0.8179
14912TIP3   OH266226   1.818   3.953  12.579  0.0767  0.1517 -0.0049
14912TIP3    H166227   1.830   3.926  12.488  0.6696  0.5580 -0.0479
14912TIP3    H266228   1.826   4.048  12.578 -0.6519  0.2278  0.3649
14913TIP3   OH266229   2.818   0.107   3.550  0.0854  0.8443 -0.2783
14913TIP3    H166230   2.869   0.159   3.613  0.5350 -0.7645  0.7544
14913TIP3    H266231   2.862   0.022   3.549 -1.6442 -0.0871 -0.5836
14914TIP3   OH266232   4.314   1.552  11.963  0.1929  0.1592 -0.5921
14914TIP3    H166233   4.344   1.576  11.876  0.6465 -1.4888 -0.9212
14914TIP3    H266234   4.227   1.514  11.949 -0.2996  1.0816 -0.1461
14915TIP3   OH266235   3.250   4.151  14.980 -0.3025 -0.1922 -0.0469
14915TIP3    H166236   3.181   4.145  14.915 -2.1883  1.5563  1.6564
14915TIP3    H266237   3.219   4.098  15.053 -0.8993  2.1252  1.5067
14916TIP3   OH266238   1.936   0.980  16.062 -0.5928  0.4146  0.3782
14916TIP3    H166239   1.863   0.957  16.005 -1.3904  0.2498  1.4361
14916TIP3    H266240   1.993   1.034  16.007 -1.1135 -0.0832 -0.6889
14917TIP3   OH266241   0.184   5.189  12.352  0.3077  0.3616 -0.2724
14917TIP3    H166242   0.253   5.178  12.419  0.7204 -2.6230 -1.0532
14917TIP3    H266243   0.232   5.194  12.269 -0.3440  0.7636 -0.6328
14918TIP3   OH266244   1.225   6.668  10.969  0.2938  0.2932 -0.0541
14918TIP3    H166245   1.277   6.731  10.920 -2.0090  1.5205 -1.0751
14918TIP3    H266246   1.215   6.593  10.910  0.4837  0.2739 -0.0608
14919TIP3   OH266247   0.970   2.714  16.677 -0.0313 -0.5471  0.4774
14919TIP3    H166248   1.003   2.697  16.589  0.8909  2.5817  0.1089
14919TIP3    H266249   0.887   2.668  16.681  0.3609 -1.5523 -1.6762
14920TIP3   OH266250   0.224   3.701   3.036 -0.0285 -0.1346  0.8560
14920TIP3    H166251   0.229   3.714   2.941  0.6280  1.5569  1.0844
14920TIP3    H266252   0.134   3.726   3.058 -0.8535 -2.4877  0.4713
14921TIP3   OH266253   0.869   1.294  12.653 -0.0462  0.8677  0.2684
14921TIP3    H166254   0.793   1.330  12.698 -0.1443  0.9176  0.0655
14921TIP3    H266255   0.938   1.360  12.666  0.2139  0.4272  1.1776
14922TIP3   OH266256   1.158   5.604  11.553  0.0387 -0.6375 -0.5186
14922TIP3    H166257   1.177   5.551  11.476 -3.1624 -0.2793 -1.6804
14922TIP3    H266258   1.188   5.692  11.530  1.5788 -1.0517 -0.2112
14923TIP3   OH266259   2.381   3.337   3.316 -0.1416 -0.0751 -0.0949
14923TIP3    H166260   2.319   3.355   3.387  0.6965  0.7062  0.4556
14923TIP3    H266261   2.449   3.285   3.357  1.5440  2.2851  0.3161
14924TIP3   OH266262   0.267   0.571  14.822  0.5239  0.2037  0.3988
14924TIP3    H166263   0.353   0.575  14.781  0.7352  2.3366  0.9272
14924TIP3    H266264   0.285   0.555  14.915  0.3435  0.4236  0.4729
14925TIP3   OH266265   1.877   5.383   3.722 -0.3181  0.1907 -0.4125
14925TIP3    H166266   1.820   5.411   3.794  0.9124 -0.7081  0.9701
14925TIP3    H266267   1.937   5.456   3.710  0.1984 -0.1039  0.2864
14926TIP3   OH266268   4.206   5.763   5.333  0.2685  0.4130 -0.1286
14926TIP3    H166269   4.152   5.685   5.325  1.1406 -0.1209 -0.9491
14926TIP3    H266270   4.294   5.730   5.350  0.6414  1.2195 -0.4490
14927TIP3   OH266271   5.011   2.827  11.281  0.4179  0.4314 -0.3612
14927TIP3    H166272   5.091   2.808  11.233 -0.0093 -0.3102 -0.7977
14927TIP3    H266273   5.040   2.868  11.362  1.2499 -0.0712 -0.4028
14928TIP3   OH266274   5.684   3.785  16.158 -0.5057  0.2708  0.5474
14928TIP3    H166275   5.683   3.840  16.236  0.4981 -0.2593  0.9458
14928TIP3    H266276   5.608   3.815  16.107  0.5697  2.7492  0.2503
14929TIP3   OH266277   0.864   6.275  14.484  0.5002  0.1153 -0.0877
14929TIP3    H166278   0.954   6.245  14.480 -0.2924 -2.4523 -4.1880
14929TIP3    H266279   0.847   6.313  14.398 -2.0552  1.6394  0.9596
14930TIP3   OH266280   5.875   3.358  15.290  0.3993  0.1824 -0.2752
14930TIP3    H166281   5.956   3.364  15.239 -1.0941  0.7749 -2.7816
14930TIP3    H266282   5.857   3.448  15.317  0.4106  0.0991  0.0155
14931TIP3   OH266283   4.795   4.237  12.414 -0.0103  0.4735  0.8113
14931TIP3    H166284   4.810   4.227  12.320  1.0550  0.7688  0.9425
14931TIP3    H266285   4.840   4.317  12.437 -2.0412  1.5697  1.2118
14932TIP3   OH266286   1.144   5.702   3.731  0.1799  0.0180 -0.1167
14932TIP3    H166287   1.135   5.797   3.734 -0.0207 -0.0001 -0.1608
14932TIP3    H266288   1.054   5.669   3.723  0.1387 -0.2191  1.1619
14933TIP3   OH266289   1.904   5.550   3.188  0.0956  0.4149 -0.7382
14933TIP3    H166290   1.954   5.470   3.175 -0.1404  0.2612 -0.7063
14933TIP3    H266291   1.949   5.616   3.136  0.2521  0.2443 -0.8165
14934TIP3   OH266292   1.678   4.744   0.216 -0.7492 -0.3789 -0.5667
14934TIP3    H166293   1.719   4.679   0.273  0.2781  0.4272 -0.3597
14934TIP3    H266294   1.585   4.742   0.241 -1.1074 -2.9354 -1.7272
14935TIP3   OH266295   1.957   4.765   4.613 -0.7451  0.2855  0.1016
14935TIP3    H166296   1.873   4.727   4.588 -0.2494 -0.5265 -0.3665
14935TIP3    H266297   1.958   4.852   4.574 -0.5409 -0.4571 -1.6175
14936TIP3   OH266298   3.153   4.028  14.169  0.1118 -0.5394 -0.3063
14936TIP3    H166299   3.162   4.009  14.263  2.9758 -3.1720 -0.9112
14936TIP3    H266300   3.223   4.090  14.151 -0.3405 -0.1505 -0.7323
14937TIP3   OH266301   5.470   4.687   3.877 -0.1082  0.3315  0.0744
14937TIP3    H166302   5.461   4.592   3.889 -0.5059  0.1251 -1.6196
14937TIP3    H266303   5.554   4.698   3.832 -0.9266  0.5892 -1.4458
14938TIP3   OH266304   5.828   4.369   5.593 -0.2625 -0.1787  0.5053
14938TIP3    H166305   5.800   4.446   5.544 -1.4435 -1.8601 -1.6520
14938TIP3    H266306   5.896   4.401   5.652 -0.6306  2.4605 -0.3829
14939TIP3   OH266307   2.579   4.001  14.344 -0.0828  0.0206  0.2283
14939TIP3    H166308   2.512   4.051  14.390 -1.0452 -1.4573  0.5033
14939TIP3    H266309   2.656   4.057  14.344 -0.9596  1.2500  1.0073
14940TIP3   OH266310   3.837   0.786   2.760  0.0048  0.2409  0.2853
14940TIP3    H166311   3.913   0.801   2.703  0.4113 -1.3287  0.3684
14940TIP3    H266312   3.774   0.740   2.703  0.1326 -0.7027  0.8834
14941TIP3   OH266313   4.440   0.389   3.023  0.3414  0.4068 -0.0000
14941TIP3    H166314   4.415   0.345   2.941 -0.1400 -2.4361  1.5441
14941TIP3    H266315   4.519   0.438   3.001 -1.4012  2.2143 -2.8353
14942TIP3   OH266316   0.209   3.101  13.518 -0.3578 -0.2613 -0.1886
14942TIP3    H166317   0.300   3.087  13.491 -0.3806 -1.2033  0.1760
14942TIP3    H266318   0.214   3.170  13.584 -0.1837  1.3386 -1.7870
14943TIP3   OH266319   5.317   2.140   4.351 -0.1353 -0.2048  0.7585
14943TIP3    H166320   5.237   2.163   4.399 -0.1239 -0.2228  0.7857
14943TIP3    H266321   5.354   2.066   4.399  0.3652  0.3629  1.2619
14944TIP3   OH266322   4.589   4.682  12.930 -0.8903  0.0278  0.4500
14944TIP3    H166323   4.593   4.591  12.962  0.9613 -0.0672  0.0634
14944TIP3    H266324   4.498   4.707  12.942 -1.5498 -2.0270  0.1868
14945TIP3   OH266325   0.079   4.239  12.657  0.3963  0.4783 -0.1706
14945TIP3    H166326   0.074   4.300  12.583 -2.0710  0.2533 -0.2666
14945TIP3    H266327   0.105   4.155  12.616  0.3952  0.6660 -0.5638
14946TIP3   OH266328   4.919   3.927   2.844  0.0761  0.0128 -0.2348
14946TIP3    H166329   4.984   3.988   2.809 -0.0912 -1.4095 -3.4223
14946TIP3    H266330   4.971   3.867   2.898  0.8626  0.7418 -0.1479
14947TIP3   OH266331   2.564   0.850   5.098  0.4465 -0.6116 -0.3326
14947TIP3    H166332   2.583   0.768   5.143 -2.6579  0.0357  2.5880
14947TIP3    H266333   2.479   0.835   5.057  0.6172  0.6402 -1.1798
14948TIP3   OH266334   0.346   4.131   3.296 -0.5607 -0.5126 -1.0986
14948TIP3    H166335   0.354   4.132   3.201  0.4656 -1.1465 -1.0351
14948TIP3    H266336   0.335   4.038   3.318 -0.4960 -0.3989 -0.5715
14949TIP3   OH266337   5.140   3.186  14.449 -0.1695  0.5701 -0.4620
14949TIP3    H166338   5.110   3.118  14.510 -0.8238  0.6078 -0.7351
14949TIP3    H266339   5.218   3.148  14.409  0.9068  0.9637  1.1506
14950TIP3   OH266340   3.326   3.307  10.748 -0.2453  1.0311 -0.7051
14950TIP3    H166341   3.275   3.241  10.701  0.2384 -1.1332  1.5674
14950TIP3    H266342   3.284   3.312  10.834  0.2740  3.1034 -0.5341
14951TIP3   OH266343   0.016   3.625   0.211 -0.2240  0.0519 -0.1802
14951TIP3    H166344  -0.069   3.605   0.172 -0.1321 -1.3575  0.2784
14951TIP3    H266345   0.033   3.716   0.187 -2.7698  1.0556  1.4373
14952TIP3   OH266346   2.586   6.487  11.405  0.5266 -0.1178  0.3482
14952TIP3    H166347   2.585   6.578  11.434  0.0351 -0.1046  0.3040
14952TIP3    H266348   2.635   6.488  11.323 -0.8257  0.3739 -0.4885
14953TIP3   OH266349   6.470   6.551   5.311  0.3064  0.1925  0.0592
14953TIP3    H166350   6.388   6.587   5.345  0.3762 -0.9508  1.4955
14953TIP3    H266351   6.470   6.577   5.219 -1.9550 -0.2989 -0.1374
14954TIP3   OH266352   0.042   4.989  16.698  0.5067 -0.1262 -0.0201
14954TIP3    H166353   0.027   5.066  16.753 -0.0413 -0.3900  0.1990
14954TIP3    H266354  -0.041   4.942  16.699 -0.1219  0.7774 -2.5081
14955TIP3   OH266355   3.804   1.128  16.207  0.2856  0.1217 -0.0087
14955TIP3    H166356   3.717   1.164  16.224  0.2523  0.7803 -1.4225
14955TIP3    H266357   3.851   1.199  16.162  0.7954 -0.9687 -1.2781
14956TIP3   OH266358   6.428   2.723   0.192 -0.0472 -0.5020 -0.1733
14956TIP3    H166359   6.501   2.690   0.139  0.7600  2.1987 -0.9244
14956TIP3    H266360   6.366   2.758   0.129 -1.0471 -0.9217  0.5547
14957TIP3   OH266361   4.900   2.877  13.949 -0.2312 -0.1010 -0.1563
14957TIP3    H166362   4.817   2.916  13.975  0.3975  1.0982  0.1671
14957TIP3    H266363   4.936   2.841  14.030  0.5839  1.4184  0.2001
14958TIP3   OH266364   2.047   3.578  16.809  0.2589  0.6618 -0.3990
14958TIP3    H166365   2.065   3.576  16.903  2.1309 -0.1268 -0.7374
14958TIP3    H266366   2.092   3.656  16.777 -0.0190  0.6975 -0.7182
14959TIP3   OH266367   3.395   5.542  13.199  0.7312  0.2195 -0.0671
14959TIP3    H166368   3.376   5.634  13.181 -0.5724  0.2068  1.0858
14959TIP3    H266369   3.321   5.495  13.159  0.4465 -0.1724  0.8944
14960TIP3   OH266370   6.136   3.462  16.698 -0.4170 -0.8849  0.1890
14960TIP3    H166371   6.199   3.422  16.639  0.1691  0.3293 -0.0324
14960TIP3    H266372   6.090   3.527  16.644 -1.9353 -1.7964  0.3174
14961TIP3   OH266373   4.085   6.346   6.059  0.4457  1.0085  0.0701
14961TIP3    H166374   4.002   6.376   6.095 -1.4923 -2.7848 -0.8220
14961TIP3    H266375   4.135   6.317   6.136  1.0036  3.1314  0.5892
14962TIP3   OH266376   1.482   0.434   1.204 -0.3543  0.2390  0.0894
14962TIP3    H166377   1.387   0.447   1.208 -0.2423  2.3874 -2.2433
14962TIP3    H266378   1.500   0.410   1.114  1.3360 -0.0807  0.4740
14963TIP3   OH266379   0.417   6.617   4.567  0.3787  0.2575 -0.2030
14963TIP3    H166380   0.343   6.592   4.513 -0.3557  0.1851  0.8032
14963TIP3    H266381   0.381   6.623   4.656  1.4586  0.7451  0.2219
14964TIP3   OH266382   1.324   5.831  17.121 -0.1018 -0.3194  0.1495
14964TIP3    H166383   1.407   5.876  17.136 -1.6692  2.4088  1.7569
14964TIP3    H266384   1.310   5.780  17.201  0.1519 -1.0052 -0.2421
14965TIP3   OH266385   3.122   0.518  14.699  0.3923  0.2366 -0.2880
14965TIP3    H166386   3.145   0.506  14.791 -0.8068  0.6279  0.0726
14965TIP3    H266387   3.203   0.550  14.659  0.6456  1.0753  0.8444
14966TIP3   OH266388   6.822   4.080  13.227 -0.2765  0.3787  0.0031
14966TIP3    H166389   6.857   4.004  13.181 -1.5207 -0.4290  0.3593
14966TIP3    H266390   6.779   4.045  13.305 -0.4476  1.4872  0.4379
14967TIP3   OH266391   3.543   3.142   4.620 -0.8071 -0.0721 -0.5735
14967TIP3    H166392   3.630   3.110   4.596 -0.2046  0.8450  0.2724
14967TIP3    H266393   3.484   3.069   4.602  0.1861 -0.8237 -0.8565
14968TIP3   OH266394   3.784   5.250  15.403  0.3823  0.0823  0.0951
14968TIP3    H166395   3.774   5.157  15.386 -0.3498 -0.0126  0.9642
14968TIP3    H266396   3.778   5.292  15.317 -0.0322 -0.6062 -0.2136
14969TIP3   OH266397   2.972   0.392   4.889 -0.0944 -0.1890 -0.7519
14969TIP3    H166398   3.047   0.419   4.942 -2.4373  2.0236  1.7860
14969TIP3    H266399   2.971   0.454   4.816  1.2997 -1.1627 -1.6414
14970TIP3   OH266400   1.997   0.442  15.436  0.6060  0.5266  0.2024
14970TIP3    H166401   1.997   0.361  15.385  1.8362 -0.3403  1.5060
14970TIP3    H266402   2.049   0.503  15.383 -0.1829  0.4448 -0.7081
14971TIP3   OH266403   6.826   6.009   1.867 -0.4381 -0.3233 -0.2704
14971TIP3    H166404   6.761   6.056   1.919 -0.7131 -0.6202 -0.3375
14971TIP3    H266405   6.898   6.071   1.855  0.3753 -0.7676  1.8404
14972TIP3   OH266406   0.579   5.219  14.231 -0.0780 -0.3119  0.2132
14972TIP3    H166407   0.562   5.313  14.224  1.0940 -0.0231  1.0338
14972TIP3    H266408   0.649   5.212  14.295 -1.2719 -1.8746  1.4309
14973TIP3   OH266409   5.178   1.743  12.579  0.8251  0.4707  0.2834
14973TIP3    H166410   5.259   1.785  12.606  0.5054  0.3225  1.5364
14973TIP3    H266411   5.196   1.649  12.584  1.2230  0.4091 -1.5321
14974TIP3   OH266412   2.364   1.721  12.518  0.5112  0.0178 -0.1061
14974TIP3    H166413   2.340   1.708  12.426  0.6267  1.3563 -0.3471
14974TIP3    H266414   2.455   1.693  12.524  0.8101  0.8332 -0.6400
14975TIP3   OH266415   3.113   1.363   2.582 -0.5188 -0.1035  0.2160
14975TIP3    H166416   3.072   1.435   2.630  1.7182  0.4551  1.4154
14975TIP3    H266417   3.040   1.318   2.541 -2.0170  2.9299 -0.7641
14976TIP3   OH266418   3.629   2.277  15.874 -0.3176 -0.4462 -0.2000
14976TIP3    H166419   3.678   2.350  15.835 -0.6819 -0.2394 -0.2720
14976TIP3    H266420   3.632   2.208  15.807  3.6527 -2.1466  1.4036
14977TIP3   OH266421   6.235   6.462   1.645  0.5224  0.4467 -0.1338
14977TIP3    H166422   6.230   6.536   1.586  0.5995 -0.6185 -1.5171
14977TIP3    H266423   6.329   6.448   1.659  0.7008 -1.3449 -2.5047
14978TIP3   OH266424   0.072   4.650  15.948 -0.3659  0.0558  0.0548
14978TIP3    H166425   0.093   4.654  15.855 -0.4862 -0.4673  0.0040
14978TIP3    H266426   0.046   4.740  15.971 -0.0610  0.2492 -0.3463
14979TIP3   OH266427   3.949   1.719  13.391 -0.9205  0.7233  0.3060
14979TIP3    H166428   3.903   1.645  13.433  0.8393 -0.7672 -0.2369
14979TIP3    H266429   3.892   1.744  13.318 -0.7695 -1.2949 -0.5699
14980TIP3   OH266430   5.176   1.854  13.779 -0.1481  0.0306  0.5650
14980TIP3    H166431   5.247   1.908  13.743  0.2379  0.2758  1.6328
14980TIP3    H266432   5.212   1.821  13.862 -0.7919 -0.9668  0.4550
14981TIP3   OH266433   4.709   0.428  16.327 -0.1706  1.0349  0.2058
14981TIP3    H166434   4.791   0.462  16.363 -1.2538  1.6297  2.2774
14981TIP3    H266435   4.712   0.450  16.234  2.4817  0.0641 -0.0182
14982TIP3   OH266436   3.431   1.584  13.477 -0.3775 -0.5610 -0.2329
14982TIP3    H166437   3.435   1.579  13.381 -1.5500  0.5697 -0.3711
14982TIP3    H266438   3.340   1.565  13.497 -0.4546  0.5821  0.5491
14983TIP3   OH266439   1.946   3.050  15.501 -0.2693 -0.2729 -0.2961
14983TIP3    H166440   1.996   2.984  15.549  0.5266  0.8721  0.4976
14983TIP3    H266441   1.969   3.133  15.544 -1.5425  0.4752 -1.0188
14984TIP3   OH266442   2.105   2.452  12.142 -0.2200  0.4327  0.0090
14984TIP3    H166443   2.053   2.506  12.200 -1.3391 -0.9507  0.3587
14984TIP3    H266444   2.046   2.431  12.069 -0.2112 -1.1998  0.4314
14985TIP3   OH266445   5.404   6.568  15.981 -0.3977 -0.0970 -0.0493
14985TIP3    H166446   5.369   6.619  16.054  0.9792  2.9806 -1.3649
14985TIP3    H266447   5.342   6.582  15.910 -1.2519 -2.3293  0.1842
14986TIP3   OH266448   2.389   0.515   3.885  0.0295  0.1326  0.2438
14986TIP3    H166449   2.379   0.422   3.867 -1.9850 -0.2500  2.6715
14986TIP3    H266450   2.468   0.521   3.939  0.7493  0.0081 -0.7735
14987TIP3   OH266451   1.146   3.096  15.319 -0.3072 -0.6932  0.4726
14987TIP3    H166452   1.208   3.034  15.357  0.6413  0.5140  0.9354
14987TIP3    H266453   1.118   3.151  15.392 -2.0457 -1.2719  0.3027
14988TIP3   OH266454   1.934   1.550  16.682 -0.2883 -0.1254  0.1267
14988TIP3    H166455   1.898   1.520  16.599  0.2628  0.8243 -0.4795
14988TIP3    H266456   1.964   1.639  16.664  0.2671 -0.0744  1.2200
14989TIP3   OH266457   4.614   0.764  10.875 -0.0908  0.1162  0.6150
14989TIP3    H166458   4.585   0.767  10.966 -0.7640  0.3121  0.3978
14989TIP3    H266459   4.661   0.846  10.862  1.7642 -0.7770  1.3488
14990TIP3   OH266460   2.108   4.318  14.395 -0.5072 -0.0088 -0.1049
14990TIP3    H166461   2.038   4.329  14.331 -1.4514  0.0362  0.9019
14990TIP3    H266462   2.162   4.396  14.385 -1.5054  0.7383  0.1643
14991TIP3   OH266463   0.643   0.803  15.403  0.3195 -0.0867  0.6973
14991TIP3    H166464   0.614   0.854  15.328 -0.5602 -2.5192 -0.7409
14991TIP3    H266465   0.718   0.851  15.438 -0.1014  1.8310 -0.8734
14992TIP3   OH266466   0.727   4.322  12.668  0.9022  0.3945  0.3793
14992TIP3    H166467   0.707   4.279  12.751  0.6856  0.7950  0.5333
14992TIP3    H266468   0.766   4.253  12.615 -0.0070 -0.1680  0.4118
14993TIP3   OH266469   5.494   5.385   1.369 -0.4299  0.2523  0.1713
14993TIP3    H166470   5.444   5.399   1.288 -1.1784 -0.6220  0.4628
14993TIP3    H266471   5.436   5.419   1.438 -0.5945 -0.6887  0.5060
14994TIP3   OH266472   6.346   4.376  12.599 -0.2048  0.0424  0.4514
14994TIP3    H166473   6.419   4.316  12.580  0.1200  0.3070  0.8486
14994TIP3    H266474   6.270   4.334  12.560  0.4826  0.6970 -1.7665
14995TIP3   OH266475   4.499   5.139   6.410 -0.4628  0.4438  0.1685
14995TIP3    H166476   4.437   5.183   6.352  2.0214  0.0450 -3.1120
14995TIP3    H266477   4.539   5.072   6.355  1.7645 -0.3441  2.5426
14996TIP3   OH266478   3.196   3.089   1.418  0.5362 -0.7032  0.1484
14996TIP3    H166479   3.121   3.143   1.443 -0.3472 -0.9630 -1.7814
14996TIP3    H266480   3.221   3.044   1.498  0.5214  1.6118  1.5443
14997TIP3   OH266481   3.662   4.159  15.793 -0.4277  0.3116  0.0255
14997TIP3    H166482   3.749   4.121  15.797 -0.1032  1.0847  0.5427
14997TIP3    H266483   3.603   4.086  15.811  0.1173 -0.1918 -0.2244
14998TIP3   OH266484   6.195   4.268   4.328  0.3276  0.2393 -0.6205
14998TIP3    H166485   6.266   4.309   4.376 -0.3858 -0.8397  1.5080
14998TIP3    H266486   6.229   4.182   4.303 -0.7277 -1.1458  2.2045
14999TIP3   OH266487   3.188   2.491  16.024 -0.1572  0.0019  0.0407
14999TIP3    H166488   3.180   2.461  15.934 -0.7571  0.1288  0.0433
14999TIP3    H266489   3.113   2.452  16.069 -0.5021  0.8501  0.2198
15000TIP3   OH266490   0.744   1.482  16.313 -0.2698 -0.1007  0.2393
15000TIP3    H166491   0.672   1.493  16.374 -0.1485 -1.2433  0.6073
15000TIP3    H266492   0.761   1.388  16.312 -0.0033 -0.0658 -1.2536
15001TIP3   OH266493   5.261   1.632   1.575  0.2667  0.2223  0.0176
15001TIP3    H166494   5.238   1.550   1.531 -1.3498  0.8712 -0.4292
15001TIP3    H266495   5.198   1.639   1.647  0.9039  0.6953  0.5375
15002TIP3   OH266496   2.509   6.025   1.062  0.6915  0.0415 -0.2793
15002TIP3    H166497   2.566   6.044   0.987 -0.5088 -0.2675 -1.3044
15002TIP3    H266498   2.421   6.021   1.025  0.1823 -1.1657  0.9712
15003TIP3   OH266499   1.166   4.102   0.350 -0.5912  0.1845  0.6424
15003TIP3    H166500   1.091   4.046   0.329  0.8485 -1.4564 -0.2988
15003TIP3    H266501   1.143   4.186   0.310 -1.9067 -0.2933  0.3157
15004TIP3   OH266502   4.603   2.079  16.793  0.2596 -0.0906  0.3568
15004TIP3    H166503   4.530   2.138  16.812  0.0121 -0.0189 -0.7198
15004TIP3    H266504   4.675   2.111  16.847 -0.7694 -0.7846  2.2248
15005TIP3   OH266505   3.198   6.445  10.485  0.2486  0.5686 -0.0435
15005TIP3    H166506   3.163   6.493  10.410  0.6361 -0.2330 -0.7492
15005TIP3    H266507   3.271   6.499  10.516 -0.3633  1.2627  0.2220
15006TIP3   OH266508   0.509   4.878   2.161 -0.2477  0.4423  0.1835
15006TIP3    H166509   0.431   4.930   2.176  0.0488  0.7583  0.6593
15006TIP3    H266510   0.578   4.924   2.208  0.3780  0.5612 -0.8109
15007TIP3   OH266511   3.034   1.034   2.183  0.1730 -0.2953  0.3823
15007TIP3    H166512   3.045   0.955   2.235 -0.4210 -0.4093  0.3444
15007TIP3    H266513   3.085   1.101   2.229 -0.1855 -0.4430  1.0014
15008TIP3   OH266514   4.749   2.863   3.790  0.2111 -0.2844  0.5655
15008TIP3    H166515   4.788   2.948   3.768 -0.2908  0.3691  2.0795
15008TIP3    H266516   4.697   2.840   3.713  3.4446 -1.2063 -1.5649
15009TIP3   OH266517   1.906   2.171   1.487  0.5822 -0.2124  0.0031
15009TIP3    H166518   1.836   2.187   1.424  2.4956 -0.4262 -2.3045
15009TIP3    H266519   1.911   2.075   1.493  1.1329 -0.2177 -0.4299
15010TIP3   OH266520   2.566   2.673  11.849 -0.0475 -0.3010 -0.3086
15010TIP3    H166521   2.497   2.714  11.900  0.0524  0.0831 -0.4823
15010TIP3    H266522   2.604   2.744  11.796  0.0082 -0.6440 -0.7411
15011TIP3   OH266523   2.605   2.110   0.468  0.0381  0.1008  0.4004
15011TIP3    H166524   2.635   2.196   0.439  0.3986 -0.7786 -2.1549
15011TIP3    H266525   2.510   2.113   0.457  0.0842  0.0784 -0.0298
15012TIP3   OH266526   0.168   4.911   4.529  0.4606 -0.0561  0.2093
15012TIP3    H166527   0.126   4.985   4.485  0.2109  0.0486  0.6122
15012TIP3    H266528   0.226   4.951   4.594  1.1193 -0.2023 -0.2792
15013TIP3   OH266529   5.707   1.443  16.041  0.4313  0.0632 -0.4546
15013TIP3    H166530   5.636   1.488  15.994  0.4976  0.4839 -0.1579
15013TIP3    H266531   5.685   1.350  16.033  1.0062  0.0545 -2.2099
15014TIP3   OH266532   4.276   5.896   0.196 -0.2608 -0.3068  0.2929
15014TIP3    H166533   4.225   5.833   0.145 -1.2662  0.5266  0.2336
15014TIP3    H266534   4.260   5.980   0.153  0.2905  0.1383  0.9410
15015TIP3   OH266535   1.180   0.755  15.376 -0.4826 -0.3112  0.0713
15015TIP3    H166536   1.249   0.719  15.432 -0.7387 -0.4629  0.2913
15015TIP3    H266537   1.135   0.818  15.431 -0.6984 -0.4164  0.0170
15016TIP3   OH266538   1.105   4.144   5.123  0.1125  0.0494  0.6525
15016TIP3    H166539   1.158   4.221   5.145 -0.3678  0.3990  0.6180
15016TIP3    H266540   1.059   4.123   5.204 -1.6710  1.3452  0.0773
15017TIP3   OH266541   1.178   5.185  11.516  0.7580 -0.4141  0.0736
15017TIP3    H166542   1.094   5.178  11.470  0.5248  0.2931  0.3759
15017TIP3    H266543   1.176   5.113  11.580 -0.1244  0.2769  0.8596
15018TIP3   OH266544   0.104   5.248  10.903  0.1065 -0.3487 -0.2221
15018TIP3    H166545   0.188   5.214  10.871  0.8786  0.6989  0.6514
15018TIP3    H266546   0.039   5.186  10.868  1.1123 -0.5694 -1.8381
15019TIP3   OH266547   4.760   2.736  15.025  0.1130  0.4589  0.4405
15019TIP3    H166548   4.763   2.755  15.119  0.1382  2.0179  0.1487
15019TIP3    H266549   4.681   2.684  15.014  0.9729 -1.1587  1.5422
15020TIP3   OH266550   4.091   2.289  16.591  0.0240 -0.4041  0.0064
15020TIP3    H166551   4.057   2.214  16.541  0.7494 -0.9491  0.3100
15020TIP3    H266552   4.014   2.341  16.611 -0.3439 -0.4131 -1.2884
15021TIP3   OH266553   0.023   0.071  15.357 -0.1025 -0.1886 -0.5581
15021TIP3    H166554   0.088   0.011  15.321 -0.2511 -0.7353  0.0694
15021TIP3    H266555  -0.037   0.088  15.285 -0.8975 -1.9599 -0.3638
15022TIP3   OH266556   6.244   5.069  10.875  0.7588 -0.3940  0.0094
15022TIP3    H166557   6.219   5.028  10.792  0.0745 -1.1471  0.5666
15022TIP3    H266558   6.298   5.003  10.919  0.9783 -0.0667  0.2378
15023TIP3   OH266559   6.836   3.999  12.020 -0.2001  0.4847  0.2731
15023TIP3    H166560   6.881   4.028  11.941  1.1521 -0.6951  0.5539
15023TIP3    H266561   6.861   3.907  12.028 -2.8522 -0.2844  0.3760
15024TIP3   OH266562   2.936   6.214   4.991  0.0389 -0.6066 -0.2384
15024TIP3    H166563   2.879   6.206   5.067 -0.3773 -1.0244 -0.5906
15024TIP3    H266564   3.015   6.165   5.015  0.9448  1.2721  0.8740
15025TIP3   OH266565   4.174   3.037  14.995  0.3219  0.5131  0.1766
15025TIP3    H166566   4.115   3.024  14.921  0.2689 -2.3609  0.6034
15025TIP3    H266567   4.262   3.022  14.959  0.4766  1.0971  0.3012
15026TIP3   OH266568   6.341   3.563   0.140 -0.0738 -0.1545  0.0905
15026TIP3    H166569   6.411   3.627   0.128  0.0218 -0.5112 -1.5421
15026TIP3    H266570   6.276   3.586   0.073 -1.5663  0.1978  1.6006
15027TIP3   OH266571   2.455   2.362  12.439  0.0688 -0.0187  0.0562
15027TIP3    H166572   2.416   2.442  12.474  0.8335  0.5077 -0.2865
15027TIP3    H266573   2.384   2.320  12.391 -0.0278  1.0381 -0.7544
15028TIP3   OH266574   3.550   6.003   2.588 -0.6851 -0.5173 -0.7392
15028TIP3    H166575   3.462   5.966   2.592 -0.2926 -1.3728  0.7786
15028TIP3    H266576   3.591   5.960   2.512 -1.3087 -0.7042 -0.9765
15029TIP3   OH266577   2.205   2.152   1.869 -0.2190  0.1692  0.0579
15029TIP3    H166578   2.247   2.134   1.784 -0.4816 -0.8159  0.1266
15029TIP3    H266579   2.273   2.132   1.933 -0.7533 -1.4897  0.1727
15030TIP3   OH266580   4.344   1.296  15.258  0.8431  0.0088  0.1255
15030TIP3    H166581   4.336   1.340  15.173  2.5941  0.3779  0.1107
15030TIP3    H266582   4.363   1.204  15.235 -1.1939 -0.4709  0.1592
15031TIP3   OH266583   1.364   1.955   3.369 -0.5227  0.0269  0.0814
15031TIP3    H166584   1.353   2.017   3.441  1.1531  0.4460  0.0145
15031TIP3    H266585   1.280   1.959   3.322 -0.0459  3.3948 -0.7915
15032TIP3   OH266586   2.097   4.331  12.118  0.5692 -0.2734  0.2915
15032TIP3    H166587   2.140   4.248  12.101  0.5015 -0.0659 -1.0021
15032TIP3    H266588   2.154   4.376  12.181  0.9427 -1.0092  0.4857
15033TIP3   OH266589   5.112   4.443  12.226  0.2210 -0.2785  0.2728
15033TIP3    H166590   5.079   4.450  12.316 -2.4661  2.5377 -0.7500
15033TIP3    H266591   5.036   4.414  12.175  0.8146  1.0663 -1.4779
15034TIP3   OH266592   6.096   0.762   4.775 -0.3777  0.0806 -0.0213
15034TIP3    H166593   6.099   0.816   4.854  1.1913 -1.2965  0.9272
15034TIP3    H266594   6.151   0.809   4.712 -0.4415  0.4614  0.2023
15035TIP3   OH266595   4.463   3.028   0.453  0.3598  0.8225 -0.7659
15035TIP3    H166596   4.534   3.079   0.491  0.6866  0.8039 -1.3532
15035TIP3    H266597   4.409   3.093   0.407 -0.2071  0.8907 -0.0265
15036TIP3   OH266598   3.956   5.354  13.837 -0.3488  0.3157  0.2262
15036TIP3    H166599   3.992   5.374  13.751 -2.1145  0.2304 -0.5766
15036TIP3    H266600   3.970   5.260  13.848 -3.3988 -0.5167 -1.7001
15037TIP3   OH266601   5.951   2.925  15.006 -0.2049 -0.2302 -0.0252
15037TIP3    H166602   5.990   2.940  15.092  0.3131 -1.2539 -0.0586
15037TIP3    H266603   6.005   2.976  14.945 -0.6122  0.5467  0.2590
15038TIP3   OH266604   5.706   5.147   3.295  0.9086 -0.1421 -0.5266
15038TIP3    H166605   5.785   5.102   3.327  1.0844  0.4876 -0.0548
15038TIP3    H266606   5.647   5.148   3.370  0.0400 -1.4668 -1.1429
15039TIP3   OH266607   0.474   3.140   2.618 -0.5184 -0.2043 -0.4936
15039TIP3    H166608   0.527   3.135   2.697 -1.4241  1.1032  0.2342
15039TIP3    H266609   0.468   3.233   2.598 -2.7736 -0.2530 -0.3476
15040TIP3   OH266610   2.796   4.478  12.582 -0.1484  0.4490  0.2959
15040TIP3    H166611   2.728   4.458  12.647  0.4586  0.6568  1.0133
15040TIP3    H266612   2.878   4.469  12.631  0.3324  0.3069 -0.5328
15041TIP3   OH266613   1.287   3.661  11.439  0.3227  0.1945 -0.1710
15041TIP3    H166614   1.224   3.729  11.462  0.2718 -0.3504  1.3777
15041TIP3    H266615   1.245   3.579  11.465  2.2888 -0.0836  2.5429
15042TIP3   OH266616   5.694   6.663   4.351 -0.1728 -0.6698 -0.0929
15042TIP3    H166617   5.682   6.669   4.445  1.4521 -0.0657  0.1029
15042TIP3    H266618   5.705   6.570   4.334  0.9809 -0.6732  0.5433
15043TIP3   OH266619   4.931   2.754   1.376  0.2378  0.1399  0.1548
15043TIP3    H166620   5.026   2.752   1.387  0.0077 -0.1312  2.4420
15043TIP3    H266621   4.917   2.733   1.284  2.3070 -1.9900  0.2545
15044TIP3   OH266622   5.651   0.580  14.748  0.1558 -0.1592 -0.1385
15044TIP3    H166623   5.630   0.666  14.785 -0.2955 -0.2816 -0.1117
15044TIP3    H266624   5.742   0.565  14.774  0.2226  0.2916 -0.1075
15045TIP3   OH266625   5.815   4.922  16.366  0.3142 -0.4386 -0.1413
15045TIP3    H166626   5.792   4.994  16.308  2.2174 -0.8659 -1.5147
15045TIP3    H266627   5.731   4.880  16.386 -0.4714  0.1289 -2.0267
15046TIP3   OH266628   1.395   0.170   4.811 -0.5419  0.3054  0.5070
15046TIP3    H166629   1.435   0.125   4.885 -0.6859 -1.6906 -0.5848
15046TIP3    H266630   1.303   0.177   4.834 -0.4693  0.3069  0.8002
15047TIP3   OH266631   5.132   5.117  13.331  0.2913  0.4582  0.5319
15047TIP3    H166632   5.051   5.067  13.328  0.7605 -0.6209  3.2497
15047TIP3    H266633   5.120   5.186  13.265 -1.8684 -0.9882 -0.7279
15048TIP3   OH266634   6.258   1.149   3.178 -0.0620 -0.2044 -0.2367
15048TIP3    H166635   6.211   1.101   3.110 -2.6353  0.5625  0.8910
15048TIP3    H266636   6.273   1.086   3.248  0.7408 -0.4753 -0.6396
15049TIP3   OH266637   4.784   5.354   1.885 -0.5961  0.5619  0.1798
15049TIP3    H166638   4.707   5.297   1.886 -0.2899 -0.1818 -3.5401
15049TIP3    H266639   4.800   5.371   1.792  2.4233  2.5441  0.9120
15050TIP3   OH266640   4.012   3.323   0.267 -0.6676 -0.0587  0.0398
15050TIP3    H166641   4.019   3.419   0.262 -0.5771 -0.1042 -1.0657
15050TIP3    H266642   3.954   3.307   0.341 -0.6356  0.8520  0.2766
15051TIP3   OH266643   4.171   4.150  14.153  0.4900 -0.3287  0.6413
15051TIP3    H166644   4.075   4.150  14.153  0.4663 -1.9301  0.4362
15051TIP3    H266645   4.195   4.103  14.073  1.4207 -0.9775  1.2770
15052TIP3   OH266646   1.246   3.738   2.859 -0.0464 -0.4786  0.2864
15052TIP3    H166647   1.259   3.824   2.820 -0.5274  0.4871  2.1441
15052TIP3    H266648   1.332   3.713   2.892 -0.0346 -0.4189  0.3008
15053TIP3   OH266649   5.973   5.983   3.542  0.0637 -0.0156  0.0453
15053TIP3    H166650   5.954   6.069   3.580 -0.8112 -1.9069  4.5602
15053TIP3    H266651   5.891   5.934   3.551  1.6265 -2.5634  1.8630
15054TIP3   OH266652   6.386   4.681   2.851  0.3757 -0.5795  0.9336
15054TIP3    H166653   6.406   4.765   2.809 -0.3351 -0.0227  1.6651
15054TIP3    H266654   6.349   4.628   2.782 -1.2806  0.5111  0.9330
15055TIP3   OH266655   1.676   2.250   3.366  0.1468  0.1257  0.3556
15055TIP3    H166656   1.617   2.323   3.346 -0.0091  0.4484  1.8911
15055TIP3    H266657   1.658   2.186   3.297 -2.4965 -0.0734  1.1149
15056TIP3   OH266658   1.729   0.265   5.161 -0.3190  0.3297  0.0115
15056TIP3    H166659   1.784   0.344   5.166  0.8919 -0.5662  1.6892
15056TIP3    H266660   1.788   0.197   5.127 -0.2770 -0.6919  2.0040
15057TIP3   OH266661   1.669   3.922   0.305  0.3961  0.3449  0.2557
15057TIP3    H166662   1.629   3.991   0.357 -1.6057 -1.2365  0.9777
15057TIP3    H266663   1.632   3.841   0.340  2.8598 -1.1512 -0.3425
15058TIP3   OH266664   5.802   6.817  17.075 -0.5966  0.3129  0.3827
15058TIP3    H166665   5.853   6.741  17.102 -1.2759 -0.9382 -1.6496
15058TIP3    H266666   5.742   6.834  17.148 -0.6792 -1.3404  0.7269
15059TIP3   OH266667   2.665   5.232   1.604  0.1831  0.4019 -0.2893
15059TIP3    H166668   2.634   5.220   1.514  1.6562 -1.8032 -0.5906
15059TIP3    H266669   2.720   5.155   1.620 -0.9594  0.1219  2.9247
15060TIP3   OH266670   1.742   1.435   6.520  0.0597  0.1373  0.6538
15060TIP3    H166671   1.829   1.423   6.481 -0.0354  2.8333 -0.5499
15060TIP3    H266672   1.684   1.382   6.466  0.5430  0.6329 -0.3612
15061TIP3   OH266673   5.611   2.634  13.814 -0.2296 -0.2690  0.1759
15061TIP3    H166674   5.627   2.630  13.720  0.2042 -0.4731  0.2539
15061TIP3    H266675   5.691   2.599  13.853 -0.4059 -0.1822  0.6202
15062TIP3   OH266676   0.620   0.242  13.728  0.1917 -0.3691 -0.6123
15062TIP3    H166677   0.568   0.221  13.650 -1.4469 -0.8696  0.5626
15062TIP3    H266678   0.666   0.161  13.748  1.9805  0.2286 -1.9794
15063TIP3   OH266679   5.454   6.344   6.540  0.5146  0.1373 -0.4552
15063TIP3    H166680   5.521   6.290   6.499  0.6166 -0.1730  0.1008
15063TIP3    H266681   5.422   6.401   6.470  3.4066  2.3829 -0.1220
15064TIP3   OH266682   1.996   5.697  15.720 -0.0414  0.0409 -0.1397
15064TIP3    H166683   1.990   5.792  15.720 -1.9717 -0.0318 -1.1529
15064TIP3    H266684   2.015   5.674  15.811 -2.3328  1.3158  0.7381
15065TIP3   OH266685   4.943   3.089   3.051 -0.1612 -0.5863 -0.0436
15065TIP3    H166686   4.937   3.067   2.958  2.2436 -2.1097  0.0512
15065TIP3    H266687   4.884   3.028   3.094  1.6066 -2.6479 -0.3451
15066TIP3   OH266688   4.577   0.782  15.244 -0.3017  0.1438  0.0572
15066TIP3    H166689   4.653   0.738  15.204  0.4793  0.5934  0.9961
15066TIP3    H266690   4.522   0.710  15.276 -1.6935 -0.3225 -2.9649
15067TIP3   OH266691   5.277   1.524  10.949 -0.2950 -0.1030 -0.1532
15067TIP3    H166692   5.224   1.586  10.897 -0.4293  1.0355  1.2698
15067TIP3    H266693   5.213   1.463  10.985 -0.6271  0.9723  1.1565
15068TIP3   OH266694   4.438   5.158  16.925 -0.0025 -0.0604 -0.1038
15068TIP3    H166695   4.381   5.109  16.984 -0.9283  0.0444 -0.8815
15068TIP3    H266696   4.488   5.091  16.878  0.2961 -0.1634  0.3541
15069TIP3   OH266697   1.426   5.889   4.312  0.2063  0.5196 -0.3078
15069TIP3    H166698   1.396   5.962   4.257 -0.4494 -0.4378 -1.2792
15069TIP3    H266699   1.520   5.901   4.319  0.5829 -0.1286 -2.9748
15070TIP3   OH266700   4.158   1.467   5.747  0.4238 -0.2070 -0.6511
15070TIP3    H166701   4.193   1.510   5.669 -0.4925  1.5320 -0.1423
15070TIP3    H266702   4.115   1.537   5.797  0.9590 -1.2505  1.4145
15071TIP3   OH266703   6.095   3.177   1.618 -0.1319 -0.0367  0.0443
15071TIP3    H166704   6.015   3.130   1.643  1.3649 -2.0892  1.3079
15071TIP3    H266705   6.120   3.139   1.534 -1.2665  1.7224 -1.1422
15072TIP3   OH266706   2.371   6.140   5.577 -0.0671  0.1125  0.1581
15072TIP3    H166707   2.356   6.071   5.641 -0.2518  0.8561  0.9352
15072TIP3    H266708   2.294   6.137   5.520 -0.1014 -0.2800  0.2216
15073TIP3   OH266709   0.676   0.927  10.702 -0.1696  0.1906  0.4124
15073TIP3    H166710   0.599   0.870  10.702 -1.1489  1.4396 -0.8349
15073TIP3    H266711   0.655   0.997  10.640  1.7355  0.9115  0.4867
15074TIP3   OH266712   2.616   5.652   1.728  0.0604  0.2584  0.0678
15074TIP3    H166713   2.640   5.620   1.641 -1.7633  2.6190 -1.4131
15074TIP3    H266714   2.699   5.651   1.777  1.2713 -0.5533 -1.8623
15075TIP3   OH266715   5.264   0.446   4.105 -0.7946 -0.3965 -0.0931
15075TIP3    H166716   5.257   0.528   4.155  0.9542 -0.3896  0.1844
15075TIP3    H266717   5.348   0.452   4.059 -0.7841 -1.8968 -0.3233
15076TIP3   OH266718   4.205   2.661   1.116  0.0926  0.2030  0.0471
15076TIP3    H166719   4.295   2.683   1.140  0.5525 -2.1074  0.6945
15076TIP3    H266720   4.182   2.723   1.048  1.1373  2.7043  1.8396
15077TIP3   OH266721   6.727   4.980   2.067 -0.2558 -0.4377  0.6489
15077TIP3    H166722   6.666   4.915   2.103  0.9380 -0.6352  2.4077
15077TIP3    H266723   6.725   5.052   2.129 -0.9739  0.9378 -0.8896
15078TIP3   OH266724   2.862   6.338   5.747 -0.9012  0.0787  0.0944
15078TIP3    H166725   2.904   6.379   5.822 -2.0885  0.7523  0.4296
15078TIP3    H266726   2.784   6.295   5.784  0.4047 -2.7327 -0.2069
15079TIP3   OH266727   4.453   3.971   0.971 -0.0508 -0.1175  0.1067
15079TIP3    H166728   4.418   3.883   0.983 -1.1272  0.2695 -0.0329
15079TIP3    H266729   4.417   3.999   0.887 -0.3891  0.7460  0.5232
15080TIP3   OH266730   6.854   6.385  16.261 -0.2230 -0.0878  0.3825
15080TIP3    H166731   6.841   6.447  16.189 -0.3086 -0.2657  0.2446
15080TIP3    H266732   6.767   6.372  16.298 -0.7533 -2.2880 -1.3661
15081TIP3   OH266733   6.179   4.240  14.168 -0.4340  0.8391  0.3962
15081TIP3    H166734   6.126   4.201  14.238 -0.9227 -0.3416 -0.6091
15081TIP3    H266735   6.116   4.289  14.115 -0.2685  0.6650  0.0432
15082TIP3   OH266736   3.668   2.062  16.696 -0.1412  0.0385  0.6743
15082TIP3    H166737   3.640   2.130  16.757  2.3247  1.0626  0.7409
15082TIP3    H266738   3.741   2.019  16.740  0.6825 -0.2255 -0.9151
15083TIP3   OH266739   3.808   5.690   3.467 -0.0132  0.2170  0.6298
15083TIP3    H166740   3.853   5.765   3.505 -0.6535  0.5280  0.7712
15083TIP3    H266741   3.859   5.670   3.388 -0.4642  1.4773 -0.0108
15084TIP3   OH266742   3.311   6.743   2.694 -0.3476 -0.3473  0.3160
15084TIP3    H166743   3.330   6.650   2.707  0.0300 -0.1413  1.3415
15084TIP3    H266744   3.305   6.779   2.782  0.7150  0.8500 -0.0668
15085TIP3   OH266745   1.248   1.989   2.235 -0.1370 -0.0096  0.4003
15085TIP3    H166746   1.341   1.968   2.231 -0.0258  0.3302  1.1993
15085TIP3    H266747   1.207   1.909   2.269  0.2045  0.7694  2.7657
15086TIP3   OH266748   1.562   4.353   1.973 -0.6006 -0.0009  0.0045
15086TIP3    H166749   1.559   4.268   1.929  1.4927 -0.5518  0.8080
15086TIP3    H266750   1.520   4.338   2.057 -1.8276  0.2632 -0.5312
15087TIP3   OH266751   1.740   0.615   4.087  0.2809  0.8388 -0.5145
15087TIP3    H166752   1.799   0.687   4.062 -1.2576  2.9866  1.5908
15087TIP3    H266753   1.681   0.607   4.012  0.9637  1.1780 -1.1129
15088TIP3   OH266754   4.266   6.216  11.523 -0.3645 -0.8080  0.3649
15088TIP3    H166755   4.286   6.205  11.430 -0.2749 -1.0329  0.4108
15088TIP3    H266756   4.211   6.141  11.545  1.6141 -2.1367  1.0839
15089TIP3   OH266757   5.185   2.450  11.042  0.3899  0.2308 -0.3629
15089TIP3    H166758   5.099   2.485  11.019  0.5354 -0.6449 -2.3912
15089TIP3    H266759   5.167   2.388  11.113 -0.8721 -0.9073 -1.6091
15090TIP3   OH266760   6.617   2.828  11.757  0.1545  0.2335  0.3517
15090TIP3    H166761   6.546   2.780  11.714  0.6561 -0.8988  0.7822
15090TIP3    H266762   6.689   2.766  11.764  1.2538  1.3871 -0.1512
15091TIP3   OH266763   5.357   5.945   2.448 -0.1866  0.0576  0.1553
15091TIP3    H166764   5.312   5.901   2.375 -1.7759  1.1366  0.4284
15091TIP3    H266765   5.400   5.874   2.495 -0.5258 -0.8745 -0.8842
15092TIP3   OH266766   2.685   0.387   1.274  0.1744 -0.1275  0.5975
15092TIP3    H166767   2.652   0.308   1.231 -0.2462  0.9520 -1.2277
15092TIP3    H266768   2.633   0.458   1.234  2.8614  1.3993 -0.4161
15093TIP3   OH266769   0.997   0.373   2.683 -0.5839 -0.0339 -0.1004
15093TIP3    H166770   1.082   0.332   2.695 -0.7443 -0.6070 -0.8558
15093TIP3    H266771   0.937   0.322   2.738 -0.6838 -0.4761 -0.6166
15094TIP3   OH266772   6.062   0.808  13.433 -0.3204  0.1774 -0.5306
15094TIP3    H166773   6.086   0.723  13.398 -0.0764 -0.4188  1.0083
15094TIP3    H266774   6.126   0.869  13.395  0.3078 -0.5359 -0.6326
15095TIP3   OH266775   3.134   0.792   2.295  0.6192 -0.2586  0.8089
15095TIP3    H166776   3.180   0.783   2.211  3.0208  0.1026  1.9887
15095TIP3    H266777   3.106   0.704   2.316 -0.4722 -0.2819 -0.5869
15096TIP3   OH266778   6.157   3.323  15.230  0.5038  0.2570 -0.5919
15096TIP3    H166779   6.166   3.360  15.142  1.0649 -0.9879 -1.0818
15096TIP3    H266780   6.247   3.299  15.254  0.1551 -0.7344 -0.2728
15097TIP3   OH266781   0.870   3.451  15.268 -0.2793 -0.9552  0.0558
15097TIP3    H166782   0.961   3.481  15.266 -0.9627  1.3734 -1.7039
15097TIP3    H266783   0.861   3.405  15.351  2.2383 -0.4206  0.7080
15098TIP3   OH266784   6.465   1.955  12.179  0.2734  0.5802 -0.1049
15098TIP3    H166785   6.421   1.978  12.097  1.0513  0.0824 -0.6780
15098TIP3    H266786   6.477   1.860  12.174  0.4521  0.5645  0.5270
15099TIP3   OH266787   4.325   2.269  16.422 -0.0479  0.2141 -0.0049
15099TIP3    H166788   4.348   2.180  16.448  2.0777  0.4732 -0.7690
15099TIP3    H266789   4.252   2.293  16.479 -1.6900 -2.5181 -0.7569
15100TIP3   OH266790   6.414   5.693   5.081  0.6522 -0.1625 -0.1491
15100TIP3    H166791   6.451   5.725   5.164  0.9013  1.1646 -0.7389
15100TIP3    H266792   6.484   5.641   5.042  1.2151  0.7199 -0.3518
15101TIP3   OH266793   4.252   3.835  11.247  0.1094 -0.2049 -0.6235
15101TIP3    H166794   4.258   3.883  11.330 -1.1278 -1.5920  0.3167
15101TIP3    H266795   4.332   3.859  11.200  0.3927  1.3477  0.5604
15102TIP3   OH266796   6.357   5.870   2.004  0.1396  0.3144  0.3289
15102TIP3    H166797   6.401   5.835   2.081  2.1554  2.7290  0.3852
15102TIP3    H266798   6.316   5.951   2.034 -0.5839  0.3685 -0.7526
15103TIP3   OH266799   0.291   3.860  15.970 -0.1912 -0.2044 -0.1914
15103TIP3    H166800   0.303   3.776  15.925 -1.0496 -0.4506  0.0207
15103TIP3    H266801   0.231   3.909  15.913 -1.3812 -0.5601  0.7225
15104TIP3   OH266802   4.315   0.677  12.307 -0.0059  0.1820 -0.1423
15104TIP3    H166803   4.396   0.653  12.352 -2.1482 -0.1910  4.0035
15104TIP3    H266804   4.284   0.594  12.270  1.7804  0.4939 -2.6424
15105TIP3   OH266805   3.162   6.189  16.610  0.1858 -0.1719 -0.2084
15105TIP3    H166806   3.085   6.242  16.591 -0.6883 -1.9005 -1.8007
15105TIP3    H266807   3.178   6.140  16.530  2.3575 -0.6156  0.4258
15106TIP3   OH266808   5.304   3.639   0.460 -0.0702 -0.1168  0.0319
15106TIP3    H166809   5.350   3.683   0.389  2.5057 -0.8315  1.0985
15106TIP3    H266810   5.289   3.550   0.427  2.4371 -0.9023  0.7502
15107TIP3   OH266811   1.183   4.876  12.664 -0.4659  0.5809 -0.0062
15107TIP3    H166812   1.195   4.783  12.645 -0.5296  0.1731  1.7524
15107TIP3    H266813   1.089   4.888  12.670 -0.4327  0.5086  0.8011
15108TIP3   OH266814   0.799   4.036  11.615 -0.0993 -0.2432 -0.6359
15108TIP3    H166815   0.814   4.016  11.523 -0.6127  1.3500 -1.1096
15108TIP3    H266816   0.713   3.998  11.634 -0.2092 -0.1564 -0.9548
15109TIP3   OH266817   3.196   2.347  12.496 -0.0255  0.2653 -0.3663
15109TIP3    H166818   3.281   2.312  12.523 -1.1757 -1.6734  0.9919
15109TIP3    H266819   3.183   2.424  12.552  1.5696  1.7121 -1.8629
15110TIP3   OH266820   1.817   2.230   1.955 -0.3659  0.4672  0.2345
15110TIP3    H166821   1.841   2.139   1.974 -0.4570 -0.0652 -1.9462
15110TIP3    H266822   1.884   2.283   1.999  1.1330 -0.7497 -0.5071
15111TIP3   OH266823   0.925   6.043   0.061  0.2833 -0.3427 -0.0479
15111TIP3    H166824   0.875   5.986   0.120  0.7170 -0.2161  0.4550
15111TIP3    H266825   1.016   6.014   0.070  0.6428  0.9324  0.8627
15112TIP3   OH266826   6.716   6.768   4.270  0.3752  0.4226 -0.3337
15112TIP3    H166827   6.680   6.761   4.359 -0.6529  4.1760 -0.3117
15112TIP3    H266828   6.801   6.809   4.282  1.0997 -0.8126 -1.0317
15113TIP3   OH266829   0.068   3.521   2.819  0.5400  0.1913 -0.0775
15113TIP3    H166830   0.123   3.591   2.853 -0.4499  1.0487 -0.1868
15113TIP3    H266831   0.075   3.530   2.724 -0.8865  1.2510 -0.1232
15114TIP3   OH266832   0.222   1.562   1.972  0.2383 -0.0401  0.4732
15114TIP3    H166833   0.187   1.575   1.884  1.2945 -0.2721 -0.0041
15114TIP3    H266834   0.310   1.526   1.958 -0.0743 -1.3674  1.6384
15115TIP3   OH266835   4.974   0.508   2.280  0.1254 -0.0457  0.6359
15115TIP3    H166836   5.002   0.575   2.217  0.7193 -1.4925 -0.6988
15115TIP3    H266837   4.909   0.553   2.334 -0.3926  1.2840 -0.9804
15116TIP3   OH266838   2.234   1.601  11.153 -0.3293  0.2712 -0.1509
15116TIP3    H166839   2.324   1.614  11.125 -0.5941 -1.6429 -2.1575
15116TIP3    H266840   2.236   1.520  11.204 -0.8811  0.3918  0.0729
15117TIP3   OH266841   4.851   3.292   3.299  0.0442  0.5300 -0.0959
15117TIP3    H166842   4.795   3.340   3.360 -0.2848  0.1152 -0.0705
15117TIP3    H266843   4.927   3.266   3.352  0.3316  1.2160 -0.1677
15118TIP3   OH266844   4.076   3.042   5.270  0.4029 -0.2237  0.7013
15118TIP3    H166845   4.000   3.092   5.241  0.0751 -1.0522  0.1030
15118TIP3    H266846   4.106   3.088   5.348  0.0822  0.8724  0.1996
15119TIP3   OH266847   2.473   3.703   3.379  0.3743  0.7476  0.9872
15119TIP3    H166848   2.455   3.796   3.386  1.5647  1.2134 -1.3237
15119TIP3    H266849   2.548   3.697   3.319  0.6973 -1.6568  1.5292
15120TIP3   OH266850   6.610   1.815  13.657 -0.3778  0.1969 -0.1300
15120TIP3    H166851   6.624   1.721  13.655 -1.0405  0.1084 -0.7204
15120TIP3    H266852   6.681   1.851  13.602  0.1704  0.0899  0.4943
15121TIP3   OH266853   4.335   4.786  12.963 -0.1925 -0.4982  0.4938
15121TIP3    H166854   4.281   4.723  12.916 -0.8467 -0.2481  0.8883
15121TIP3    H266855   4.288   4.801  13.045  1.3548 -1.5905  1.6276
15122TIP3   OH266856   3.013   4.455   2.194  0.2506  1.0506  0.0299
15122TIP3    H166857   2.998   4.381   2.135 -1.7902  1.1216  0.3747
15122TIP3    H266858   2.998   4.418   2.282  3.2355  0.9397  0.5949
15123TIP3   OH266859   4.467   2.322   4.309 -0.4186  0.8317  0.8244
15123TIP3    H166860   4.404   2.373   4.359  0.3286  1.4933  1.1131
15123TIP3    H266861   4.552   2.354   4.337  0.0376  1.5564 -1.2053
15124TIP3   OH266862   0.307   6.186   2.380  0.7072  0.4613 -0.1539
15124TIP3    H166863   0.342   6.129   2.311  4.4040  1.2950  0.7928
15124TIP3    H266864   0.302   6.129   2.457 -2.2619 -0.1597 -0.6851
15125TIP3   OH266865   3.114   2.164   5.333  0.4199 -0.2649 -0.2918
15125TIP3    H166866   3.022   2.189   5.342 -0.0370 -1.6129 -1.0421
15125TIP3    H266867   3.162   2.244   5.355 -0.9324  0.6377 -0.4901
15126TIP3   OH266868   3.512   1.631   6.341 -0.2309  0.2451  0.0645
15126TIP3    H166869   3.592   1.676   6.367 -0.0582 -0.1577  0.2450
15126TIP3    H266870   3.466   1.613   6.423 -1.0962  1.5326 -0.1185
15127TIP3   OH266871   6.596   0.310   5.709 -0.2043 -0.0570  0.5757
15127TIP3    H166872   6.671   0.251   5.715 -0.1890  0.0030  0.9725
15127TIP3    H266873   6.602   0.366   5.786 -0.4547  0.1882  0.4218
15128TIP3   OH266874   6.832   0.511   4.138 -0.2785 -0.7607 -0.6223
15128TIP3    H166875   6.921   0.543   4.146 -0.8797  0.5305  2.1082
15128TIP3    H266876   6.841   0.417   4.122  1.5580 -0.5647 -0.8725
15129TIP3   OH266877   2.490   5.366  14.461 -0.6419  0.3978  0.4524
15129TIP3    H166878   2.405   5.337  14.494 -0.3625  0.5747  1.3505
15129TIP3    H266879   2.506   5.449  14.506 -1.6435  2.3053 -2.3982
15130TIP3   OH266880   2.698   5.234   3.729  0.6936 -0.0758  0.6226
15130TIP3    H166881   2.631   5.292   3.766  0.8176 -0.0727  0.8398
15130TIP3    H266882   2.679   5.233   3.635  0.3938 -0.0652  0.6810
15131TIP3   OH266883   6.345   2.197   1.676 -0.3989  0.0102  0.0361
15131TIP3    H166884   6.268   2.179   1.731 -0.8425 -0.7449 -0.7968
15131TIP3    H266885   6.310   2.246   1.601 -0.1578 -0.7070 -0.5598
15132TIP3   OH266886   2.889   3.087  14.993  0.7103  0.4636  0.1480
15132TIP3    H166887   2.863   3.069  14.902 -1.0204 -0.9498  0.8644
15132TIP3    H266888   2.936   3.170  14.988  0.0427  0.7750 -1.9550
15133TIP3   OH266889   2.545   0.267   5.980  0.0934 -0.0986 -0.3527
15133TIP3    H166890   2.571   0.360   5.984 -0.9655  0.1761  0.3847
15133TIP3    H266891   2.605   0.229   5.915 -0.5357  1.4582 -1.9281
15134TIP3   OH266892   0.854   0.156   1.061 -0.0307  0.0345 -0.3856
15134TIP3    H166893   0.802   0.139   0.981  0.2160  1.7978 -0.9522
15134TIP3    H266894   0.929   0.207   1.030  1.6070 -1.6837  0.5685
15135TIP3   OH266895   4.191   1.021   2.380  0.4813  0.5253  0.2719
15135TIP3    H166896   4.183   0.932   2.414  2.1370  0.5134  0.7042
15135TIP3    H266897   4.183   1.077   2.457 -0.6311  0.7847 -0.0072
15136TIP3   OH266898   4.501   1.653   0.598 -0.1736 -0.0016 -0.0543
15136TIP3    H166899   4.441   1.684   0.531  1.0637  0.4921 -0.9748
15136TIP3    H266900   4.506   1.724   0.662  1.5891  1.2463 -1.4518
15137TIP3   OH266901   1.234   1.755  12.170  0.3759 -0.0937 -0.6998
15137TIP3    H166902   1.215   1.702  12.247 -0.3631  0.2511 -0.6335
15137TIP3    H266903   1.303   1.707  12.124 -0.4867 -1.2697 -0.8089
15138TIP3   OH266904   4.723   2.558  14.220  0.1216 -0.3645 -0.3145
15138TIP3    H166905   4.631   2.584  14.210  0.1917  0.9873  1.9779
15138TIP3    H266906   4.734   2.486  14.158 -1.7374  1.1874 -2.6338
15139TIP3   OH266907   1.157   4.257   1.410 -0.1810 -0.0581 -0.4553
15139TIP3    H166908   1.215   4.284   1.338  1.7871 -0.2286  0.9746
15139TIP3    H266909   1.173   4.321   1.480 -1.1299 -0.5939  0.2803
15140TIP3   OH266910   1.055   1.043   4.029 -0.2566 -0.8353 -0.3355
15140TIP3    H166911   1.136   0.991   4.023 -1.2576 -2.5086 -0.0179
15140TIP3    H266912   1.083   1.125   4.070  0.9733 -2.1576  1.6622
15141TIP3   OH266913   6.079   6.743   3.725 -0.4896 -0.2523 -0.0045
15141TIP3    H166914   6.141   6.746   3.798  0.5968 -1.2993 -0.8513
15141TIP3    H266915   6.051   6.834   3.715  1.3165  0.3685  0.0826
15142TIP3   OH266916   2.144   0.303  16.838 -0.3845  0.4154 -0.1400
15142TIP3    H166917   2.111   0.327  16.925  0.7311 -2.2134  1.1098
15142TIP3    H266918   2.142   0.385  16.789 -2.3430  1.7152  1.9152
15143TIP3   OH266919   0.849   2.194   1.479 -0.0013 -0.0808  0.3206
15143TIP3    H166920   0.851   2.253   1.403 -0.7449  0.9456  1.0668
15143TIP3    H266921   0.941   2.183   1.503  0.3349 -1.2737 -1.3389
15144TIP3   OH266922   4.034   3.199  11.360  0.1415 -0.2997 -0.0715
15144TIP3    H166923   4.117   3.203  11.407  0.4349 -0.0304 -0.5981
15144TIP3    H266924   4.054   3.233  11.273 -0.8737  1.3626  0.2802
15145TIP3   OH266925   3.515   1.573   2.615  0.1365 -0.2186 -0.0167
15145TIP3    H166926   3.483   1.607   2.531 -2.4504 -1.3987  0.3873
15145TIP3    H266927   3.448   1.599   2.678  1.1432 -0.8764  1.3548
15146TIP3   OH266928   3.782   6.139  14.658 -0.2915  0.1286 -0.6402
15146TIP3    H166929   3.704   6.181  14.622  0.4811  0.1944 -2.3343
15146TIP3    H266930   3.843   6.136  14.585  0.6797 -1.4715  0.1798
15147TIP3   OH266931   1.186   2.684   0.669 -0.0921  0.4312  0.7032
15147TIP3    H166932   1.224   2.622   0.730  1.2447  0.9685  0.4370
15147TIP3    H266933   1.095   2.654   0.658 -0.4427  0.4532  3.1100
15148TIP3   OH266934   0.089   5.410  11.756 -0.6438 -0.0104  0.2289
15148TIP3    H166935   0.064   5.494  11.796  0.6115 -0.6193  2.4646
15148TIP3    H266936   0.019   5.350  11.781 -0.6940 -0.0178  0.0714
15149TIP3   OH266937   5.555   5.578  11.696  0.1219  0.0242 -0.1099
15149TIP3    H166938   5.524   5.521  11.626 -0.7818  1.9556 -1.3411
15149TIP3    H266939   5.528   5.534  11.776 -3.3724  0.1851 -1.0614
15150TIP3   OH266940   0.146   1.788   4.608 -0.0339  0.1220 -0.0792
15150TIP3    H166941   0.139   1.883   4.615  1.1400  0.1618  0.8881
15150TIP3    H266942   0.102   1.755   4.687 -0.5108 -0.1492 -0.4514
15151TIP3   OH266943   6.072   5.832   0.509  0.1479  0.5208  0.1444
15151TIP3    H166944   6.036   5.761   0.456  1.1249  0.0208  0.1366
15151TIP3    H266945   6.006   5.901   0.505 -2.2991 -1.4481  2.6149
15152TIP3   OH266946   3.519   3.466   2.309  0.2619 -0.1264  0.4109
15152TIP3    H166947   3.461   3.480   2.234 -1.9332 -3.4515  1.2542
15152TIP3    H266948   3.580   3.399   2.280  0.6198 -0.0621  1.0141
15153TIP3   OH266949   6.295   0.166  14.158 -0.1431 -0.1890 -0.4152
15153TIP3    H166950   6.378   0.165  14.206  0.6231 -1.1082 -1.7093
15153TIP3    H266951   6.261   0.255  14.170  1.3492  0.4079 -0.4091
15154TIP3   OH266952   4.507   3.072   5.085  0.4819  0.1863  0.4885
15154TIP3    H166953   4.455   3.084   5.006 -0.2147 -1.1044  0.7209
15154TIP3    H266954   4.447   3.034   5.148  1.2590  0.3602  1.3561
15155TIP3   OH266955   2.185   5.423  16.797 -0.2771 -0.1023  0.6763
15155TIP3    H166956   2.280   5.436  16.790 -0.2512 -0.9873 -2.3627
15155TIP3    H266957   2.176   5.330  16.820 -0.3802 -0.1119  0.5989
15156TIP3   OH266958   6.016   0.625  14.236  0.5329  0.3201  0.1967
15156TIP3    H166959   5.928   0.656  14.216  0.3436  0.3791  1.0811
15156TIP3    H266960   6.063   0.704  14.266  0.6090  0.1104  0.6328
15157TIP3   OH266961   0.299   0.446   4.861 -0.2784 -0.1517 -0.1635
15157TIP3    H166962   0.383   0.408   4.837 -1.3671 -1.9376 -1.3237
15157TIP3    H266963   0.319   0.539   4.876  1.7788 -0.4151 -0.9130
15158TIP3   OH266964   2.730   1.218  16.950  0.2850 -0.2236 -0.0420
15158TIP3    H166965   2.804   1.278  16.955 -1.2609  1.7543  0.3481
15158TIP3    H266966   2.719   1.202  16.856  1.2365 -0.6493 -0.0963
15159TIP3   OH266967   0.017   1.395  14.784  0.0674  0.0653 -0.6743
15159TIP3    H166968   0.111   1.407  14.765 -0.0392  1.6617 -0.3143
15159TIP3    H266969   0.012   1.310  14.827  1.2907 -0.2478 -1.1056
15160TIP3   OH266970   3.206   6.096   0.691 -0.2952  0.7037  0.1385
15160TIP3    H166971   3.195   6.167   0.628  0.1743  1.1925  0.6014
15160TIP3    H266972   3.295   6.064   0.676 -0.9044 -0.6343 -0.9187
15161TIP3   OH266973   5.229   0.906  14.080  0.4256  0.1321  0.3285
15161TIP3    H166974   5.204   0.995  14.105  1.9692  0.8570 -0.5172
15161TIP3    H266975   5.325   0.908  14.079  0.4769 -0.9187 -1.7598
15162TIP3   OH266976   6.371   6.069   6.132 -0.7181  0.2832 -0.6742
15162TIP3    H166977   6.430   6.018   6.077  0.0016  0.4175 -0.0529
15162TIP3    H266978   6.309   6.006   6.167  0.0576 -0.1498 -0.0494
15163TIP3   OH266979   5.770   0.229   1.139  0.4304  0.4858  0.2249
15163TIP3    H166980   5.860   0.197   1.127  0.8312  1.0933  1.3848
15163TIP3    H266981   5.764   0.306   1.083  0.8944  0.8639  0.6711
15164TIP3   OH266982   5.639   2.407  15.087  0.3560 -0.7277 -0.2371
15164TIP3    H166983   5.624   2.396  15.181  0.9714  1.4906  0.1675
15164TIP3    H266984   5.715   2.351  15.069  1.0238 -0.2213  0.8750
15165TIP3   OH266985   3.085   0.647   5.360 -0.6194 -0.1066 -0.2984
15165TIP3    H166986   3.164   0.612   5.319  0.7665  2.0389  0.3841
15165TIP3    H266987   3.054   0.577   5.417  1.1191 -0.7972 -0.1573
15166TIP3   OH266988   4.934   1.406  12.224  0.5840  0.6841 -0.2810
15166TIP3    H166989   4.961   1.314  12.221 -0.9505  0.1549  0.4698
15166TIP3    H266990   4.979   1.448  12.151  1.4071 -0.6373 -0.5586
15167TIP3   OH266991   3.313   0.126   4.965  0.6783  0.0148 -0.2024
15167TIP3    H166992   3.219   0.139   4.967  0.6178 -0.5243  0.6575
15167TIP3    H266993   3.345   0.190   4.901 -0.1808  0.7055  0.0553
15168TIP3   OH266994   2.937   1.732   3.008 -0.0417  0.0434 -0.0767
15168TIP3    H166995   2.939   1.760   3.100  0.9963  3.7831 -1.0752
15168TIP3    H266996   3.028   1.712   2.987  0.5469  3.1683 -1.1688
15169TIP3   OH266997   4.711   5.635   3.485 -0.3587 -0.0189  0.0558
15169TIP3    H166998   4.715   5.692   3.409  1.2568 -0.0642  0.0696
15169TIP3    H266999   4.618   5.632   3.508 -0.8102  0.3907 -1.5930
15170TIP3   OH267000   3.715   4.796   5.030 -0.0620  0.3629 -0.1932
15170TIP3    H167001   3.677   4.853   4.963 -0.2608 -0.7585 -1.0659
15170TIP3    H267002   3.662   4.716   5.025  0.4513 -0.0432  0.7408
15171TIP3   OH267003   3.820   6.440  15.721 -0.1082 -0.2735 -0.3088
15171TIP3    H167004   3.764   6.513  15.697  1.4395  0.4876 -1.8129
15171TIP3    H267005   3.784   6.365  15.673 -1.6812 -0.5631  1.2203
15172TIP3   OH267006   1.249   1.875  15.332  0.0169 -0.1343  0.0645
15172TIP3    H167007   1.183   1.834  15.388 -0.9645  1.0309 -0.2193
15172TIP3    H267008   1.268   1.809  15.265  0.6005 -1.2297  1.2534
15173TIP3   OH267009   5.492   1.961  14.875 -0.0123  0.1490 -0.3949
15173TIP3    H167010   5.475   2.055  14.878  0.1503  0.2164 -1.3612
15173TIP3    H267011   5.587   1.953  14.888 -0.1442  0.0476  0.6100
15174TIP3   OH267012   6.813   4.504   3.124 -0.2011  0.1508 -0.3307
15174TIP3    H167013   6.722   4.509   3.094 -0.6053 -1.3088  0.5436
15174TIP3    H267014   6.808   4.514   3.219  0.5592  0.1925 -0.2899
15175TIP3   OH267015   0.309   4.622  14.271 -0.1755 -0.5253 -0.4496
15175TIP3    H167016   0.312   4.692  14.337  1.7704  0.2042 -1.2602
15175TIP3    H267017   0.241   4.562  14.303  0.4810 -0.0369  2.0760
15176TIP3   OH267018   4.478   5.809  13.624 -0.3430 -0.3711  0.5451
15176TIP3    H167019   4.434   5.748  13.683 -1.0780 -1.1673 -0.7945
15176TIP3    H267020   4.533   5.754  13.568 -2.2665 -0.0559 -1.7783
15177TIP3   OH267021   6.172   2.914   0.519 -0.1582 -0.1618  0.0261
15177TIP3    H167022   6.174   2.980   0.588  3.5008 -0.9149  0.8557
15177TIP3    H267023   6.142   2.835   0.563  0.4855 -0.2277  0.3669
15178TIP3   OH267024   6.286   5.799   2.846 -0.1747  0.1424 -0.1639
15178TIP3    H167025   6.366   5.814   2.796  0.8667 -0.9824  1.0886
15178TIP3    H267026   6.286   5.869   2.912  0.4141 -0.5296  0.5674
15179TIP3   OH267027   3.884   2.911  14.484 -0.4067 -0.0570  0.0159
15179TIP3    H167028   3.798   2.872  14.501 -0.8440  0.8452 -0.1053
15179TIP3    H267029   3.943   2.835  14.475 -1.0150 -0.6636  0.9477
15180TIP3   OH267030   6.700   4.391  14.599  0.5987 -0.4590  0.1074
15180TIP3    H167031   6.666   4.480  14.592 -0.4908 -0.8744  0.0229
15180TIP3    H267032   6.723   4.382  14.692 -0.6188 -0.5547  0.4108
15181TIP3   OH267033   5.377   2.713  12.520 -0.1440  0.6992  0.0107
15181TIP3    H167034   5.419   2.709  12.606  1.1876  0.7680 -0.6009
15181TIP3    H267035   5.364   2.806  12.504 -1.7586  0.6338  0.7335
15182TIP3   OH267036   2.249   5.574   5.204  0.5083 -0.2974  0.1708
15182TIP3    H167037   2.304   5.497   5.192 -1.5921 -2.0034  0.7731
15182TIP3    H267038   2.170   5.541   5.247 -0.6845  2.1348  0.0576
15183TIP3   OH267039   4.728   5.780  15.642  0.2136 -0.1627  0.0641
15183TIP3    H167040   4.808   5.832  15.653 -0.3392  0.8031 -0.3236
15183TIP3    H267041   4.661   5.845  15.620 -0.0359 -1.2634 -2.8120
15184TIP3   OH267042   0.072   3.691  14.284  0.3402  0.0906  0.3886
15184TIP3    H167043   0.032   3.695  14.371  2.3192 -2.6862  1.6032
15184TIP3    H267044   0.118   3.774  14.274 -0.8995  0.9352  1.4426
15185TIP3   OH267045   4.085   2.177  14.205 -0.0355 -0.0512 -0.2393
15185TIP3    H167046   3.997   2.169  14.168 -0.4013  0.4005  0.5150
15185TIP3    H267047   4.110   2.088  14.228 -0.1501 -0.2255 -0.7774
15186TIP3   OH267048   3.380   4.492  14.426 -0.3155  0.0199 -0.8207
15186TIP3    H167049   3.339   4.577  14.444 -1.3804 -0.8006  0.9902
15186TIP3    H267050   3.365   4.477  14.333 -1.4313  1.1497 -0.8529
15187TIP3   OH267051   4.371   3.276   5.260 -0.2722 -0.0153  0.6497
15187TIP3    H167052   4.373   3.183   5.281 -0.5891 -0.6957 -1.9008
15187TIP3    H267053   4.458   3.308   5.286 -0.0269 -1.1011  1.2404
15188TIP3   OH267054   0.628   3.962  15.685  0.3524 -0.3392  0.3101
15188TIP3    H167055   0.635   4.054  15.660  1.1304 -0.8105 -1.3363
15188TIP3    H267056   0.713   3.941  15.723  0.7583 -0.7673 -0.7948
15189TIP3   OH267057   3.858   4.657   1.219  0.0268  0.0715 -0.0161
15189TIP3    H167058   3.896   4.719   1.282  0.3674 -3.0169  3.1761
15189TIP3    H267059   3.925   4.648   1.151  1.6861  0.3725  1.4866
15190TIP3   OH267060   5.359   0.884  16.933 -0.6161 -0.3716  0.1115
15190TIP3    H167061   5.402   0.967  16.954  0.1347 -0.7019 -0.0666
15190TIP3    H267062   5.432   0.822  16.922 -1.2043 -1.3437  1.4298
15191TIP3   OH267063   3.140   0.126   6.358  0.2262 -0.2012 -0.0938
15191TIP3    H167064   3.203   0.112   6.287  0.3007 -2.4221  0.3388
15191TIP3    H267065   3.180   0.084   6.434 -0.8706  0.1735  0.7131
15192TIP3   OH267066   3.187   4.362   4.958 -0.3389 -0.3887  0.2803
15192TIP3    H167067   3.128   4.316   4.898  2.0396 -3.3389 -0.0796
15192TIP3    H267068   3.166   4.325   5.044 -1.2648  1.1131  0.7287
15193TIP3   OH267069   1.709   3.109   4.071 -0.1829 -0.6032  0.3996
15193TIP3    H167070   1.622   3.080   4.099 -0.9887  1.9253  0.8190
15193TIP3    H267071   1.720   3.195   4.112  2.0291 -0.3060 -0.6279
15194TIP3   OH267072   2.103   4.717   5.332 -0.0289 -0.9905 -0.6782
15194TIP3    H167073   2.178   4.663   5.308 -0.8464 -0.9556 -3.8347
15194TIP3    H267074   2.130   4.806   5.309  0.5671 -0.2314  2.5654
15195TIP3   OH267075   5.929   0.347  10.390  0.1087  0.0176  0.7874
15195TIP3    H167076   5.905   0.440  10.387 -1.0813 -0.1993  2.2167
15195TIP3    H267077   5.950   0.332  10.483  1.9548 -0.7785  0.2951
15196TIP3   OH267078   0.065   6.666   2.086  1.3842  0.0171 -0.1844
15196TIP3    H167079   0.086   6.575   2.105 -1.4315 -0.8707 -0.8306
15196TIP3    H267080   0.136   6.716   2.126  2.8004 -2.4043  0.5445
15197TIP3   OH267081   1.765   6.761  16.790  0.7987  0.1744  0.0781
15197TIP3    H167082   1.758   6.808  16.707 -0.4272 -1.7520 -0.9863
15197TIP3    H267083   1.848   6.714  16.784  1.2912  0.9695  0.4888
15198TIP3   OH267084   2.635   3.977   5.199 -0.0604 -0.0645  0.7582
15198TIP3    H167085   2.579   4.000   5.273 -1.4175 -1.1328  0.0979
15198TIP3    H267086   2.575   3.958   5.127  1.2210  1.0099 -0.6809
15199TIP3   OH267087   3.531   5.297   4.646 -0.4384 -0.0139  0.0468
15199TIP3    H167088   3.569   5.261   4.566  1.2218  0.8861  0.4004
15199TIP3    H267089   3.474   5.368   4.615 -1.4763 -1.0186 -0.4432
15200TIP3   OH267090   4.507   2.340  15.050 -0.4952 -0.1099  0.0017
15200TIP3    H167091   4.564   2.397  14.998  1.1626 -1.3052  0.4058
15200TIP3    H267092   4.568   2.288  15.103 -2.0746  0.3451  2.4067
15201TIP3   OH267093   5.239   3.427   4.603 -0.2934  0.2138  0.3204
15201TIP3    H167094   5.256   3.407   4.695  1.6370  1.6737  0.3546
15201TIP3    H267095   5.257   3.521   4.596 -1.3192  0.3118 -1.3620
15202TIP3   OH267096   4.572   2.142  13.182  0.3096  0.3464 -0.2411
15202TIP3    H167097   4.635   2.214  13.187  1.3093 -0.5346  0.4622
15202TIP3    H267098   4.501   2.167  13.240  0.9079  0.5385  0.4202
15203TIP3   OH267099   1.652   3.882   5.767  0.1391  0.3986  0.0923
15203TIP3    H167100   1.655   3.892   5.863  3.5893 -2.5788  0.4961
15203TIP3    H267101   1.687   3.964   5.733 -3.7880  2.7361  1.0077
15204TIP3   OH267102   3.867   4.584  15.722 -0.1286 -0.3701 -0.2016
15204TIP3    H167103   3.813   4.623  15.653  0.8118  0.3869 -0.5328
15204TIP3    H267104   3.944   4.640  15.727 -0.9669  0.7347  2.7755
15205TIP3   OH267105   3.371   6.474  15.880 -0.0351  0.1664  0.1697
15205TIP3    H167106   3.447   6.455  15.935 -0.2110  1.1250  0.7660
15205TIP3    H267107   3.346   6.389  15.844  0.6467 -0.3326  0.8463
15206TIP3   OH267108   2.402   2.526  14.148 -0.0630 -0.2513  0.1549
15206TIP3    H167109   2.498   2.521  14.154 -0.1547 -0.7715  1.7920
15206TIP3    H267110   2.377   2.590  14.215 -0.9121 -0.9577  0.5418
15207TIP3   OH267111   0.651   4.059  12.410  0.0314 -0.2267  0.0418
15207TIP3    H167112   0.669   4.084  12.319  1.1268 -0.6270  0.1311
15207TIP3    H267113   0.736   4.068  12.454 -0.4879 -0.0504  1.0286
15208TIP3   OH267114   1.512   3.015   5.110  0.0929 -0.4857 -0.4459
15208TIP3    H167115   1.489   2.922   5.108  2.5406 -1.1591  0.1986
15208TIP3    H267116   1.606   3.018   5.095  0.3768  1.7742  1.1582
15209TIP3   OH267117   4.630   6.745   3.804  0.2798 -0.3384 -0.5082
15209TIP3    H167118   4.717   6.763   3.768  0.2014 -2.0790 -1.7021
15209TIP3    H267119   4.570   6.788   3.743  0.2412 -0.8144 -0.8072
15210TIP3   OH267120   4.147   0.529   4.465  0.0042 -0.3252 -0.0732
15210TIP3    H167121   4.057   0.500   4.449  0.2580 -1.0542 -0.2513
15210TIP3    H267122   4.201   0.459   4.427  0.6377 -0.2784  0.7101
15211TIP3   OH267123   1.657   2.854   3.308 -0.5868 -0.2366  0.5053
15211TIP3    H167124   1.589   2.918   3.328 -0.0512 -0.0790  1.8853
15211TIP3    H267125   1.739   2.903   3.308 -0.3029 -0.6977  0.3773
15212TIP3   OH267126   3.671   1.964  10.219 -0.1005 -0.5358  0.1987
15212TIP3    H167127   3.640   2.052  10.238 -0.1348 -0.6729  0.8236
15212TIP3    H267128   3.674   1.921  10.305 -0.0567 -1.1316 -0.0961
15213TIP3   OH267129   5.876   4.823  12.631 -0.6831  0.4557 -0.1194
15213TIP3    H167130   5.916   4.747  12.672 -1.9707  0.3514  1.0142
15213TIP3    H267131   5.949   4.869  12.589  0.0651 -1.5820 -1.2074
15214TIP3   OH267132   5.769   4.236  13.501 -0.4874  0.7359 -0.4387
15214TIP3    H167133   5.861   4.260  13.512 -0.4202  0.6451 -0.8056
15214TIP3    H267134   5.726   4.318  13.475 -0.7789  1.1252  1.1657
15215TIP3   OH267135   5.050   2.726  15.976 -0.1573 -0.0464 -0.1123
15215TIP3    H167136   4.957   2.724  15.954 -0.2844 -0.6373  0.4403
15215TIP3    H267137   5.082   2.639  15.953  0.8719  0.9364 -2.7562
15216TIP3   OH267138   0.379   4.857   5.871 -0.2626 -0.0188  0.5425
15216TIP3    H167139   0.323   4.804   5.929 -0.9297  0.1354  0.0547
15216TIP3    H267140   0.325   4.933   5.849  0.5465  0.6742  0.9180
15217TIP3   OH267141   0.773   4.157  12.891  0.0005 -0.0340  0.5831
15217TIP3    H167142   0.703   4.215  12.921 -0.4754  0.0553 -0.6543
15217TIP3    H267143   0.788   4.097  12.964 -2.1131 -0.7528  0.4742
15218TIP3   OH267144   0.084   2.769  11.233  0.3933  0.2875 -0.0745
15218TIP3    H167145   0.037   2.745  11.153 -0.1536  3.2552 -0.7697
15218TIP3    H267146   0.027   2.742  11.304 -0.3446 -0.0270 -0.7729
15219TIP3   OH267147   1.041   4.072  16.573 -0.3328  0.5585  0.0273
15219TIP3    H167148   1.116   4.014  16.586  1.2820  2.6284  0.6251
15219TIP3    H267149   1.031   4.117  16.657 -1.1668  1.5206 -0.5630
15220TIP3   OH267150   6.589   2.596   1.712  0.2475  0.2308  0.0600
15220TIP3    H167151   6.502   2.637   1.703  0.0443 -0.5611 -2.6157
15220TIP3    H267152   6.587   2.553   1.797 -1.2012  1.9619  0.9733
15221TIP3   OH267153   5.828   6.204   0.924 -0.0390  0.1639  0.5645
15221TIP3    H167154   5.892   6.224   0.856 -0.9869 -0.5148 -0.5590
15221TIP3    H267155   5.849   6.114   0.950  0.9063  0.7286  1.8666
15222TIP3   OH267156   5.297   4.108   1.032  0.3081 -0.7150 -0.2690
15222TIP3    H167157   5.305   4.199   1.004 -0.3928 -0.9389 -1.2377
15222TIP3    H267158   5.351   4.059   0.969  0.2457 -1.0279 -0.0817
15223TIP3   OH267159   2.445   1.622   0.551  0.1743 -0.3019  0.0226
15223TIP3    H167160   2.527   1.667   0.531  0.5491 -0.5893  0.8551
15223TIP3    H267161   2.424   1.572   0.472  0.9032 -0.3821 -0.1252
15224TIP3   OH267162   3.521   0.233  12.633 -0.6847 -0.1207 -0.6138
15224TIP3    H167163   3.502   0.140  12.640  0.3836 -0.2336  1.8689
15224TIP3    H267164   3.561   0.243  12.546  3.1241 -2.8511  0.5679
15225TIP3   OH267165   6.012   5.263  14.776  0.1065  0.0597 -0.1680
15225TIP3    H167166   5.938   5.315  14.743 -1.0860 -0.5593  1.4375
15225TIP3    H267167   5.993   5.249  14.869  0.5306 -2.9721 -0.4299
15226TIP3   OH267168   4.916   0.743   2.903  0.1506 -0.0974 -0.0307
15226TIP3    H167169   4.920   0.834   2.933  2.1331 -0.3434  0.5835
15226TIP3    H267170   4.956   0.693   2.974  1.5566 -1.1346 -1.4833
15227TIP3   OH267171   1.790   2.016   4.601  0.4155  0.2908 -0.2365
15227TIP3    H167172   1.799   2.110   4.615 -0.3543  0.4676 -0.8617
15227TIP3    H267173   1.764   1.981   4.687 -1.3589  0.9529 -0.4490
15228TIP3   OH267174   5.842   3.486  13.458 -0.2101 -0.2146  0.3812
15228TIP3    H167175   5.906   3.516  13.522  0.0010 -0.1000  0.1202
15228TIP3    H267176   5.803   3.408  13.497 -3.3480  2.2470  2.7598
15229TIP3   OH267177   5.446   5.895  16.380  0.3552  0.2635 -0.0937
15229TIP3    H167178   5.511   5.905  16.311 -1.0849  0.5808 -1.4566
15229TIP3    H267179   5.408   5.809  16.364 -1.5041  1.2201 -1.1006
15230TIP3   OH267180   3.410   5.013   6.659 -0.1826  0.0174 -0.0067
15230TIP3    H167181   3.485   4.962   6.628 -0.8933  0.2453 -2.2652
15230TIP3    H267182   3.385   5.067   6.584 -1.7736  0.9385  1.1275
15231TIP3   OH267183   4.716   0.565  14.781 -0.3790  0.0260 -0.0337
15231TIP3    H167184   4.625   0.593  14.766  0.1002  2.4386  0.9922
15231TIP3    H267185   4.708   0.489  14.839 -1.7472 -0.1064 -0.3456
15232TIP3   OH267186   6.685   0.225   2.098 -0.1662 -0.3640  0.0724
15232TIP3    H167187   6.750   0.158   2.118  0.5042  0.2395 -0.0526
15232TIP3    H267188   6.661   0.262   2.182  1.2703  0.8963 -0.0450
15233TIP3   OH267189   0.013   4.031   0.979 -0.0346 -0.1247  0.2378
15233TIP3    H167190   0.010   4.024   0.884 -1.6027  1.1118  0.1495
15233TIP3    H267191   0.054   4.116   0.996  0.2371 -0.3367  0.6794
15234TIP3   OH267192   5.456   0.595   4.569  0.1547  0.1904 -0.6929
15234TIP3    H167193   5.480   0.641   4.650  0.3910 -1.6077  0.3123
15234TIP3    H267194   5.540   0.577   4.526  0.4239 -2.3432  0.7026
15235TIP3   OH267195   3.785   6.436   3.162 -0.1672  0.6133 -0.4613
15235TIP3    H167196   3.722   6.465   3.096  0.8702  1.0322 -1.2803
15235TIP3    H267197   3.824   6.516   3.195  1.6785  0.2888 -1.7156
15236TIP3   OH267198   2.462   3.865  11.782  0.0143  0.4151 -0.5260
15236TIP3    H167199   2.474   3.826  11.696  1.6274  0.4635 -0.3628
15236TIP3    H267200   2.505   3.803  11.842  0.0300  1.0007  0.0792
15237TIP3   OH267201   2.367   0.042   4.990  0.5651  0.0528 -0.4053
15237TIP3    H167202   2.444  -0.012   4.973  0.9972  0.6583 -0.3861
15237TIP3    H267203   2.298  -0.021   5.008  0.8390 -0.5235 -1.3022
15238TIP3   OH267204   3.028   5.432   6.350 -0.0793 -0.1019 -0.3556
15238TIP3    H167205   2.936   5.421   6.372  0.2164  1.1673  1.8451
15238TIP3    H267206   3.074   5.422   6.434  1.5361  1.5430 -0.9794
15239TIP3   OH267207   4.795   3.664  11.886  0.4064  0.3597 -0.0769
15239TIP3    H167208   4.748   3.624  11.960 -0.0716 -0.2591 -0.7009
15239TIP3    H267209   4.834   3.743  11.922  0.3782 -0.0575  0.9031
15240TIP3   OH267210   6.083   0.831   0.406  0.1125 -0.1179 -0.1384
15240TIP3    H167211   6.002   0.878   0.387  0.0271  0.9884  2.4865
15240TIP3    H267212   6.152   0.888   0.373 -0.1110  0.1649 -0.1217
15241TIP3   OH267213   6.824   4.588  12.394 -0.4114  0.0567  0.0056
15241TIP3    H167214   6.828   4.675  12.435 -1.7299  0.1136  0.0304
15241TIP3    H267215   6.908   4.547  12.418  0.1505  1.2439  0.1440
15242TIP3   OH267216   6.771   4.416  11.331 -0.2155  0.3261  0.0820
15242TIP3    H167217   6.705   4.469  11.287  0.1578  0.4392 -0.3572
15242TIP3    H267218   6.766   4.331  11.288  1.5315  1.0133 -1.6466
15243TIP3   OH267219   3.201   3.567   4.404  0.3219 -0.1891 -0.3340
15243TIP3    H167220   3.252   3.608   4.474 -2.6543  0.3546  1.7199
15243TIP3    H267221   3.137   3.513   4.451 -0.8172 -1.0666 -2.7514
15244TIP3   OH267222   3.265   1.386   3.075  0.2163 -0.1751  0.0193
15244TIP3    H167223   3.195   1.383   3.141  0.3805 -0.8607  0.1690
15244TIP3    H267224   3.292   1.295   3.064 -0.8944 -0.3097 -2.1716
15245TIP3   OH267225   4.470   1.469   5.702  0.5176  0.1552  0.2734
15245TIP3    H167226   4.561   1.498   5.707  0.1715  1.5443 -0.8063
15245TIP3    H267227   4.443   1.460   5.794  1.6891 -0.1524  0.6086
15246TIP3   OH267228   0.490   4.198   4.463  0.4199 -0.4678 -0.0015
15246TIP3    H167229   0.453   4.243   4.387  1.0612 -0.7308 -0.4732
15246TIP3    H267230   0.491   4.265   4.532 -2.9684 -0.9825  0.7446
15247TIP3   OH267231   5.617   5.726  11.031  0.1123 -0.2558 -0.2030
15247TIP3    H167232   5.699   5.731  10.983 -0.4583  1.0419 -1.1054
15247TIP3    H267233   5.641   5.745  11.121  0.6505  1.4154 -0.6669
15248TIP3   OH267234   4.896   2.928  12.917 -0.5839  0.1909  0.2304
15248TIP3    H167235   4.932   2.992  12.857  0.1414  0.5555  1.0309
15248TIP3    H267236   4.835   2.876  12.864  1.4258 -0.7507 -1.3048
15249TIP3   OH267237   1.966   0.724   3.858 -0.1339  0.1656  0.0272
15249TIP3    H167238   1.980   0.817   3.871 -1.6865  0.2961  1.1544
15249TIP3    H267239   1.899   0.718   3.790 -0.6706 -0.0733  0.5622
15250TIP3   OH267240   6.710   5.773   2.826 -0.6321 -0.3683 -0.1246
15250TIP3    H167241   6.623   5.787   2.788 -0.9848 -1.9849  0.0154
15250TIP3    H267242   6.770   5.813   2.764 -1.5063  1.7373  0.2948
15251TIP3   OH267243   6.049   4.041   2.248  0.1305  0.3096  0.2079
15251TIP3    H167244   6.027   4.070   2.336 -2.1799  0.1704 -0.2638
15251TIP3    H267245   6.103   3.963   2.261  0.1962  0.5479  1.4856
15252TIP3   OH267246   1.753   2.869   5.204  0.4982 -0.1385  0.5058
15252TIP3    H167247   1.840   2.854   5.169  0.9095  1.3576  0.8422
15252TIP3    H267248   1.695   2.819   5.146  1.4294  0.0367 -0.6013
15253TIP3   OH267249   5.635   2.057  13.161 -0.1471  0.5486 -0.6905
15253TIP3    H167250   5.719   2.063  13.206 -0.4419 -1.4296  0.2137
15253TIP3    H267251   5.624   2.142  13.119  2.8626  0.4406 -1.8807
15254TIP3   OH267252   4.720   1.683   1.166  0.0181 -0.5650  0.0920
15254TIP3    H167253   4.658   1.616   1.136  1.4550 -1.7223 -0.4229
15254TIP3    H267254   4.674   1.766   1.153 -1.1561 -1.3372 -0.9503
15255TIP3   OH267255   4.342   5.652   6.220 -0.3216 -0.3418  0.0476
15255TIP3    H167256   4.253   5.669   6.190 -0.4819  0.1042  0.7476
15255TIP3    H267257   4.370   5.734   6.261  0.4251 -0.4640 -0.1917
15256TIP3   OH267258   1.989   2.673   4.905 -0.1682  0.5217 -0.0104
15256TIP3    H167259   1.928   2.666   4.832 -0.5972 -0.2805  0.4116
15256TIP3    H267260   2.074   2.652   4.868  0.0987  2.7730 -0.8679
15257TIP3   OH267261   2.739   2.927   3.672 -0.3164 -0.6626 -0.3176
15257TIP3    H167262   2.687   2.917   3.752 -2.1392 -1.1332 -1.4870
15257TIP3    H267263   2.736   2.841   3.631  2.6348 -1.1228  0.1915
15258TIP3   OH267264   3.462   4.240   5.375 -0.4005  0.1271  0.2905
15258TIP3    H167265   3.452   4.317   5.431  0.2369  0.7525 -0.4389
15258TIP3    H267266   3.556   4.233   5.360 -0.5007 -0.4645 -0.1052
15259TIP3   OH267267   1.362   2.807  17.098 -0.3850  0.5966 -0.0096
15259TIP3    H167268   1.354   2.729  17.043  0.6614 -0.1891  0.9132
15259TIP3    H267269   1.299   2.793  17.169 -0.0199  0.4613  0.2923
15260TIP3   OH267270   5.312   5.004   3.250 -0.0137  0.2419 -0.3398
15260TIP3    H167271   5.276   4.956   3.324  1.5381  0.7604  0.7877
15260TIP3    H267272   5.366   4.941   3.204  1.2151  0.6117  0.5630
15261TIP3   OH267273   2.775   2.367  13.998 -0.3091  0.3130  0.1240
15261TIP3    H167274   2.702   2.330  13.948  0.3645  0.3516 -0.8911
15261TIP3    H267275   2.841   2.389  13.933  0.9554 -0.4552  1.0939
15262TIP3   OH267276   0.588   2.784   3.806 -0.8415 -0.2937  0.1149
15262TIP3    H167277   0.526   2.766   3.736 -0.7352 -2.3016  0.4875
15262TIP3    H267278   0.604   2.878   3.801 -2.3212 -0.0906 -1.2985
15263TIP3   OH267279   6.641   1.247   1.109 -0.2932 -0.2545 -0.5043
15263TIP3    H167280   6.683   1.332   1.094 -0.0807 -0.1786  0.4743
15263TIP3    H267281   6.607   1.252   1.198 -0.1754 -1.2379 -0.3923
15264TIP3   OH267282   4.203   4.419  12.556  0.2701 -0.1334 -0.1032
15264TIP3    H167283   4.282   4.392  12.509  1.0646  0.2873  0.9403
15264TIP3    H267284   4.194   4.512  12.536  1.3975  0.3930  1.5792
15265TIP3   OH267285   1.869   2.323  13.467 -0.5605 -0.9293 -0.4919
15265TIP3    H167286   1.782   2.321  13.429 -0.5405 -2.7137 -0.5216
15265TIP3    H267287   1.921   2.376  13.406 -1.5069 -0.2156 -0.6902
15266TIP3   OH267288   6.701   5.032  13.598 -0.0764  0.8796  0.2727
15266TIP3    H167289   6.650   5.077  13.665 -2.8510 -0.2999 -0.8827
15266TIP3    H267290   6.727   5.101  13.537 -0.5447  1.4909  0.7489
15267TIP3   OH267291   0.313   3.951   3.901 -0.0923 -0.0296  0.2933
15267TIP3    H167292   0.379   3.882   3.898  0.0621  0.1630 -1.8690
15267TIP3    H267293   0.239   3.917   3.851 -0.8247  0.5931  0.9216
15268TIP3   OH267294   5.172   2.262  12.555 -0.3577  0.6022 -0.1379
15268TIP3    H167295   5.080   2.262  12.531 -0.1461  0.1377 -1.0031
15268TIP3    H267296   5.174   2.292  12.646 -1.2002  2.5153 -0.6925
15269TIP3   OH267297   4.745   6.749  12.892 -0.1583  0.5325 -0.1097
15269TIP3    H167298   4.696   6.797  12.959  0.8744 -0.2410  1.2585
15269TIP3    H267299   4.790   6.680  12.941  0.3868 -0.2570 -1.6663
15270TIP3   OH267300   0.222   0.868   1.144 -0.2571  0.0403  0.3855
15270TIP3    H167301   0.233   0.940   1.081 -0.8676  1.3188  1.6893
15270TIP3    H267302   0.130   0.872   1.169 -0.3317 -1.2974  0.4015
15271TIP3   OH267303   0.373   6.140  12.951  0.2519  0.0841  0.0015
15271TIP3    H167304   0.439   6.129  12.883 -0.7741  0.1587 -1.0508
15271TIP3    H267305   0.417   6.190  13.019  1.4669 -0.4373 -0.3669
15272TIP3   OH267306   5.258   3.655   2.783  0.3828  0.1264 -0.2645
15272TIP3    H167307   5.318   3.729   2.793  1.6898 -1.0033  0.5893
15272TIP3    H267308   5.314   3.583   2.755 -0.5460 -1.0023  0.6905
15273TIP3   OH267309   0.154   4.870  13.029 -0.0152  0.6587 -0.0088
15273TIP3    H167310   0.069   4.827  13.016 -0.1080  0.5590  0.8672
15273TIP3    H267311   0.162   4.878  13.124  1.9968 -1.4143  0.0895
15274TIP3   OH267312   0.602   3.755  16.055 -0.0687 -0.1791  0.1491
15274TIP3    H167313   0.653   3.677  16.033 -0.4305 -0.3575 -0.0820
15274TIP3    H267314   0.535   3.758  15.987 -0.1061  0.2891  0.2057
15275TIP3   OH267315   0.324   2.111   3.857  0.2516  0.4672 -0.6503
15275TIP3    H167316   0.410   2.081   3.886  1.0036  2.0629 -1.1023
15275TIP3    H267317   0.331   2.206   3.855 -1.6556  0.6530 -0.3478
15276TIP3   OH267318   2.869   5.753   1.310  0.3120  0.2350 -0.2484
15276TIP3    H167319   2.894   5.759   1.218  0.3415 -0.3961 -0.2869
15276TIP3    H267320   2.785   5.800   1.316 -1.2240 -2.2217 -1.2164
15277TIP3   OH267321   4.300   3.289  12.364 -0.1416 -0.3994  0.1876
15277TIP3    H167322   4.383   3.329  12.337 -0.2889 -1.0356 -1.3295
15277TIP3    H267323   4.239   3.310  12.292 -1.5796  0.8285  1.6739
15278TIP3   OH267324   3.067   5.476   5.064  0.2245 -0.0299 -0.4888
15278TIP3    H167325   2.975   5.500   5.055 -0.2354 -0.8588  1.4638
15278TIP3    H267326   3.083   5.476   5.159  2.2392  0.0822 -0.7731
15279TIP3   OH267327   1.150   1.410  13.923  0.1803 -0.0687 -0.0328
15279TIP3    H167328   1.216   1.363  13.872  1.0498 -0.3552  1.3171
15279TIP3    H267329   1.189   1.421  14.009 -2.0914 -1.5650  1.3027
15280TIP3   OH267330   2.382   1.364  12.595  0.5696 -0.0963 -0.0839
15280TIP3    H167331   2.419   1.380  12.509 -1.2584  1.4081 -0.6443
15280TIP3    H267332   2.328   1.286  12.584  0.0668  0.2899 -0.4165
15281TIP3   OH267333   6.633   1.217  15.807 -0.0879 -0.1996  0.1964
15281TIP3    H167334   6.666   1.150  15.867 -1.2993 -1.3032 -0.3078
15281TIP3    H267335   6.702   1.227  15.741  0.1372 -0.9037  0.3183
15282TIP3   OH267336   0.707   4.746  16.176  0.0932  0.5644 -0.8110
15282TIP3    H167337   0.625   4.771  16.219  0.0431 -2.2467  0.9659
15282TIP3    H267338   0.774   4.797  16.222 -0.1180 -1.3547  1.8343
15283TIP3   OH267339   5.554   0.720   0.158 -0.3265 -0.1003 -0.3643
15283TIP3    H167340   5.577   0.678   0.075  0.0611 -0.5200 -0.0509
15283TIP3    H267341   5.461   0.739   0.151 -0.1153  0.6918 -1.2527
15284TIP3   OH267342   1.026   1.705   0.040 -0.1607 -0.0965 -0.2987
15284TIP3    H167343   0.931   1.698   0.045 -0.2497  0.1949 -1.3833
15284TIP3    H267344   1.054   1.621   0.002 -0.0432  0.0615 -0.5610
15285TIP3   OH267345   0.543   3.152  15.455 -0.3546 -0.3146 -0.4229
15285TIP3    H167346   0.529   3.245  15.471 -2.6669 -0.4235 -1.4498
15285TIP3    H267347   0.630   3.147  15.416  0.4313  1.2185  1.0479
15286TIP3   OH267348   1.117   5.054   6.761  0.0962 -0.0819  0.1187
15286TIP3    H167349   1.105   4.967   6.723 -0.5819  0.5431 -1.1788
15286TIP3    H267350   1.107   5.041   6.855  0.3744 -1.4630 -0.0318
15287TIP3   OH267351   2.135   1.504  12.070 -0.4045  0.0221 -0.5405
15287TIP3    H167352   2.191   1.521  11.994  0.1243  1.0844  0.0621
15287TIP3    H267353   2.069   1.573  12.067 -0.8703 -0.4150 -0.4814
15288TIP3   OH267354   2.171   0.298  10.913  0.1633  0.6754 -0.0268
15288TIP3    H167355   2.208   0.370  10.861 -0.0342  0.4877 -0.4301
15288TIP3    H267356   2.182   0.221  10.857 -0.7036  0.5949 -0.0897
15289TIP3   OH267357   2.463   6.025  14.558  0.1033 -0.0241  0.1395
15289TIP3    H167358   2.445   6.008  14.465  0.7764  0.8026 -0.1504
15289TIP3    H267359   2.394   5.978  14.604 -1.2034  0.8848 -0.8333
15290TIP3   OH267360   4.463   2.905   5.682  0.0424 -0.2495  0.2809
15290TIP3    H167361   4.554   2.931   5.669 -0.4084  0.6140 -1.5397
15290TIP3    H267362   4.418   2.986   5.706 -0.3966 -0.4893  0.2872
15291TIP3   OH267363   6.477   3.712   4.596  0.2798 -0.9213 -0.1819
15291TIP3    H167364   6.518   3.796   4.577 -1.8577  0.4740  0.9031
15291TIP3    H267365   6.383   3.731   4.595 -0.2370 -2.9420  1.6090
15292TIP3   OH267366   1.680   0.036  13.821  0.7789  0.1942 -0.2963
15292TIP3    H167367   1.589   0.052  13.847  0.7961 -1.2469  0.7536
15292TIP3    H267368   1.695  -0.056  13.842  2.8208  0.6824  0.5743
15293TIP3   OH267369   6.149   3.240  16.351 -0.2651 -0.1287 -0.2726
15293TIP3    H167370   6.103   3.303  16.296 -0.9732  4.3788  4.7291
15293TIP3    H267371   6.239   3.240  16.317 -0.7631  1.8710 -1.7572
15294TIP3   OH267372   0.608   4.037  16.076 -0.0689  0.4289  0.6027
15294TIP3    H167373   0.628   4.046  16.169  3.0810 -0.8338  0.1452
15294TIP3    H267374   0.594   3.943  16.063 -0.9945  0.6489 -0.1564
15295TIP3   OH267375   5.277   2.307  11.735 -0.0840  0.0479 -0.2989
15295TIP3    H167376   5.264   2.222  11.694  1.0688 -0.2490 -0.0717
15295TIP3    H267377   5.190   2.331  11.769 -0.3063 -1.2874  0.1250
15296TIP3   OH267378   0.423   2.378  16.017 -0.0897 -0.0171 -0.1224
15296TIP3    H167379   0.348   2.318  16.013  0.2129 -0.4397  0.3469
15296TIP3    H267380   0.417   2.430  15.937 -0.7485 -0.2078 -0.2025
15297TIP3   OH267381   5.023   4.974   1.001 -0.6007 -0.3951  0.5264
15297TIP3    H167382   5.071   4.979   1.084 -0.3508 -1.2513  0.4385
15297TIP3    H267383   5.091   4.965   0.934 -0.7192  1.6239  0.0676
15298TIP3   OH267384   4.036   0.314   0.043  0.1034 -0.2683 -0.0475
15298TIP3    H167385   4.102   0.257   0.003 -0.4692 -1.3155  0.4453
15298TIP3    H267386   4.046   0.398  -0.001  1.2376 -0.6387 -0.5234
15299TIP3   OH267387   3.830   3.205   4.360 -0.8902  0.5411 -0.1889
15299TIP3    H167388   3.807   3.123   4.405 -0.1382 -0.1304 -0.9760
15299TIP3    H267389   3.844   3.268   4.430  0.7174 -0.5988  0.5828
15300TIP3   OH267390   4.575   4.194  15.314 -0.1724  0.2421 -0.2866
15300TIP3    H167391   4.518   4.184  15.238  0.6797 -0.6295 -0.8201
15300TIP3    H267392   4.522   4.163  15.388  0.2671 -2.5604 -1.0478
15301TIP3   OH267393   2.910   4.540  16.805 -0.6047 -0.1932  0.5352
15301TIP3    H167394   2.814   4.545  16.809 -0.5620  0.2820  0.9282
15301TIP3    H267395   2.930   4.553  16.712 -1.0120 -1.9265  0.1636
15302TIP3   OH267396   4.877   3.288  14.662 -0.3228  0.4573 -0.3044
15302TIP3    H167397   4.807   3.300  14.597  0.1305  3.8976 -0.3206
15302TIP3    H267398   4.958   3.302  14.613  0.2718 -0.9594  0.2337
15303TIP3   OH267399   5.379   1.458   0.170  1.3757 -0.3843 -0.5184
15303TIP3    H167400   5.318   1.405   0.220 -0.9381  0.9015 -1.8178
15303TIP3    H267401   5.432   1.503   0.236  0.4412 -0.9897  0.6778
15304TIP3   OH267402   2.372   6.504   6.027 -0.3773  0.6916  0.3362
15304TIP3    H167403   2.461   6.506   6.063 -0.3587  0.5298  0.2970
15304TIP3    H267404   2.372   6.573   5.960 -0.3641  0.8832  0.5312
15305TIP3   OH267405   3.808   6.637   1.843 -0.3985  1.1887 -0.5140
15305TIP3    H167406   3.830   6.728   1.822  1.1887  0.4188 -2.6397
15305TIP3    H267407   3.719   6.626   1.812 -0.4486  1.9052 -0.6452
15306TIP3   OH267408   4.734   0.825   5.995 -0.2918 -0.0597  0.1007
15306TIP3    H167409   4.712   0.808   6.087 -0.5475 -1.5097 -0.1974
15306TIP3    H267410   4.693   0.909   5.975  0.6168  0.7861  1.5828
15307TIP3   OH267411   2.777   0.993   5.652 -0.6371  0.2791  0.2492
15307TIP3    H167412   2.752   0.922   5.711  0.3930  0.1766  0.5982
15307TIP3    H267413   2.776   0.953   5.565 -1.9854  0.3806  0.2113
15308TIP3   OH267414   6.512   4.621   4.368  0.7039  0.2340  0.2181
15308TIP3    H167415   6.591   4.600   4.417  1.3635 -1.8599 -1.5559
15308TIP3    H267416   6.539   4.689   4.306  0.8745  0.2124  0.2678
15309TIP3   OH267417   5.722   4.386  14.512  0.3077 -0.1836 -0.7075
15309TIP3    H167418   5.766   4.370  14.596 -1.9537  0.1604  0.6157
15309TIP3    H267419   5.676   4.469  14.525 -1.4708 -0.9710 -1.6583
15310TIP3   OH267420   0.234   3.904   4.733  0.0140  0.0033  0.4730
15310TIP3    H167421   0.213   3.987   4.689 -2.1313 -0.6501  0.1455
15310TIP3    H267422   0.325   3.886   4.708  0.1532  1.6828 -0.3749
15311TIP3   OH267423   4.657   5.930   0.934 -0.1387  0.3468  0.5832
15311TIP3    H167424   4.706   5.998   0.888  0.0627  0.3115  0.7413
15311TIP3    H267425   4.716   5.854   0.936 -1.9968 -1.5210 -3.7273
15312TIP3   OH267426   2.377   6.260   2.436 -0.4696 -0.0355  0.4941
15312TIP3    H167427   2.414   6.174   2.458 -1.0369 -0.3716  0.1711
15312TIP3    H267428   2.335   6.289   2.517 -0.5625 -0.2157  0.5116
15313TIP3   OH267429   4.525   1.616  14.041  0.4041 -0.6882  0.1667
15313TIP3    H167430   4.603   1.657  14.003  1.1797 -1.4847  0.8894
15313TIP3    H267431   4.498   1.676  14.111  0.6377 -0.6471  0.2223
15314TIP3   OH267432   3.383   2.992   6.173 -0.4854 -0.3329 -0.2019
15314TIP3    H167433   3.450   2.964   6.111  1.6454  0.6451  1.5056
15314TIP3    H267434   3.307   2.937   6.153  1.1056 -2.1436 -1.6640
15315TIP3   OH267435   0.738   3.611   5.880 -0.3796 -0.4323 -0.7054
15315TIP3    H167436   0.816   3.641   5.926 -1.5714  0.9478  0.5354
15315TIP3    H267437   0.731   3.669   5.804 -1.1632  0.6737  0.1816
15316TIP3   OH267438   6.311   4.699   5.387 -0.3592  0.5047 -0.2765
15316TIP3    H167439   6.281   4.609   5.372 -0.3644  0.6242 -1.0553
15316TIP3    H267440   6.372   4.716   5.315 -0.6477  1.2552 -0.3563
15317TIP3   OH267441   6.615   1.398  13.340 -0.4798 -0.7563  0.2826
15317TIP3    H167442   6.552   1.331  13.369 -0.1264 -1.1108  0.2517
15317TIP3    H267443   6.628   1.453  13.417 -0.3406 -1.0701  0.4869
15318TIP3   OH267444   3.990   6.494   3.532  0.4180  0.1797  0.3204
15318TIP3    H167445   3.965   6.566   3.474  0.9095  0.6319  0.6568
15318TIP3    H267446   3.954   6.518   3.617  1.1404  0.3603  0.5866
15319TIP3   OH267447   0.849   6.251  13.438 -0.0417 -1.0560 -0.0438
15319TIP3    H167448   0.855   6.222  13.529  1.1308 -2.6159 -0.5868
15319TIP3    H267449   0.939   6.255  13.408 -0.2996  0.9327 -0.7410
15320TIP3   OH267450   3.655   3.398  15.772 -0.3829 -0.1126  0.1874
15320TIP3    H167451   3.676   3.358  15.856  0.4228 -0.6156 -0.2363
15320TIP3    H267452   3.626   3.324  15.718  0.2625  0.0043 -0.3327
15321TIP3   OH267453   3.087   1.317  11.354 -0.8052  0.0175  0.1970
15321TIP3    H167454   3.179   1.334  11.374 -0.9471  1.4352 -0.2447
15321TIP3    H267455   3.087   1.232  11.310  0.2082 -0.2889  0.7579
15322TIP3   OH267456   2.715   0.037  16.206 -0.2570  0.0920 -0.2521
15322TIP3    H167457   2.778   0.074  16.144  0.3743  0.8247  0.8022
15322TIP3    H267458   2.768   0.009  16.281 -0.9530 -1.2400 -0.2173
15323TIP3   OH267459   4.074   4.309  10.621  0.2591 -0.0253 -0.2026
15323TIP3    H167460   4.060   4.346  10.534 -0.5802  0.5991  0.1916
15323TIP3    H267461   3.987   4.296  10.657  0.5991  0.4010  0.8301
15324TIP3   OH267462   6.585   2.516   1.962 -0.2612 -0.5014 -0.7607
15324TIP3    H167463   6.624   2.432   1.987 -0.4341 -0.8189 -1.5161
15324TIP3    H267464   6.633   2.581   2.013 -0.3715 -1.0879  0.1109
15325TIP3   OH267465   2.262   3.177   0.443  0.5835 -0.1015 -0.1702
15325TIP3    H167466   2.238   3.234   0.370  2.2405 -0.7341 -1.2752
15325TIP3    H267467   2.356   3.164   0.433  0.4683 -2.0078  0.7956
15326TIP3   OH267468   4.421   1.766   4.281 -0.5919 -0.0357 -0.3188
15326TIP3    H167469   4.438   1.721   4.198 -0.5991 -0.4459 -0.1008
15326TIP3    H267470   4.415   1.858   4.257  0.9226  0.0335 -0.5640
15327TIP3   OH267471   6.561   5.578  15.301 -0.0589  0.4828  0.4755
15327TIP3    H167472   6.485   5.631  15.325 -0.9094  0.0979 -1.1865
15327TIP3    H267473   6.525   5.509  15.244  1.4287 -0.1468  0.2596
15328TIP3   OH267474   1.582   6.308   5.132  0.1373  0.0524  0.0077
15328TIP3    H167475   1.673   6.296   5.105  0.0463 -0.4035 -0.1003
15328TIP3    H267476   1.567   6.402   5.123  1.1496  0.4282  1.8370
15329TIP3   OH267477   2.708   1.924   2.669 -0.4061  0.0208  0.3013
15329TIP3    H167478   2.773   1.869   2.625 -2.3557 -1.8498 -0.3921
15329TIP3    H267479   2.758   1.970   2.737  2.0532  0.4769 -1.6868
15330TIP3   OH267480   3.695   1.541   1.648 -0.4526 -0.1354 -0.3803
15330TIP3    H167481   3.661   1.470   1.593 -0.7987 -1.4093  1.3772
15330TIP3    H267482   3.632   1.612   1.638 -1.0507 -0.7198 -0.8338
15331TIP3   OH267483   2.085   2.671  14.530 -0.4700 -0.3148  0.1775
15331TIP3    H167484   2.077   2.764  14.508  0.1361 -0.7236 -2.0647
15331TIP3    H267485   2.073   2.667  14.624 -1.4705  1.9261  0.1999
15332TIP3   OH267486   5.293   0.388   1.263 -0.2966 -0.1148 -0.2256
15332TIP3    H167487   5.352   0.451   1.305  1.3253 -1.2859 -0.6354
15332TIP3    H267488   5.272   0.325   1.331  1.8556 -1.6788 -0.8888
15333TIP3   OH267489   1.531   0.174  11.964  0.1649 -0.1828  0.1378
15333TIP3    H167490   1.609   0.145  12.011 -0.5947 -1.9108  0.4013
15333TIP3    H267491   1.464   0.108  11.983 -0.6224 -0.1700 -2.1664
15334TIP3   OH267492   0.938   0.005   3.694  0.5416 -0.0569 -0.1049
15334TIP3    H167493   1.027  -0.029   3.697  0.0993 -1.2606 -0.1107
15334TIP3    H267494   0.949   0.100   3.681  1.8636  0.1640  2.0622
15335TIP3   OH267495   4.530   2.581  11.365  0.0810  0.0179  0.0227
15335TIP3    H167496   4.491   2.621  11.443  0.2187 -1.1479  0.7098
15335TIP3    H267497   4.623   2.606  11.369  0.7023 -2.2509  1.7655
15336TIP3   OH267498   5.029   6.109   6.416 -0.6200 -0.5568  0.3819
15336TIP3    H167499   4.948   6.136   6.460 -1.2446  0.5532 -1.3330
15336TIP3    H267500   5.098   6.156   6.462 -1.1962  0.2367  0.4587
15337TIP3   OH267501   3.991   5.070  13.878  0.4923  0.1835 -0.0003
15337TIP3    H167502   3.978   5.037  13.967  2.2397  0.6616  0.4598
15337TIP3    H267503   3.957   5.000  13.822  0.4010 -0.6212  1.0218
15338TIP3   OH267504   2.070   1.522   0.636 -0.1197  0.7060 -0.5724
15338TIP3    H167505   2.048   1.569   0.556 -1.5306  0.4112 -0.3803
15338TIP3    H267506   2.134   1.579   0.680 -0.5747  1.6607 -1.1147
15339TIP3   OH267507   6.018   6.477   3.861  0.3977 -0.3310  0.0860
15339TIP3    H167508   5.984   6.544   3.802 -0.1980  1.9442  2.8036
15339TIP3    H267509   6.113   6.477   3.845  0.2400  0.1135 -0.9330
15340TIP3   OH267510   5.610   6.517   5.029  0.3216 -0.3002 -0.1050
15340TIP3    H167511   5.640   6.479   5.111 -1.4890  0.4312  0.9557
15340TIP3    H267512   5.637   6.454   4.962  2.8340 -0.3724  0.8558
15341TIP3   OH267513   3.280   4.851  16.708 -0.5250  0.9980 -0.3435
15341TIP3    H167514   3.301   4.766  16.670 -0.9142  1.3730 -1.4522
15341TIP3    H267515   3.354   4.871  16.765  0.8299  1.0650 -2.0422
15342TIP3   OH267516   5.553   6.117   5.533 -0.0678  0.1417  1.0281
15342TIP3    H167517   5.641   6.148   5.550 -0.3542  1.3241  0.4381
15342TIP3    H267518   5.564   6.040   5.477  0.6211 -0.5106  2.0243
15343TIP3   OH267519   3.388   2.582  14.870  0.2168  0.4367  0.0732
15343TIP3    H167520   3.409   2.674  14.855  0.8645  0.1336 -1.0055
15343TIP3    H267521   3.384   2.544  14.782 -1.7230 -0.2252  0.4074
15344TIP3   OH267522   0.889   6.573   0.519 -0.2048  0.5121  0.7133
15344TIP3    H167523   0.832   6.649   0.510  0.1899  0.7052 -0.2412
15344TIP3    H267524   0.978   6.608   0.517 -0.0297  0.2676  2.7385
15345TIP3   OH267525   0.479   3.456   4.432  0.4281  0.5912  0.0575
15345TIP3    H167526   0.387   3.480   4.430 -0.2408 -1.4188  2.2253
15345TIP3    H267527   0.526   3.536   4.409 -1.8115  1.7587 -0.7044
15346TIP3   OH267528   3.237   3.641  12.231  0.7017  0.2178 -0.4287
15346TIP3    H167529   3.260   3.698  12.158  1.5742  1.4180  0.7287
15346TIP3    H267530   3.320   3.604  12.261  0.0400 -2.8627 -2.0067
15347TIP3   OH267531   4.139   5.155   1.554  0.0120 -0.3808 -0.0659
15347TIP3    H167532   4.085   5.224   1.517  1.5846  0.3154 -1.1810
15347TIP3    H267533   4.193   5.199   1.619 -0.3725 -0.9552  0.6496
15348TIP3   OH267534   0.748   1.173   4.845 -0.2855 -0.5830 -0.3488
15348TIP3    H167535   0.782   1.185   4.934  1.4540 -0.2833 -1.0142
15348TIP3    H267536   0.690   1.247   4.831  2.0480  1.2994 -0.6168
15349TIP3   OH267537   4.443   4.568   1.316 -0.2481 -0.3480  0.3330
15349TIP3    H167538   4.450   4.602   1.405  0.6317  0.4962 -0.0332
15349TIP3    H267539   4.526   4.522   1.301  0.7363  1.6870 -0.8906
15350TIP3   OH267540   4.071   4.454  16.798  0.0380 -0.1066 -0.0022
15350TIP3    H167541   4.049   4.543  16.827 -2.0897 -0.0106 -1.6637
15350TIP3    H267542   3.986   4.410  16.789  1.0451 -2.3651  0.8247
15351TIP3   OH267543   2.501   6.613  15.577 -0.5430  0.3233 -0.4962
15351TIP3    H167544   2.530   6.676  15.644 -1.5850  0.1138  0.1721
15351TIP3    H267545   2.534   6.529  15.607 -0.5479  0.3098 -0.5282
15352TIP3   OH267546   6.666   1.255   2.835  0.2601  0.1297  0.6008
15352TIP3    H167547   6.646   1.166   2.805 -1.5188  0.9926 -0.9524
15352TIP3    H267548   6.624   1.261   2.921 -2.7992  0.4992 -0.7752
15353TIP3   OH267549   5.127   4.013   0.717  0.4843  0.3811  0.1758
15353TIP3    H167550   5.106   3.941   0.658 -1.3302  1.6762 -0.8748
15353TIP3    H267551   5.183   4.071   0.666  1.0723  0.2297  0.6472
15354TIP3   OH267552   6.792   4.196   5.077  0.6294 -0.1897  0.0504
15354TIP3    H167553   6.853   4.143   5.025  0.5680  0.3754 -0.6155
15354TIP3    H267554   6.802   4.164   5.166 -0.9086 -2.7610 -0.6097
15355TIP3   OH267555   4.006   4.424   4.487  0.1952 -0.2946 -0.1667
15355TIP3    H167556   3.926   4.386   4.451 -0.2408  1.9526 -1.8318
15355TIP3    H267557   4.063   4.439   4.411  1.2636  0.1863  0.6929
15356TIP3   OH267558   2.238   4.355   4.865  0.2761  0.4621  0.1948
15356TIP3    H167559   2.163   4.340   4.807  0.2452 -0.2050  0.4043
15356TIP3    H267560   2.205   4.414   4.933  0.3625  1.4147 -0.5561
15357TIP3   OH267561   1.776   5.024   1.824  0.4957 -0.2411 -0.1124
15357TIP3    H167562   1.759   4.953   1.763  0.9729  0.6049 -1.2598
15357TIP3    H267563   1.857   5.064   1.793  0.0584  1.0221  0.3015
15358TIP3   OH267564   5.205   0.862   0.398 -0.4111 -0.2561  0.3865
15358TIP3    H167565   5.270   0.927   0.373 -1.1656  0.1936 -0.4822
15358TIP3    H267566   5.122   0.899   0.368 -0.8880 -1.4878  0.1286
15359TIP3   OH267567   2.111   5.703  13.404 -0.3959 -1.0028  0.3787
15359TIP3    H167568   2.025   5.693  13.445 -0.1408 -0.5895  1.0350
15359TIP3    H267569   2.125   5.621  13.357 -0.5552 -1.6331  1.3976
15360TIP3   OH267570   1.062   5.407  11.744 -0.1890 -0.4876 -0.1418
15360TIP3    H167571   1.134   5.360  11.788  0.3939  1.8103  1.5247
15360TIP3    H267572   1.106   5.461  11.678 -0.4608  0.2781  0.2949
15361TIP3   OH267573   0.936   3.766  14.867  0.1047  0.4177  0.2192
15361TIP3    H167574   0.908   3.675  14.863  0.6770  0.0504  2.7167
15361TIP3    H267575   0.924   3.799  14.778  0.9147 -2.3727 -1.0372
15362TIP3   OH267576   5.728   3.743  12.032  0.4872  0.3296 -0.0289
15362TIP3    H167577   5.642   3.779  12.009 -0.4747 -2.7891 -1.8452
15362TIP3    H267578   5.710   3.656  12.067  2.9131 -0.3417 -0.2395
15363TIP3   OH267579   2.265   6.377   1.043 -0.0377  0.2057 -0.3542
15363TIP3    H167580   2.330   6.330   0.991 -0.8489 -0.0850 -1.1429
15363TIP3    H267581   2.232   6.445   0.984 -1.8115 -0.8608 -0.6885
15364TIP3   OH267582   2.828   3.550  11.370  0.0954 -0.3412 -0.1426
15364TIP3    H167583   2.775   3.488  11.421 -0.8817  0.6853  0.1367
15364TIP3    H267584   2.775   3.569  11.293  1.2224 -1.2641 -1.1848
15365TIP3   OH267585   5.514   1.268   0.407  0.6255 -0.0939  0.7452
15365TIP3    H167586   5.518   1.289   0.500 -0.0905 -1.2389  1.0666
15365TIP3    H267587   5.586   1.317   0.367  0.7768  0.6156  1.8546
15366TIP3   OH267588   4.163   3.578  11.263  0.6193  0.3759 -0.0317
15366TIP3    H167589   4.095   3.642  11.284  1.1111  1.8453 -2.5109
15366TIP3    H267590   4.245   3.626  11.272  1.3301 -1.0510  1.7761
15367TIP3   OH267591   2.927   3.718  13.852 -0.6449 -0.2460  0.1285
15367TIP3    H167592   2.927   3.639  13.906 -2.8756 -1.6361 -1.6782
15367TIP3    H267593   3.009   3.715  13.803 -0.5948 -1.3158  0.2726
15368TIP3   OH267594   2.409   5.213   6.054  0.1159  0.0299 -0.7257
15368TIP3    H167595   2.471   5.259   6.112  0.8991 -0.4469 -1.1657
15368TIP3    H267596   2.391   5.276   5.984  2.7745 -0.9323 -2.4492
15369TIP3   OH267597   1.132   6.716   0.482  0.2793 -0.0367 -0.1498
15369TIP3    H167598   1.182   6.730   0.563  0.3299 -0.6544 -0.0736
15369TIP3    H267599   1.185   6.758   0.414  0.0499  0.8279  0.1863
15370TIP3   OH267600   3.507   2.203  16.886 -0.2061 -0.6891  0.4501
15370TIP3    H167601   3.578   2.169  16.941  0.6395  0.0280 -0.1581
15370TIP3    H267602   3.431   2.203  16.943  0.4746 -0.6731  1.3926
15371TIP3   OH267603   4.156   6.473  16.334 -0.3546 -0.2705 -0.0392
15371TIP3    H167604   4.126   6.388  16.301 -0.9243 -1.4237  3.1461
15371TIP3    H267605   4.077   6.525  16.342 -0.1632  0.1540 -0.7965
15372TIP3   OH267606   2.019   4.308  13.474  0.2311  0.3378 -0.2919
15372TIP3    H167607   1.971   4.390  13.484  0.0761  0.1571  0.5582
15372TIP3    H267608   2.012   4.287  13.381 -1.7061  0.1216 -0.1533
15373TIP3   OH267609   5.785   4.223  11.760  0.5544 -0.4625 -0.3821
15373TIP3    H167610   5.795   4.171  11.839 -1.6094  0.3002  0.4846
15373TIP3    H267611   5.778   4.313  11.791  2.9140  0.2801 -1.7404
15374TIP3   OH267612   4.787   5.883  14.799 -0.3415  0.0520  0.2828
15374TIP3    H167613   4.787   5.924  14.886 -1.7464 -1.7802  1.2199
15374TIP3    H267614   4.852   5.933  14.749  0.6657  1.0289  2.4284
15375TIP3   OH267615   3.464   1.465  14.312 -0.0849  0.2688 -0.5223
15375TIP3    H167616   3.535   1.466  14.376 -0.1489 -1.3701 -0.3699
15375TIP3    H267617   3.464   1.552  14.274  0.4146  1.0562  1.2013
15376TIP3   OH267618   5.154   5.525  13.819 -0.3381  0.2264 -0.3508
15376TIP3    H167619   5.153   5.516  13.914 -2.5331  0.6310 -0.2984
15376TIP3    H267620   5.143   5.436  13.786 -0.9321  0.2455 -0.2028
15377TIP3   OH267621   2.296   4.085  11.051  0.0191  1.2836  0.5882
15377TIP3    H167622   2.346   4.004  11.047  0.2745  1.2657  2.8061
15377TIP3    H267623   2.359   4.153  11.027 -0.2764  0.8783 -1.5958
15378TIP3   OH267624   0.233   2.741   4.596 -0.7098 -0.0428  0.1506
15378TIP3    H167625   0.157   2.735   4.539 -0.5826 -0.5137  0.0287
15378TIP3    H267626   0.308   2.725   4.538 -0.5884 -0.6598  0.4653
15379TIP3   OH267627   0.364   1.880  11.860  0.0106  0.2206 -0.0254
15379TIP3    H167628   0.445   1.884  11.912  0.3844 -0.8534 -0.4908
15379TIP3    H267629   0.326   1.795  11.882 -0.5207  0.3239 -0.5147
15380TIP3   OH267630   5.506   5.626   0.822 -0.2306 -0.0759  0.3335
15380TIP3    H167631   5.464   5.541   0.820  0.7257 -0.5527 -1.4574
15380TIP3    H267632   5.463   5.677   0.753 -0.8345  0.9406  1.4166
15381TIP3   OH267633   5.799   5.111   5.912 -0.1349 -1.0692 -0.0544
15381TIP3    H167634   5.879   5.140   5.954 -0.9206  1.4516 -0.1310
15381TIP3    H267635   5.827   5.078   5.827  0.9158 -1.1017  0.2964
15382TIP3   OH267636   6.170   3.520   5.570 -0.1581  0.0190 -0.3595
15382TIP3    H167637   6.091   3.547   5.617 -1.5389 -2.2747 -1.1472
15382TIP3    H267638   6.158   3.426   5.557  2.2236 -0.1936 -1.4841
15383TIP3   OH267639   5.513   4.427  14.775  0.2283  0.3590  0.2161
15383TIP3    H167640   5.429   4.396  14.740  0.3615 -2.2307  1.9608
15383TIP3    H267641   5.506   4.523  14.771 -2.2426  0.2094 -0.9535
15384TIP3   OH267642   4.585   5.819  11.098 -0.0021  0.1944 -0.5928
15384TIP3    H167643   4.505   5.785  11.137  0.1361  0.7103  0.1467
15384TIP3    H267644   4.556   5.860  11.016 -0.2910 -0.8668 -1.0445
15385TIP3   OH267645   6.039   2.699  11.336 -0.1795  0.0016 -0.1866
15385TIP3    H167646   5.959   2.736  11.300 -0.6958 -0.2274  0.6975
15385TIP3    H267647   6.057   2.622  11.282 -0.1682  0.4361 -0.8110
15386TIP3   OH267648   1.328   0.682   3.718  0.5502 -0.4419 -1.0008
15386TIP3    H167649   1.311   0.595   3.682 -0.0819 -0.5427 -0.4831
15386TIP3    H267650   1.384   0.666   3.794  0.1809 -0.4413 -0.7198
15387TIP3   OH267651   5.428   3.263  13.782 -0.2397 -0.3964 -0.1684
15387TIP3    H167652   5.350   3.294  13.828  0.6626  0.9674  0.4900
15387TIP3    H267653   5.396   3.238  13.695 -1.1421  1.9560 -0.5883
15388TIP3   OH267654   5.537   0.967   6.029 -0.2755 -0.4891  0.3710
15388TIP3    H167655   5.452   1.011   6.035  0.2759  0.5861  0.5214
15388TIP3    H267656   5.583   0.992   6.109  0.5251 -0.3230 -0.1327
15389TIP3   OH267657   1.001   5.692   1.392  0.0450  0.2849 -0.3719
15389TIP3    H167658   1.007   5.650   1.306  1.1465  2.8463 -1.6690
15389TIP3    H267659   0.910   5.679   1.418 -0.8932  1.0850 -2.8980
15390TIP3   OH267660   5.284   0.039  12.282  0.5935  0.0679  0.1873
15390TIP3    H167661   5.273   0.113  12.222 -0.7857 -0.7595 -0.6511
15390TIP3    H267662   5.208   0.044  12.339  0.1882 -0.9818 -0.2266
15391TIP3   OH267663   2.582   3.666   2.720  0.3483 -0.1303  0.8861
15391TIP3    H167664   2.613   3.612   2.793  0.4055  1.1038  1.8244
15391TIP3    H267665   2.487   3.657   2.723  0.3417  0.0085  1.2019
15392TIP3   OH267666   6.389   4.413   0.573  0.5948 -0.2543 -0.1705
15392TIP3    H167667   6.441   4.345   0.615  2.1121  0.8853 -0.1214
15392TIP3    H267668   6.382   4.385   0.481  1.4741 -0.3319 -0.2194
15393TIP3   OH267669   4.706   3.498   2.632  0.4864 -0.1123  0.3103
15393TIP3    H167670   4.790   3.524   2.670  1.3976 -1.4807 -0.6512
15393TIP3    H267671   4.641   3.522   2.697  1.4007  2.7400  0.2900
15394TIP3   OH267672   6.677   3.323   6.152 -0.0048  0.1278 -0.3773
15394TIP3    H167673   6.732   3.309   6.075  0.1545 -0.3900 -0.1727
15394TIP3    H267674   6.625   3.242   6.159  0.0948  0.1081  0.1494
15395TIP3   OH267675   1.298   0.407   3.366  0.1182 -0.2686  0.6492
15395TIP3    H167676   1.235   0.470   3.401  0.9129  0.8257  0.1705
15395TIP3    H267677   1.279   0.405   3.272  1.0844  0.4463  0.4224
15396TIP3   OH267678   3.711   5.752   1.103  0.0044  0.2980 -0.3678
15396TIP3    H167679   3.771   5.800   1.045  0.5391 -1.2407 -1.1573
15396TIP3    H267680   3.650   5.710   1.043 -0.1229 -0.4314  0.2663
15397TIP3   OH267681   4.063   2.019   1.130 -0.2115  0.1259 -0.3352
15397TIP3    H167682   4.074   2.102   1.176  1.2217 -1.0405  1.5727
15397TIP3    H267683   3.968   2.004   1.132 -0.7122  2.3921 -2.1417
15398TIP3   OH267684   4.036   3.976  10.652 -0.3059  0.9754 -0.1862
15398TIP3    H167685   3.945   3.990  10.680  0.5692  1.5840  2.6862
15398TIP3    H267686   4.051   4.044  10.586 -1.0801  2.9345  1.5386
15399TIP3   OH267687   3.412   0.949   5.655 -0.4256  0.1269  0.5352
15399TIP3    H167688   3.479   0.951   5.724 -0.3185 -0.5331  0.4534
15399TIP3    H267689   3.414   1.037   5.618  0.0727  0.2542  0.8493
15400TIP3   OH267690   4.702   3.116  14.783  0.3325 -0.0806 -0.1212
15400TIP3    H167691   4.635   3.113  14.715 -2.6139  4.1250  2.1048
15400TIP3    H267692   4.772   3.170  14.745 -0.9722  1.6544 -0.2148
15401TIP3   OH267693   5.373   3.742  16.546  0.2543 -0.2040  0.9707
15401TIP3    H167694   5.428   3.664  16.555  0.4769  0.0366  1.7566
15401TIP3    H267695   5.303   3.731  16.611 -0.3713 -0.2902  0.2929
15402TIP3   OH267696   1.453   0.344   1.589 -0.3094 -0.1249  0.4105
15402TIP3    H167697   1.479   0.405   1.520 -1.7374  1.5394  1.2567
15402TIP3    H267698   1.525   0.281   1.594  0.3358  0.3705 -1.8035
15403TIP3   OH267699   0.786   0.062  11.470 -0.2693 -0.4944 -0.6292
15403TIP3    H167700   0.844  -0.004  11.433 -3.0134 -2.7786 -1.2028
15403TIP3    H267701   0.731   0.090  11.396 -0.8627  0.4929  0.1590
15404TIP3   OH267702   4.702   1.929  10.909  0.2526 -0.6698 -0.3416
15404TIP3    H167703   4.669   1.893  10.992  0.2051  0.0537 -0.0356
15404TIP3    H267704   4.797   1.927  10.918  0.2467  0.9518  0.4393
15405TIP3   OH267705   0.377   5.907   5.204  0.4882  0.1002 -0.2520
15405TIP3    H167706   0.385   5.972   5.134  2.1768  2.2975  1.8039
15405TIP3    H267707   0.289   5.919   5.239  0.8629  1.5013  0.2542
15406TIP3   OH267708   0.578   0.675  11.483  0.1563 -0.1377  0.3383
15406TIP3    H167709   0.636   0.619  11.431  0.7021  0.9726 -0.2943
15406TIP3    H267710   0.490   0.645  11.462  0.3292  0.5528 -1.6129
15407TIP3   OH267711   0.487   6.522  13.637 -0.7106  0.4419 -0.1390
15407TIP3    H167712   0.430   6.458  13.680 -1.8476 -0.7822 -3.1809
15407TIP3    H267713   0.428   6.571  13.580  0.7727  1.5764 -0.7332
15408TIP3   OH267714   0.120   0.035   0.394  1.1941 -0.1860 -0.2513
15408TIP3    H167715   0.108   0.117   0.348  2.5118 -0.3331 -0.9144
15408TIP3    H267716   0.199  -0.003   0.356  1.1628 -1.2982  0.7105
15409TIP3   OH267717   4.056   5.154  12.262 -0.0679  0.3244 -0.1553
15409TIP3    H167718   4.149   5.158  12.242 -0.0361  0.9521  0.0926
15409TIP3    H267719   4.017   5.223  12.208 -0.6228 -0.9295 -1.4337
15410TIP3   OH267720   0.894   2.601   3.499 -0.4040 -0.4189 -0.0363
15410TIP3    H167721   0.972   2.656   3.512  0.0872 -1.1418  0.1763
15410TIP3    H267722   0.840   2.649   3.437  0.2941  0.0211 -0.3118
15411TIP3   OH267723   2.825   2.777  15.499 -0.5563 -0.0395  0.5370
15411TIP3    H167724   2.746   2.828  15.517 -0.5670  0.7485 -1.4386
15411TIP3    H267725   2.795   2.706  15.443  0.0385 -0.0625  0.2455
15412TIP3   OH267726   0.048   5.433   2.111  0.5649 -0.4470 -0.4265
15412TIP3    H167727   0.104   5.356   2.104  0.4298 -0.4905 -1.1340
15412TIP3    H267728   0.094   5.492   2.170  1.4624 -0.3942 -1.1600
15413TIP3   OH267729   6.137   6.685   4.240 -0.5113  0.4137  0.0988
15413TIP3    H167730   6.068   6.749   4.257  0.3425  0.9580  1.6992
15413TIP3    H267731   6.218   6.728   4.267  0.4344 -0.3822 -1.2843
15414TIP3   OH267732   2.275   4.087   3.456  0.2259 -0.7231 -0.3788
15414TIP3    H167733   2.235   4.053   3.537 -0.7969  1.0379 -0.1022
15414TIP3    H267734   2.361   4.046   3.453  0.7676  0.0442  2.2313
15415TIP3   OH267735   4.776   4.663  12.408  0.2693  0.2870  0.0027
15415TIP3    H167736   4.698   4.612  12.387  1.5069 -1.8843  0.2936
15415TIP3    H267737   4.819   4.677  12.324 -0.5167  1.6924 -0.1864
15416TIP3   OH267738   5.045   1.690   0.410  0.4886 -0.2355  0.2061
15416TIP3    H167739   5.072   1.781   0.419  0.6425 -0.3435  0.8455
15416TIP3    H267740   4.950   1.691   0.421  0.3824 -0.0517 -0.6036
15417TIP3   OH267741   4.724   3.711   3.888 -0.0764  0.4248 -0.6168
15417TIP3    H167742   4.677   3.792   3.903 -0.7193  0.0445 -0.5438
15417TIP3    H267743   4.697   3.683   3.800 -0.1440  0.1067 -0.4979
15418TIP3   OH267744   2.857   3.247  11.463  0.1835  0.1797  0.7121
15418TIP3    H167745   2.766   3.268  11.440 -0.1429  0.3191  2.0528
15418TIP3    H267746   2.879   3.308  11.533  1.2771  0.0619  0.4879
15419TIP3   OH267747   6.234   5.951  15.165 -0.2133 -0.1514 -0.1844
15419TIP3    H167748   6.193   5.917  15.245 -0.2827  0.4867  0.0525
15419TIP3    H267749   6.161   5.962  15.104 -0.3929  0.8671  0.1969
15420TIP3   OH267750   2.451   1.221   2.801 -0.3991  0.7967 -0.3883
15420TIP3    H167751   2.505   1.234   2.723 -0.4955  0.2174 -0.5565
15420TIP3    H267752   2.371   1.270   2.783 -0.3443  0.8202 -0.5721
15421TIP3   OH267753   2.549   2.260  11.186  0.1730  0.1395  0.5989
15421TIP3    H167754   2.556   2.167  11.166  1.5571 -0.0748  1.9092
15421TIP3    H267755   2.626   2.279  11.239 -0.3190  1.9366  0.7283
15422TIP3   OH267756   5.487   6.580   2.451 -0.1409 -0.3917  0.0226
15422TIP3    H167757   5.439   6.499   2.473 -1.1147  0.2999  0.5253
15422TIP3    H267758   5.495   6.577   2.356  2.6418 -2.6039  0.1689
15423TIP3   OH267759   3.388   2.410   0.696 -0.4327  0.1173  0.0677
15423TIP3    H167760   3.352   2.375   0.777 -0.2182 -0.2463  0.0093
15423TIP3    H267761   3.317   2.462   0.659 -0.6759 -0.0606  0.2779
15424TIP3   OH267762   0.267   0.439  11.731  0.1890  0.0304  0.6117
15424TIP3    H167763   0.337   0.420  11.794  0.4793 -0.0332  0.2671
15424TIP3    H267764   0.291   0.524  11.694 -0.2888  0.3447  1.0073
15425TIP3   OH267765   6.046   1.401  16.772  0.0840  0.3005 -0.1468
15425TIP3    H167766   6.034   1.495  16.769  2.3960  0.6446 -0.6616
15425TIP3    H267767   6.044   1.378  16.865  3.0825  1.4746  0.3129
15426TIP3   OH267768   3.868   2.296  14.428 -0.1186 -0.1107  0.7806
15426TIP3    H167769   3.869   2.350  14.349 -1.1567  0.2988  1.0257
15426TIP3    H267770   3.798   2.334  14.482  1.2884  0.3209  2.3944
15427TIP3   OH267771   3.628   1.182   0.385 -0.1222  0.0213 -0.0790
15427TIP3    H167772   3.652   1.243   0.455 -1.4565 -0.3033  0.6985
15427TIP3    H267773   3.546   1.142   0.415  0.0989 -1.2810 -1.1190
15428TIP3   OH267774   6.032   1.509   0.711  0.5426 -0.4548  0.1083
15428TIP3    H167775   6.072   1.545   0.791 -0.6694 -2.1950  1.5608
15428TIP3    H267776   6.017   1.417   0.731  1.4840 -1.3059 -2.6894
15429TIP3   OH267777   4.114   1.140  10.936 -0.6361  0.0664  0.9317
15429TIP3    H167778   4.100   1.180  10.850 -1.0746  0.0132  0.9763
15429TIP3    H267779   4.026   1.116  10.966 -0.6159  1.2087  1.9438
15430TIP3   OH267780   2.628   3.129   3.494 -0.4171  0.0772 -0.0637
15430TIP3    H167781   2.688   3.069   3.537 -1.0912 -0.1331  0.5922
15430TIP3    H267782   2.638   3.212   3.542 -0.2320  0.2045 -0.3198
15431TIP3   OH267783   5.582   0.096   2.606 -0.5453  0.0504  0.0097
15431TIP3    H167784   5.505   0.123   2.656 -1.0927 -2.8436  0.8915
15431TIP3    H267785   5.550   0.086   2.516 -0.6077  1.0302 -0.0904
15432TIP3   OH267786   2.018   4.344   4.704 -0.6293  0.1263  1.0235
15432TIP3    H167787   2.013   4.261   4.657 -0.7181  0.8071 -0.1996
15432TIP3    H267788   1.929   4.379   4.701 -0.3756  0.7536  0.6022
15433TIP3   OH267789   6.596   3.303   3.180 -0.2486 -0.6753  0.3175
15433TIP3    H167790   6.574   3.396   3.183 -1.5402 -0.9710  0.8692
15433TIP3    H267791   6.692   3.301   3.185 -0.0491  0.6805 -1.8247
15434TIP3   OH267792   2.309   1.821   2.165 -0.1581  0.3229  0.8754
15434TIP3    H167793   2.216   1.798   2.157 -0.2553  1.0919 -0.4878
15434TIP3    H267794   2.312   1.886   2.235 -0.6157  0.1069  1.0970
15435TIP3   OH267795   2.311   6.318  14.525 -0.3391  0.0286 -0.0954
15435TIP3    H167796   2.216   6.306  14.515 -0.2369  0.2897 -1.7290
15435TIP3    H267797   2.347   6.294  14.439  0.9683  1.0840  0.1278
15436TIP3   OH267798   4.081   2.161  11.526  0.3489 -0.1660  0.0446
15436TIP3    H167799   4.080   2.238  11.582  0.5086 -1.2495  1.6018
15436TIP3    H267800   4.142   2.183  11.456 -1.0284  1.8065 -0.6142
15437TIP3   OH267801   5.280   5.614   2.457 -0.0149 -0.1355 -0.3136
15437TIP3    H167802   5.375   5.605   2.452  0.3548  1.2598  2.4204
15437TIP3    H267803   5.259   5.683   2.394  1.0944  1.0876  0.6276
15438TIP3   OH267804   5.192   6.677   2.542  0.6526  0.1524 -0.4196
15438TIP3    H167805   5.239   6.758   2.563  0.1021  0.3400  0.1169
15438TIP3    H267806   5.153   6.650   2.625  2.0518 -1.4822 -0.2082
15439TIP3   OH267807   1.225   3.419   6.791  0.3056 -0.2739  0.4634
15439TIP3    H167808   1.300   3.364   6.816  0.9427 -0.2674 -1.2918
15439TIP3    H267809   1.148   3.364   6.808  0.8822 -1.3853 -0.3750
15440TIP3   OH267810   3.443   5.056   2.337  0.4339  0.0626  0.1262
15440TIP3    H167811   3.390   5.004   2.397 -0.3228  1.1820  0.4550
15440TIP3    H267812   3.387   5.069   2.260  1.0308 -0.5264 -0.4269
15441TIP3   OH267813   1.742   1.627  15.809  0.4896  0.0863  0.0846
15441TIP3    H167814   1.711   1.693  15.870 -0.1772 -0.1242 -0.0137
15441TIP3    H267815   1.699   1.546  15.838  1.0010 -0.2315 -0.0213
15442TIP3   OH267816   4.411   5.845   2.519 -0.0596 -0.0070 -0.4545
15442TIP3    H167817   4.424   5.816   2.429 -2.7127  0.8118 -1.2110
15442TIP3    H267818   4.343   5.786   2.554  0.3863  0.1649  0.7621
15443TIP3   OH267819   6.585   2.724  15.817  0.0446 -1.0526 -0.0167
15443TIP3    H167820   6.531   2.800  15.796 -1.3537 -1.7111  1.0922
15443TIP3    H267821   6.566   2.661  15.747 -0.3095 -1.1353  0.1557
15444TIP3   OH267822   5.130   4.978  12.704  0.8745  0.7592 -0.3081
15444TIP3    H167823   5.218   4.946  12.724  0.9999  1.8913  1.1197
15444TIP3    H267824   5.141   5.032  12.626  1.3768  0.6566 -0.3109
15445TIP3   OH267825   5.473   0.891  13.788 -0.7676 -0.3203 -0.6236
15445TIP3    H167826   5.500   0.859  13.701  1.2690  1.3434 -0.6570
15445TIP3    H267827   5.489   0.985  13.785 -1.8020 -0.0524  1.1882
15446TIP3   OH267828   3.030   0.301  12.387 -0.2479  0.2952  0.0841
15446TIP3    H167829   2.936   0.286  12.381 -0.4982  1.8956 -0.2811
15446TIP3    H267830   3.062   0.292  12.297 -0.2690  1.0840 -0.0043
15447TIP3   OH267831   2.193   2.197   1.471  0.1433  0.5879 -0.4224
15447TIP3    H167832   2.237   2.130   1.524  0.1585 -0.1963 -1.3917
15447TIP3    H267833   2.103   2.166   1.465  0.0713  0.8321 -0.6055
15448TIP3   OH267834   6.288   6.442   2.767 -0.4436 -0.1977  0.2039
15448TIP3    H167835   6.267   6.367   2.712  0.7339  1.6629 -3.1133
15448TIP3    H267836   6.204   6.483   2.786 -0.9826 -1.6397  0.9851
15449TIP3   OH267837   6.687   5.501   2.859 -0.0967  0.3050 -0.0166
15449TIP3    H167838   6.612   5.482   2.915 -1.4575 -0.3932 -1.9430
15449TIP3    H267839   6.684   5.596   2.846 -0.4567  0.3226  0.1825
15450TIP3   OH267840   4.600   6.688  12.174  0.3946 -0.5015 -0.4182
15450TIP3    H167841   4.593   6.614  12.234  3.0315 -0.6715 -0.2335
15450TIP3    H267842   4.682   6.674  12.128  0.3614  1.6989 -1.2481
15451TIP3   OH267843   3.935   6.735  13.882  0.1548 -0.1703 -0.0763
15451TIP3    H167844   3.864   6.685  13.842 -0.0550  1.0808 -1.3621
15451TIP3    H267845   4.010   6.675  13.880  0.0890 -0.2747 -2.2046
15452TIP3   OH267846   1.547   4.846   4.368  0.1852  1.0392 -0.0228
15452TIP3    H167847   1.530   4.894   4.449  1.9435  0.6318  0.6313
15452TIP3    H267848   1.631   4.880   4.337 -1.0733  2.1586 -2.4524
15453TIP3   OH267849   3.641   4.841   5.599 -0.9966  0.1860  0.4853
15453TIP3    H167850   3.600   4.823   5.514  1.8859  0.9532 -1.1901
15453TIP3    H267851   3.658   4.754   5.636 -0.3468 -0.2287 -0.7429
15454TIP3   OH267852   2.786   2.092  16.896  0.0428  0.0064  0.8956
15454TIP3    H167853   2.880   2.111  16.889 -0.3321  1.3111 -2.4726
15454TIP3    H267854   2.781   1.998  16.911  2.0061 -0.8143 -2.4890
15455TIP3   OH267855   1.233   4.040  13.070  0.4518  0.1224  0.1359
15455TIP3    H167856   1.293   3.979  13.113  0.3824 -0.2585 -0.2993
15455TIP3    H267857   1.210   4.103  13.139  2.4436  1.1298 -0.0587
15456TIP3   OH267858   2.946   2.840   4.093  0.2296  0.4064 -0.1569
15456TIP3    H167859   2.865   2.819   4.046  0.0872 -0.5956  0.5017
15456TIP3    H267860   2.923   2.914   4.148 -0.4639 -0.3270  0.5653
15457TIP3   OH267861   3.005   0.840  11.796 -0.1676  0.0276 -0.2958
15457TIP3    H167862   2.991   0.804  11.709  2.1556 -2.0994  0.0883
15457TIP3    H267863   3.097   0.819  11.816 -0.8566 -0.3659  2.9974
15458TIP3   OH267864   3.662   6.028  12.171 -0.2059 -0.2002  0.0674
15458TIP3    H167865   3.616   5.987  12.245  2.1542 -2.2013  0.5699
15458TIP3    H267866   3.652   6.122  12.186 -1.0907 -0.5481  2.0834
15459TIP3   OH267867   4.754   5.198  13.620  0.1546 -0.3480  0.0171
15459TIP3    H167868   4.771   5.120  13.673 -1.6110 -1.0341 -0.3547
15459TIP3    H267869   4.693   5.168  13.553  0.9942  0.9139 -1.3681
15460TIP3   OH267870   5.019   3.907   1.712  0.0362  0.1112  0.0087
15460TIP3    H167871   4.974   3.966   1.651  0.0969 -0.3981 -0.5426
15460TIP3    H267872   5.089   3.960   1.750  0.3062  0.3029 -0.7373
15461TIP3   OH267873   0.608   1.789  14.326 -0.1214 -0.3062 -0.4558
15461TIP3    H167874   0.647   1.738  14.397 -0.2271  0.7156  0.3653
15461TIP3    H267875   0.549   1.850  14.370 -2.7032 -1.7444 -1.6139
15462TIP3   OH267876   4.660   5.381   4.192  0.2925  0.0575 -0.5391
15462TIP3    H167877   4.595   5.352   4.127  0.4936 -0.7415 -0.3976
15462TIP3    H267878   4.634   5.336   4.272  0.4075  0.5642 -0.2131
15463TIP3   OH267879   5.312   1.928   1.240  0.1101  0.7307  0.1869
15463TIP3    H167880   5.274   1.894   1.159 -0.8433 -1.1829  1.3621
15463TIP3    H267881   5.290   2.021   1.240 -0.7255  0.5501 -1.2769
15464TIP3   OH267882   4.865   5.389   5.484  0.2884 -0.0054 -0.0148
15464TIP3    H167883   4.858   5.482   5.462  0.3041  0.6258  2.3888
15464TIP3    H267884   4.813   5.379   5.564 -0.2977 -2.2414 -0.6033
15465TIP3   OH267885   1.929   5.401  15.699  0.2006  0.5200 -0.0507
15465TIP3    H167886   1.962   5.477  15.749 -2.8736  1.9818  0.0158
15465TIP3    H267887   1.934   5.429  15.608 -0.1197  0.4964 -0.0792
15466TIP3   OH267888   4.721   2.950  13.362 -0.1773  0.3752 -0.7010
15466TIP3    H167889   4.667   2.888  13.413  1.4088 -2.0415 -1.7806
15466TIP3    H267890   4.681   3.035  13.379 -1.3892 -0.6498  2.3629
15467TIP3   OH267891   1.171   2.131  12.725  0.3259  0.5020  0.1230
15467TIP3    H167892   1.209   2.043  12.717 -0.1174  0.3165  0.0262
15467TIP3    H267893   1.241   2.184  12.764  0.4011 -0.0303  0.7303
15468TIP3   OH267894   3.679   6.348  13.785  0.1199 -0.8944 -0.0156
15468TIP3    H167895   3.635   6.306  13.711  1.4105 -0.6368 -0.9544
15468TIP3    H267896   3.767   6.311  13.784  0.4482 -0.1544  0.8055
15469TIP3   OH267897   1.578   1.972  11.003  0.5420 -0.5080  0.5200
15469TIP3    H167898   1.605   1.937  10.918  0.3139 -0.7714  0.5528
15469TIP3    H267899   1.655   2.017  11.037  0.5403 -0.1437  0.0393
15470TIP3   OH267900   0.902   4.313   1.334 -0.1102  0.9065 -0.2052
15470TIP3    H167901   0.893   4.228   1.291 -2.0661 -0.4303  2.5405
15470TIP3    H267902   0.984   4.307   1.382  0.0746  0.8387 -0.5232
15471TIP3   OH267903   1.131   5.101  14.436  0.5604 -0.2166 -0.1867
15471TIP3    H167904   1.207   5.064  14.392  1.4454  1.2102  0.0808
15471TIP3    H267905   1.067   5.115  14.366  0.5396 -1.3399 -0.4251
15472TIP3   OH267906   6.149   1.032   0.654  0.0613  0.0950  0.3513
15472TIP3    H167907   6.093   0.960   0.682 -1.4035  0.8254 -0.5687
15472TIP3    H267908   6.160   1.017   0.560 -2.1396  2.2273 -0.3340
15473TIP3   OH267909   4.875   0.438  13.928 -0.0750 -0.5869 -0.3588
15473TIP3    H167910   4.885   0.462  14.020 -1.2776 -1.6009  0.0561
15473TIP3    H267911   4.869   0.522  13.882  1.3224 -0.0514  0.3581
15474TIP3   OH267912   1.450   5.351   3.887 -0.4124 -0.0983  0.2999
15474TIP3    H167913   1.412   5.428   3.845  0.6452 -0.2639 -1.0246
15474TIP3    H267914   1.459   5.286   3.817  0.9816 -0.5453  0.8460
15475TIP3   OH267915   2.063   5.324  15.974  0.5351  0.3251  0.2862
15475TIP3    H167916   2.124   5.252  15.989  0.5437 -0.0131 -1.2518
15475TIP3    H267917   2.116   5.391  15.931  0.6704  1.5310  2.2138
15476TIP3   OH267918   5.558   1.782  12.453 -0.4124  0.6292 -0.1196
15476TIP3    H167919   5.491   1.804  12.519  0.2728  2.3426  0.0460
15476TIP3    H267920   5.512   1.787  12.370 -0.8801  0.1390  0.1034
15477TIP3   OH267921   2.014   5.886   1.159  0.3971  0.0382  0.6647
15477TIP3    H167922   2.060   5.967   1.182 -0.0174  0.4455  0.0906
15477TIP3    H267923   2.006   5.889   1.064 -0.0246 -0.4569  0.6809
15478TIP3   OH267924   2.623   5.579   1.420 -0.0885  0.5509 -0.0895
15478TIP3    H167925   2.631   5.671   1.395  1.0113  0.4691 -0.0880
15478TIP3    H267926   2.691   5.534   1.369  1.4487  0.2046  2.1009
15479TIP3   OH267927   4.975   2.743   4.159  0.3793 -0.3760  0.1327
15479TIP3    H167928   5.059   2.790   4.162 -0.0566  0.5639 -1.1152
15479TIP3    H267929   4.968   2.700   4.244  0.8103  1.8795  1.4125
15480TIP3   OH267930   0.545   2.008  13.584 -0.3238 -0.1765 -0.5533
15480TIP3    H167931   0.575   1.973  13.500  1.7946  1.6697 -0.6531
15480TIP3    H267932   0.480   2.074  13.561 -1.6785 -1.4690 -0.5525
15481TIP3   OH267933   1.295   1.736   2.364  0.4619  0.1470  0.1511
15481TIP3    H167934   1.232   1.735   2.436 -0.7897 -0.0003 -0.9142
15481TIP3    H267935   1.322   1.644   2.355  1.0407  0.2452  0.7596
15482TIP3   OH267936   5.485   4.924  16.384  0.3138  0.2382 -0.5286
15482TIP3    H167937   5.480   4.927  16.480  1.5545  1.0350 -0.4617
15482TIP3    H267938   5.513   4.834  16.365 -0.7346 -0.1664 -0.2011
15483TIP3   OH267939   4.878   3.840  11.080 -0.7200  0.4007 -0.3715
15483TIP3    H167940   4.836   3.758  11.054 -1.2592  0.3213  0.6645
15483TIP3    H267941   4.873   3.840  11.176 -0.3650  1.4557 -0.3368
15484TIP3   OH267942   4.742   6.547  16.064 -0.0229 -0.1731 -0.6465
15484TIP3    H167943   4.709   6.566  16.152 -0.8144  2.9682 -1.4917
15484TIP3    H267944   4.697   6.466  16.039 -2.0623  0.4455  0.7493
15485TIP3   OH267945   4.911   6.209  17.026 -0.1725 -0.1435 -0.0384
15485TIP3    H167946   4.870   6.282  17.073  0.4203 -0.0829  0.3969
15485TIP3    H267947   4.879   6.131  17.071  0.1597 -0.0979  0.2804
15486TIP3   OH267948   6.071   4.210   0.318 -0.2099 -0.2476 -0.4746
15486TIP3    H167949   6.112   4.125   0.336  1.7274  0.6536 -0.3494
15486TIP3    H267950   6.083   4.222   0.224  2.2264  1.1196 -0.0795
15487TIP3   OH267951   3.249   1.775   0.725 -0.2457 -0.0996 -0.1536
15487TIP3    H167952   3.196   1.725   0.787  0.0565  0.6633  0.7650
15487TIP3    H267953   3.277   1.712   0.660 -1.1559 -0.7883  0.1062
15488TIP3   OH267954   4.305   5.417   4.204 -0.2387  0.0768  0.4824
15488TIP3    H167955   4.283   5.399   4.112  0.0232 -0.6281  0.5519
15488TIP3    H267956   4.310   5.513   4.209  0.9861  0.0899 -0.5376
15489TIP3   OH267957   4.598   4.788  12.070 -0.7210  0.2794  0.1279
15489TIP3    H167958   4.554   4.732  12.134 -1.5820  0.3862 -0.3567
15489TIP3    H267959   4.535   4.797  11.998 -0.2461  1.1342 -0.2011
15490TIP3   OH267960   0.966   2.970   3.884  0.1250  0.2407 -0.1510
15490TIP3    H167961   1.055   3.005   3.875 -0.1342  1.1993  0.8770
15490TIP3    H267962   0.909   3.043   3.861 -0.4095  0.1128  0.7467
15491TIP3   OH267963   1.829   6.274  15.942  0.3344  0.2170  0.1498
15491TIP3    H167964   1.830   6.364  15.974  1.2739  0.3428 -0.2123
15491TIP3    H267965   1.828   6.220  16.021 -0.5590  0.5321  0.3701
15492TIP3   OH267966   1.400   5.114   6.755  0.5097  0.1987 -0.4254
15492TIP3    H167967   1.333   5.067   6.805  3.0694 -2.5533  0.7087
15492TIP3    H267968   1.388   5.206   6.779 -1.6307 -0.4181  1.1656
15493TIP3   OH267969   5.559   0.531  11.388  0.2261  0.3548  0.1897
15493TIP3    H167970   5.608   0.468  11.336 -1.0254 -0.3658 -0.1459
15493TIP3    H267971   5.626   0.589  11.424  1.3666 -0.9130  0.1909
15494TIP3   OH267972   0.852   4.050   4.264  0.1874  0.2076  0.5604
15494TIP3    H167973   0.902   3.979   4.304  0.2057 -0.1035 -0.0048
15494TIP3    H267974   0.831   4.109   4.337  0.6007 -0.1201  0.9474
15495TIP3   OH267975   0.364   2.861   4.958 -0.0831 -0.6057 -0.0640
15495TIP3    H167976   0.437   2.902   5.003 -0.9901  1.2642 -0.2253
15495TIP3    H267977   0.382   2.767   4.964  0.8802 -0.3285  2.3410
15496TIP3   OH267978   3.696   3.965  10.528  0.5702  0.2976 -0.1753
15496TIP3    H167979   3.647   3.893  10.569  0.2553 -0.6581 -2.1200
15496TIP3    H267980   3.645   4.043  10.549 -0.2653 -0.3173  0.1675
15497TIP3   OH267981   1.239   4.611  13.923 -0.2733 -0.2942  0.8462
15497TIP3    H167982   1.152   4.646  13.906  0.2155  0.6344  0.1669
15497TIP3    H267983   1.240   4.526  13.879 -0.2185  0.5196 -0.7761
15498TIP3   OH267984   3.725   0.733  16.033  0.0851 -0.1137  0.9817
15498TIP3    H167985   3.655   0.768  16.087  1.2175 -0.4223  2.7161
15498TIP3    H267986   3.802   0.786  16.055  0.8950 -1.1423  0.7352
15499TIP3   OH267987   3.104   1.569   6.090  0.4125  0.4696 -0.0387
15499TIP3    H167988   3.026   1.532   6.048  0.9166  0.0562 -0.6302
15499TIP3    H267989   3.175   1.551   6.029  1.4883 -1.6532  1.6906
15500TIP3   OH267990   1.084   4.190   3.939 -0.0384 -0.4451  0.0791
15500TIP3    H167991   1.029   4.112   3.948  0.2936 -0.6769  0.1163
15500TIP3    H267992   1.121   4.184   3.851 -1.0729  0.3733 -0.4298
15501TIP3   OH267993   0.983   0.011   4.321 -0.1982 -0.4730 -0.1431
15501TIP3    H167994   1.066  -0.036   4.310  0.3859  0.7347 -1.3034
15501TIP3    H267995   0.965   0.047   4.234 -1.8145 -0.4804  0.1624
15502TIP3   OH267996   1.503   5.327  16.344 -0.4712 -0.0746  0.1117
15502TIP3    H167997   1.576   5.290  16.394 -2.0494 -0.0814  2.6368
15502TIP3    H267998   1.481   5.259  16.280  0.9106 -0.5987  0.1513
15503TIP3   OH267999   1.771   5.704  15.547  0.3496 -0.0307  0.6258
15503TIP3    H168000   1.728   5.790  15.549  1.3617  0.4900  1.3368
15503TIP3    H268001   1.855   5.719  15.592 -0.2013 -1.8160  2.3916
15504TIP3   OH268002   3.815   3.618   2.395  0.0709  0.2580  0.1438
15504TIP3    H168003   3.759   3.572   2.456  3.8186 -1.4164  2.7234
15504TIP3    H268004   3.811   3.567   2.314 -1.3521 -0.3234  0.5658
15505TIP3   OH268005   3.749   1.681  12.629 -0.4876  0.0708  0.3439
15505TIP3    H168006   3.668   1.632  12.637 -1.1546  0.8716 -1.1298
15505TIP3    H268007   3.818   1.615  12.636 -1.3630 -1.2251 -2.0478
15506TIP3   OH268008   5.255   0.943   2.911  0.4780  0.8772 -0.3116
15506TIP3    H168009   5.262   1.011   2.978  0.7093 -1.5317  2.3016
15506TIP3    H268010   5.345   0.919   2.892  0.3915 -0.3843  0.7225
15507TIP3   OH268011   4.839   1.386   4.828 -0.2442  0.4778  0.4103
15507TIP3    H168012   4.845   1.320   4.759  2.0105 -0.7951  1.7289
15507TIP3    H268013   4.752   1.372   4.867 -0.2238 -1.0038 -0.0286
15508TIP3   OH268014   1.538   6.624   4.442 -0.8754 -0.2453 -0.0596
15508TIP3    H168015   1.590   6.592   4.516 -2.2564 -0.3464  0.9105
15508TIP3    H268016   1.602   6.665   4.384  0.1280  1.0209  1.8049
15509TIP3   OH268017   4.839   3.525   1.388  0.2559  0.4695 -0.1285
15509TIP3    H168018   4.814   3.580   1.462 -1.6452 -0.5774  0.0820
15509TIP3    H268019   4.756   3.506   1.344  1.2020  0.0814 -1.8343
15510TIP3   OH268020   1.846   5.531  11.584  0.4223 -0.4736  0.7820
15510TIP3    H168021   1.780   5.600  11.592  0.6689 -0.2092  0.5329
15510TIP3    H268022   1.795   5.450  11.586 -0.0205 -0.2542 -0.3686
15511TIP3   OH268023   6.828   2.739   2.689 -0.2436  0.0202 -0.3593
15511TIP3    H168024   6.848   2.772   2.776  1.3383  1.1272 -1.0889
15511TIP3    H268025   6.778   2.659   2.704 -4.5966  2.7720  1.5081
15512TIP3   OH268026   4.965   4.309   3.673 -0.0737 -0.4057  0.3595
15512TIP3    H168027   4.991   4.401   3.683 -1.0059  0.0422 -1.0010
15512TIP3    H268028   4.966   4.274   3.762  0.5866  0.8410  0.8689
15513TIP3   OH268029   4.540   3.980  16.099 -0.0660 -0.1767 -0.5839
15513TIP3    H168030   4.620   4.023  16.068 -0.6997 -0.2886 -2.5174
15513TIP3    H268031   4.541   3.894  16.057 -0.4953 -0.7498  0.5392
15514TIP3   OH268032   6.123   5.605  16.512  0.3468  0.2746  0.0876
15514TIP3    H168033   6.138   5.602  16.418  0.7102 -0.1282  0.1547
15514TIP3    H268034   6.128   5.698  16.534 -1.2891  0.5385 -0.5309
15515TIP3   OH268035   3.003   6.370  13.267 -0.1323 -0.5125 -0.3717
15515TIP3    H168036   2.918   6.329  13.251  1.1060 -2.2955 -3.3238
15515TIP3    H268037   2.985   6.464  13.263 -2.0316 -0.8383 -0.3529
15516TIP3   OH268038   3.193   2.844   2.864  0.3669 -0.3581  0.0347
15516TIP3    H168039   3.189   2.779   2.794 -0.2418 -0.6264  0.3142
15516TIP3    H268040   3.130   2.814   2.929  0.5942  0.1346  0.4933
15517TIP3   OH268041   3.820   2.870  15.619  0.0757  0.2015 -0.2346
15517TIP3    H168042   3.897   2.909  15.661  1.3191 -0.3773 -1.8984
15517TIP3    H268043   3.824   2.900  15.528 -0.7960 -1.0914 -0.7255
15518TIP3   OH268044   6.432   2.462   1.131  0.4760  0.2002 -0.1013
15518TIP3    H168045   6.519   2.485   1.163  0.1449  1.5675 -0.1271
15518TIP3    H268046   6.414   2.376   1.169  0.7675  1.0443  2.0721
15519TIP3   OH268047   5.423   6.552   5.287  0.1994  0.1265 -0.2158
15519TIP3    H168048   5.365   6.497   5.341 -0.6674 -0.1377 -1.3800
15519TIP3    H268049   5.505   6.503   5.281  0.2733  0.1137  0.7712
15520TIP3   OH268050   0.937   3.017  15.189  0.6198 -0.0192 -0.0663
15520TIP3    H168051   1.019   3.047  15.228  0.3229 -1.3568  1.6730
15520TIP3    H268052   0.963   2.982  15.104  1.7423  0.2223  0.1595
15521TIP3   OH268053   4.896   1.171  14.288  0.2409  0.6609  0.2628
15521TIP3    H168054   4.882   1.250  14.236 -0.2694 -0.7813 -1.9432
15521TIP3    H268055   4.815   1.121  14.277 -0.2359  0.6024  3.1978
15522TIP3   OH268056   4.203   2.509  13.934 -0.6581 -0.0801  0.2955
15522TIP3    H168057   4.120   2.496  13.888 -0.9057  1.2559  0.3053
15522TIP3    H268058   4.264   2.450  13.892 -1.4983 -0.7152 -0.0566
15523TIP3   OH268059   1.437   2.983   1.914  0.3008  0.1581 -0.3613
15523TIP3    H168060   1.510   2.923   1.900  0.3867  0.5495 -1.8076
15523TIP3    H268061   1.401   2.959   1.999  0.3830 -1.8763 -0.8541
15524TIP3   OH268062   4.382   2.033  17.052  0.1001 -0.1729  0.1397
15524TIP3    H168063   4.405   2.109  16.998  2.3598 -0.0399  1.2029
15524TIP3    H268064   4.446   2.032  17.122  0.7645 -3.5987 -0.3244
15525TIP3   OH268065   6.650   4.425  13.339  0.2221  0.1790 -0.7798
15525TIP3    H168066   6.642   4.411  13.433 -1.4197  0.2107 -0.8815
15525TIP3    H268067   6.612   4.347  13.300  1.1947  0.0192 -1.4368
15526TIP3   OH268068   4.339   5.308  10.494 -0.0184  0.5110  0.3690
15526TIP3    H168069   4.287   5.228  10.499  1.4333 -0.4559  0.3075
15526TIP3    H268070   4.409   5.296  10.558  1.8353  0.5095 -1.5580
15527TIP3   OH268071   1.281   4.212   1.967 -0.1396 -0.3569  0.4444
15527TIP3    H168072   1.314   4.157   2.038  1.9052  0.3416  0.1025
15527TIP3    H268073   1.273   4.299   2.007 -2.7398 -0.6761  0.8090
15528TIP3   OH268074   3.826   5.578  12.615 -0.4655 -0.0012  0.1605
15528TIP3    H168075   3.888   5.530  12.669  0.6971  0.5943 -0.6065
15528TIP3    H268076   3.793   5.514  12.553  0.6342  0.0196 -0.4786
15529TIP3   OH268077   4.814   2.474   1.427 -0.1361  0.1442 -0.2933
15529TIP3    H168078   4.854   2.557   1.400  1.8829 -0.8881 -0.6823
15529TIP3    H268079   4.785   2.433   1.345  3.7657 -1.8698 -0.9167
15530TIP3   OH268080   0.574   2.999   2.371 -0.3663  0.0070  0.3013
15530TIP3    H168081   0.543   2.925   2.320  0.8799 -0.0954 -0.3533
15530TIP3    H268082   0.575   2.968   2.461  1.0826 -1.1346 -0.0681
15531TIP3   OH268083   1.080   6.350  13.898  0.0964  0.3085 -0.3954
15531TIP3    H168084   1.015   6.356  13.968 -0.5061 -0.8331 -0.8229
15531TIP3    H268085   1.158   6.316  13.941 -0.3272 -0.5612 -0.2899
15532TIP3   OH268086   3.179   2.585   4.006 -0.3902  0.0907  0.0125
15532TIP3    H168087   3.233   2.511   4.036 -0.2626  0.0192 -0.3918
15532TIP3    H268088   3.113   2.595   4.074 -0.4187 -0.4103  0.0617
15533TIP3   OH268089   4.314   6.248   3.947  0.1823 -0.2351 -0.3150
15533TIP3    H168090   4.251   6.306   3.904 -1.4097 -0.7718  1.1928
15533TIP3    H268091   4.382   6.307   3.981 -0.4396  0.5418 -0.4009
15534TIP3   OH268092   2.439   0.138  15.813 -0.1766  0.2431 -0.2623
15534TIP3    H168093   2.375   0.067  15.804 -0.1592  0.2082 -0.1236
15534TIP3    H268094   2.519   0.103  15.774 -0.1829  0.2055 -0.2423
15535TIP3   OH268095   6.821   3.509  12.570 -0.1057  0.0381 -0.0883
15535TIP3    H168096   6.872   3.428  12.578  0.3281  0.2595 -0.5182
15535TIP3    H268097   6.762   3.494  12.496 -0.3713 -0.0650  0.1437
15536TIP3   OH268098   0.081   3.054  12.039 -0.1442  0.2659  0.5508
15536TIP3    H168099   0.171   3.041  12.068  0.7771  1.0572 -1.7549
15536TIP3    H268100   0.088   3.108  11.961 -2.5859 -0.2462 -0.1117
15537TIP3   OH268101   2.986   4.633  12.061  0.2882  0.0075  0.5360
15537TIP3    H168102   3.036   4.703  12.021 -0.1322 -1.2590 -2.5181
15537TIP3    H268103   3.051   4.566  12.083  0.2456 -0.9262 -1.8585
15538TIP3   OH268104   5.776   2.619   5.452 -0.3568  0.3303 -0.1133
15538TIP3    H168105   5.743   2.556   5.517  0.6881  0.0022  0.1246
15538TIP3    H268106   5.803   2.695   5.504 -3.8541  2.0860 -0.5811
15539TIP3   OH268107   3.954   2.479  15.400  0.2323  0.9808 -0.0515
15539TIP3    H168108   3.952   2.509  15.491 -0.7259  2.4621 -0.5303
15539TIP3    H268109   3.925   2.388  15.404  0.9251  0.7927  1.1976
15540TIP3   OH268110   5.438   3.841   2.858 -0.0588 -0.1625  0.2206
15540TIP3    H168111   5.443   3.792   2.940 -0.5373  0.1610  0.4472
15540TIP3    H268112   5.484   3.923   2.876  0.1548 -0.2398  0.0462
15541TIP3   OH268113   3.158   4.624   5.644 -0.3306  0.5163 -0.2805
15541TIP3    H168114   3.230   4.564   5.661 -1.4791 -1.5063 -2.0848
15541TIP3    H268115   3.097   4.610   5.716 -1.2985 -1.7576 -1.4316
15542TIP3   OH268116   4.282   6.687   5.553  0.2599  0.2235 -0.1903
15542TIP3    H168117   4.202   6.739   5.552  0.3156  0.4431 -3.7324
15542TIP3    H268118   4.352   6.749   5.531  0.8985 -0.6029 -0.5605
15543TIP3   OH268119   4.730   5.993   2.724 -0.2009  0.5378  0.0515
15543TIP3    H168120   4.787   5.920   2.703  0.5519  1.5376 -1.5589
15543TIP3    H268121   4.684   5.966   2.804  0.7738 -1.2530  0.0430
15544TIP3   OH268122   3.062   3.888   5.062 -0.0007  0.0272  0.4912
15544TIP3    H168123   3.034   3.840   5.140  1.3052 -0.1682  0.8617
15544TIP3    H268124   2.981   3.910   5.017 -0.6554 -2.5579  0.2792
15545TIP3   OH268125   5.254   3.104   5.833 -0.3301  0.1361  0.4944
15545TIP3    H168126   5.339   3.147   5.831 -0.7157  0.9818  1.0347
15545TIP3    H268127   5.204   3.154   5.899 -1.6721  0.5079 -0.7454
15546TIP3   OH268128   3.275   5.742  11.984 -0.1802 -0.4836  0.2271
15546TIP3    H168129   3.182   5.728  11.964 -0.7894  1.4190  1.4312
15546TIP3    H268130   3.280   5.738  12.079  0.8253  0.1559  0.2141
15547TIP3   OH268131   3.644   2.587  14.726  0.0333 -0.0318 -0.1961
15547TIP3    H168132   3.606   2.574  14.813 -1.2898  1.5110 -0.5066
15547TIP3    H268133   3.731   2.624  14.743 -0.0490 -0.1297  0.4683
15548TIP3   OH268134   2.867   5.376   4.634  0.6359  0.0944  0.2820
15548TIP3    H168135   2.838   5.463   4.660 -1.5403 -0.5144  0.0615
15548TIP3    H268136   2.928   5.349   4.703  2.2692  2.1919 -0.2294
15549TIP3   OH268137   1.855   4.177  16.559 -0.0168  0.4308  0.0243
15549TIP3    H168138   1.830   4.085  16.568 -0.3681  0.5555  0.3414
15549TIP3    H268139   1.828   4.201  16.470 -1.7388  0.7693  0.5938
15550TIP3   OH268140   2.035   2.436  14.880  0.4263 -0.8720  0.4320
15550TIP3    H168141   1.973   2.477  14.820 -1.4361 -1.1861  2.0115
15550TIP3    H268142   2.037   2.344  14.854  0.4005 -0.8144  0.2299
15551TIP3   OH268143   1.346   3.158   1.256 -0.9407  0.4868 -0.3160
15551TIP3    H168144   1.369   3.249   1.270  1.4685 -0.1947  0.5964
15551TIP3    H268145   1.269   3.161   1.199 -0.6193  3.0532 -0.7125
15552TIP3   OH268146   0.857   6.507   2.907  0.2507 -0.0443  0.6306
15552TIP3    H168147   0.867   6.422   2.863  0.1506 -0.7806  1.9807
15552TIP3    H268148   0.940   6.552   2.890 -0.3578  0.3775 -1.6241
15553TIP3   OH268149   1.561   1.557  16.218 -0.2487  0.5178 -0.3520
15553TIP3    H168150   1.500   1.552  16.145 -1.4220  0.7056  0.5820
15553TIP3    H268151   1.644   1.585  16.178 -0.3274 -1.2159 -1.8626
15554TIP3   OH268152   5.521   4.934   0.672 -0.3558 -0.5790  0.3205
15554TIP3    H168153   5.509   4.885   0.591  0.1790  0.6933 -0.5641
15554TIP3    H268154   5.491   4.875   0.741 -0.3007 -1.9011 -0.7505
15555TIP3   OH268155   0.667   1.962   3.473 -0.1580 -0.1685 -0.1759
15555TIP3    H168156   0.648   2.022   3.400 -1.5173 -0.3624 -0.0073
15555TIP3    H268157   0.754   1.988   3.504 -0.4800  1.3245 -0.4800
15556TIP3   OH268158   1.650   1.629  11.599  0.7440  0.5626  0.2367
15556TIP3    H168159   1.614   1.686  11.531  1.2308 -0.2362 -0.7181
15556TIP3    H268160   1.690   1.688  11.662  2.3394  1.2563 -1.3608
15557TIP3   OH268161   2.938   0.848   4.145  0.2628  0.1718  0.2494
15557TIP3    H168162   2.845   0.829   4.157  0.5949 -1.0121  1.1463
15557TIP3    H268163   2.944   0.889   4.059 -1.2703  1.6106  0.7890
15558TIP3   OH268164   6.692   4.608  14.265  0.4878  0.8275  0.3668
15558TIP3    H168165   6.777   4.595  14.223  0.1352 -0.6725  0.0616
15558TIP3    H268166   6.640   4.656  14.201  0.3052 -0.4896 -0.5088
15559TIP3   OH268167   2.417   1.670   4.726  0.2655 -0.1564  0.3277
15559TIP3    H168168   2.363   1.616   4.784 -3.4477  0.1988 -2.4073
15559TIP3    H268169   2.493   1.616   4.706 -2.1682 -3.6233 -0.5373
15560TIP3   OH268170   3.148   0.343   3.542 -0.4270 -0.0717 -0.0629
15560TIP3    H168171   3.197   0.424   3.548 -0.8435  0.0756  2.1154
15560TIP3    H268172   3.088   0.356   3.468  0.2438  1.1714 -0.4043
15561TIP3   OH268173   6.289   1.882  17.136  0.7223 -0.2954  0.6609
15561TIP3    H168174   6.242   1.879  17.219  1.1381 -1.1711  0.8778
15561TIP3    H268175   6.377   1.850  17.157  0.6711 -1.0639 -0.2067
15562TIP3   OH268176   5.289   0.764   3.312 -0.5539 -0.0613 -0.3907
15562TIP3    H168177   5.248   0.849   3.328  0.7610  0.2775  1.7301
15562TIP3    H268178   5.317   0.767   3.221 -1.6196  1.2960 -0.7010
15563TIP3   OH268179   1.865   5.100   3.735  0.0291 -0.1113 -0.1894
15563TIP3    H168180   1.779   5.080   3.699  0.0496 -1.3371  0.4068
15563TIP3    H268181   1.873   5.195   3.727 -0.3712 -0.2302 -2.4498
15564TIP3   OH268182   4.883   5.394   3.567  0.3723 -0.2938 -0.0610
15564TIP3    H168183   4.847   5.452   3.500 -2.7746 -0.0465  1.6261
15564TIP3    H268184   4.924   5.323   3.518  3.0519  2.4585 -2.1693
15565TIP3   OH268185   1.441   3.494  16.729  0.2263  0.1066  0.0458
15565TIP3    H168186   1.495   3.568  16.758  1.0387  0.2647 -1.7344
15565TIP3    H268187   1.503   3.422  16.716 -0.5941 -1.0375  2.0530
15566TIP3   OH268188   4.465   5.943  15.052  0.1046  1.0422 -0.1874
15566TIP3    H168189   4.417   6.025  15.059 -0.0706  0.8394  1.2075
15566TIP3    H268190   4.407   5.878  15.090 -0.2944  0.0025 -2.3936
15567TIP3   OH268191   3.023   1.665  11.485  0.8069 -0.3293  0.0567
15567TIP3    H168192   3.002   1.618  11.405 -1.8440  2.6851 -1.2304
15567TIP3    H268193   3.118   1.680  11.480  1.1678 -2.5634 -1.0260
15568TIP3   OH268194   3.496   2.085  16.491 -0.5681 -0.2405  0.1915
15568TIP3    H168195   3.569   2.087  16.553 -0.1580 -1.1826 -0.2266
15568TIP3    H268196   3.450   2.004  16.512 -0.7941 -0.2470 -0.3262
15569TIP3   OH268197   5.871   1.005  16.945 -0.5227  0.2608  0.0164
15569TIP3    H168198   5.781   0.986  16.969 -0.2273 -0.4176  0.6177
15569TIP3    H268199   5.924   0.950  17.003  0.2753  0.6001 -0.3706
15570TIP3   OH268200   0.512   5.445   0.380  0.2112  0.5258 -0.1896
15570TIP3    H168201   0.477   5.498   0.453 -0.9465  1.1877 -1.1882
15570TIP3    H268202   0.517   5.356   0.416 -2.4321  0.4075  0.0884
15571TIP3   OH268203   1.327   5.534   3.427 -0.0641 -0.3032 -0.2305
15571TIP3    H168204   1.320   5.441   3.406  1.2281 -0.6166  0.6467
15571TIP3    H268205   1.407   5.563   3.383  0.2217  0.0890  0.5335
15572TIP3   OH268206   0.937   3.837  16.018  0.2217 -0.3533 -0.5749
15572TIP3    H168207   0.903   3.840  16.108  0.3243  3.7329 -0.4966
15572TIP3    H268208   1.018   3.785  16.025 -0.0609 -0.5951  1.5727
15573TIP3   OH268209   3.282   1.544   1.760  0.8005  0.2284 -0.0359
15573TIP3    H168210   3.188   1.556   1.745  0.4810 -2.2930 -0.5124
15573TIP3    H268211   3.287   1.506   1.848  1.6135  2.3908  0.9264
15574TIP3   OH268212   4.716   2.778  11.377  0.2069 -0.1732  0.0926
15574TIP3    H168213   4.803   2.792  11.416 -0.0524  2.2272 -0.0132
15574TIP3    H268214   4.670   2.861  11.392 -1.0409 -0.3110 -2.4444
15575TIP3   OH268215   2.669   0.673   3.646  0.3253 -0.3621  0.5736
15575TIP3    H168216   2.637   0.583   3.638 -0.5140 -0.0012 -0.2388
15575TIP3    H268217   2.675   0.704   3.556  1.3847  0.1388  0.8059
15576TIP3   OH268218   6.140   6.401  13.671 -0.1047  0.7075 -0.0522
15576TIP3    H168219   6.115   6.486  13.707 -0.1858  1.3355 -1.5241
15576TIP3    H268220   6.187   6.357  13.742  0.9344  2.4342  0.3872
15577TIP3   OH268221   5.982   6.309  11.027 -0.0184 -0.0214  0.1412
15577TIP3    H168222   6.042   6.360  10.972  1.8702 -2.0129  0.2035
15577TIP3    H268223   5.917   6.275  10.966  1.4400 -1.3353 -0.7659
15578TIP3   OH268224   3.079   1.131  16.207  0.1917  0.0967  0.1177
15578TIP3    H168225   3.020   1.103  16.277  0.0653 -1.4440 -0.5850
15578TIP3    H268226   3.167   1.127  16.247 -0.0276  1.0082  0.7272
15579TIP3   OH268227   3.989   3.220  16.610  0.2707  0.1912 -0.3417
15579TIP3    H168228   4.039   3.152  16.655 -0.1387  0.2098  0.1498
15579TIP3    H268229   3.902   3.217  16.651  0.1249  0.7243 -0.6085
15580TIP3   OH268230   1.647   2.797   2.462 -0.5313 -0.0111  0.0569
15580TIP3    H168231   1.679   2.774   2.375  0.0060 -0.7719  0.4424
15580TIP3    H268232   1.717   2.768   2.521 -1.2794 -0.3171  0.8045
15581TIP3   OH268233   2.983   1.606   5.528 -0.2781  0.4587  0.5105
15581TIP3    H168234   3.041   1.564   5.464 -1.0680  0.5372 -0.2805
15581TIP3    H268235   2.907   1.547   5.532 -0.1038  0.2927  1.6217
15582TIP3   OH268236   3.634   4.140  12.174 -0.0337  0.5788  0.2614
15582TIP3    H168237   3.646   4.080  12.248  0.4062 -0.2352 -0.4578
15582TIP3    H268238   3.700   4.208  12.186 -0.2585  0.6991  0.8507
15583TIP3   OH268239   0.393   5.111  12.520  0.2342 -0.4065 -0.0806
15583TIP3    H168240   0.455   5.172  12.560 -0.2125 -0.4526  0.6942
15583TIP3    H268241   0.385   5.040  12.583 -1.2978  0.0332  0.2583
15584TIP3   OH268242   4.551   0.735   2.215 -0.0856  0.1265  0.3644
15584TIP3    H168243   4.538   0.830   2.221 -0.0407  0.1518  0.0705
15584TIP3    H268244   4.468   0.698   2.243 -0.0863  0.2536  0.5300
15585TIP3   OH268245   6.020   2.186   5.726 -0.7899  0.4561  0.2434
15585TIP3    H168246   6.001   2.117   5.663 -1.6725  1.7519 -0.9982
15585TIP3    H268247   6.053   2.141   5.803  0.3943 -1.2235 -1.1511
15586TIP3   OH268248   3.285   3.720   1.759 -0.1765  0.0091 -0.0038
15586TIP3    H168249   3.353   3.696   1.695 -1.0143 -0.7282 -0.6549
15586TIP3    H268250   3.255   3.806   1.731 -1.3986 -0.8197 -1.4114
15587TIP3   OH268251   4.818   2.655  12.337 -0.2900  0.0290 -0.2839
15587TIP3    H168252   4.762   2.595  12.288 -1.4766  1.0724 -0.2610
15587TIP3    H268253   4.860   2.709  12.269 -0.5846  0.3117 -0.2491
15588TIP3   OH268254   4.636   2.958   1.225  0.0668  0.1861  0.5009
15588TIP3    H168255   4.720   2.929   1.189 -0.2165  0.0808 -0.0824
15588TIP3    H268256   4.649   3.051   1.242  0.0225  0.3772 -0.4381
15589TIP3   OH268257   4.288   6.580  14.605  0.8367  0.2887 -0.4840
15589TIP3    H168258   4.262   6.500  14.651  0.4019  0.7684  0.1173
15589TIP3    H268259   4.337   6.630  14.670  3.4467 -0.6198 -1.5918
15590TIP3   OH268260   3.396   2.002   0.854  0.1672  0.0797 -0.8176
15590TIP3    H168261   3.360   1.922   0.892 -0.1291  0.1300 -0.9893
15590TIP3    H268262   3.468   1.972   0.799  0.0700 -0.0694 -0.8654
15591TIP3   OH268263   3.498   5.259  15.367  0.5428 -0.5414  0.2106
15591TIP3    H168264   3.407   5.231  15.376  0.3967 -0.3580 -0.6597
15591TIP3    H268265   3.548   5.177  15.366  0.4169 -0.6363  0.9004
15592TIP3   OH268266   4.120   6.763  14.437 -0.4779  0.4001  0.1075
15592TIP3    H168267   4.039   6.811  14.421 -0.6895 -0.0832 -0.3206
15592TIP3    H268268   4.097   6.699  14.504 -0.7661 -0.4758 -0.7901
15593TIP3   OH268269   2.702   4.248  12.986 -0.2086 -0.2800 -0.2586
15593TIP3    H168270   2.791   4.253  13.020  0.1064 -0.4258 -1.0394
15593TIP3    H268271   2.695   4.160  12.949  0.0969  0.4584 -2.2151
15594TIP3   OH268272   4.149   0.133  10.420 -0.5193  0.1017 -0.3628
15594TIP3    H168273   4.196   0.213  10.397  0.3687  0.3374  2.0408
15594TIP3    H268274   4.057   0.155  10.407 -0.3248  1.6919  0.6621
15595TIP3   OH268275   3.110   4.989   3.691  0.4750 -0.7695  0.1146
15595TIP3    H168276   3.110   5.015   3.784 -0.2172  0.4582 -0.2007
15595TIP3    H268277   3.100   4.894   3.693 -2.2903 -0.5662  1.2939
15596TIP3   OH268278   0.926   4.274   6.034  0.3361  0.0384 -0.3765
15596TIP3    H168279   0.898   4.307   6.120 -1.6742 -1.7641 -0.2329
15596TIP3    H268280   0.935   4.179   6.047  0.2900 -0.2225 -2.0573
15597TIP3   OH268281   0.886   5.342  14.704 -0.3465  0.2985  0.2027
15597TIP3    H168282   0.950   5.403  14.740 -1.1682  1.1076  0.3294
15597TIP3    H268283   0.853   5.293  14.780 -2.2973  2.2102  0.6885
15598TIP3   OH268284   0.723   1.483  12.011  0.2792 -0.1488  0.2068
15598TIP3    H168285   0.628   1.481  11.997 -0.3544  0.8651  3.5736
15598TIP3    H268286   0.747   1.574  11.993  0.2515  0.0414  1.0822
15599TIP3   OH268287   5.695   0.186   0.387  0.1056  0.0508 -0.6741
15599TIP3    H168288   5.645   0.104   0.390 -1.7646  1.1524 -0.4686
15599TIP3    H268289   5.657   0.235   0.314  0.4286  1.2096 -0.0906
15600TIP3   OH268290   3.383   3.790   2.270 -0.2511  0.3809  0.1702
15600TIP3    H168291   3.467   3.756   2.300 -0.1310  1.7586  1.5523
15600TIP3    H268292   3.375   3.876   2.313 -1.8834  0.7434 -0.7605
15601TIP3   OH268293   3.537   1.860  16.060 -0.1025 -0.2853 -0.6647
15601TIP3    H168294   3.615   1.914  16.072 -0.7345 -0.0003  3.7206
15601TIP3    H268295   3.568   1.770  16.063  0.1890 -0.1642  0.1658
15602TIP3   OH268296   1.456   3.075   5.519 -0.0538  0.0041 -0.2642
15602TIP3    H168297   1.495   2.995   5.482  1.3641  0.9794 -0.9559
15602TIP3    H268298   1.514   3.145   5.490  0.1494  1.0450  2.3920
15603TIP3   OH268299   3.009   3.406   4.946  0.1932  0.2946 -0.8446
15603TIP3    H168300   2.964   3.488   4.927  1.5686  1.5039  0.7729
15603TIP3    H268301   3.072   3.396   4.875 -0.2804  0.3768 -1.2847
15604TIP3   OH268302   2.575   4.005  11.004 -0.0156  0.0797  0.0470
15604TIP3    H168303   2.557   4.099  11.008 -1.1955 -0.0779 -0.8657
15604TIP3    H268304   2.568   3.984  10.911  0.2585 -0.9060  0.2410
15605TIP3   OH268305   0.876   2.079   2.428 -0.2396  0.1442 -0.2030
15605TIP3    H168306   0.795   2.094   2.476  0.5977  2.4808  0.5852
15605TIP3    H268307   0.864   2.125   2.345  0.8360  1.9558  0.5842
15606TIP3   OH268308   1.792   1.591  11.153  0.0147  1.1491 -0.2162
15606TIP3    H168309   1.885   1.587  11.179 -0.2872  1.7770  1.0289
15606TIP3    H268310   1.750   1.642  11.222 -1.1342  1.5450 -1.1713
15607TIP3   OH268311   2.385   1.326  13.015  0.0430  0.6583  0.3659
15607TIP3    H168312   2.301   1.293  12.984 -0.3710 -0.2303  2.2814
15607TIP3    H268313   2.432   1.249  13.046  0.4333  1.4335  1.8227
15608TIP3   OH268314   4.019   0.968  15.832  0.8846 -0.4625 -0.0738
15608TIP3    H168315   4.040   1.027  15.760  0.2027 -0.3787 -0.2038
15608TIP3    H268316   4.096   0.973  15.889  0.9288  0.3891 -0.1911
15609TIP3   OH268317   1.290   5.311   4.141  0.3859  0.1448  0.6984
15609TIP3    H168318   1.353   5.297   4.070  0.9443  0.5036  1.1104
15609TIP3    H268319   1.334   5.279   4.219  0.3409  1.0238  1.1025
15610TIP3   OH268320   1.730   3.130  13.639 -0.7323 -0.3168  0.0706
15610TIP3    H168321   1.763   3.217  13.616 -0.5965 -0.4079 -0.0737
15610TIP3    H268322   1.654   3.148  13.695 -1.6036 -0.0734 -1.1368
15611TIP3   OH268323   5.805   4.962   3.764 -0.0693  0.2301  0.1005
15611TIP3    H168324   5.898   4.975   3.748 -0.1375  2.2347  1.0439
15611TIP3    H268325   5.801   4.923   3.852 -0.1427  0.3535  0.1514
15612TIP3   OH268326   0.098   6.287  15.122 -0.4314 -0.0231 -0.3032
15612TIP3    H168327   0.131   6.287  15.212 -0.6236 -0.5659 -0.2286
15612TIP3    H268328   0.143   6.360  15.080 -1.1712  0.9425  0.5416
15613TIP3   OH268329   1.832   4.514  14.745  0.1719  0.8971  0.3763
15613TIP3    H168330   1.885   4.554  14.676 -0.3221  0.5401 -0.2292
15613TIP3    H268331   1.773   4.454  14.698 -0.4192  0.9124  1.0768
15614TIP3   OH268332   3.042   5.629  12.886  0.0851  0.2892 -0.4087
15614TIP3    H168333   2.970   5.588  12.839 -0.2240  1.8011 -1.3235
15614TIP3    H268334   3.000   5.691  12.946  0.4510 -1.7386  2.1369
15615TIP3   OH268335   5.832   0.456  14.077 -0.4225  0.3884  0.1375
15615TIP3    H168336   5.919   0.466  14.115 -0.4817 -0.5714  0.5513
15615TIP3    H268337   5.832   0.516  14.002  1.4295 -1.2553 -1.3003
15616TIP3   OH268338   4.832   5.477  13.602  0.0384  0.4038 -0.4419
15616TIP3    H168339   4.818   5.382  13.595 -0.0795  0.4168 -0.3857
15616TIP3    H268340   4.869   5.489  13.690 -1.0773  0.5363  0.0310
15617TIP3   OH268341   4.212   0.937   4.281  0.1284 -0.7950 -0.0132
15617TIP3    H168342   4.158   0.912   4.356  0.7809 -0.7212  0.4953
15617TIP3    H268343   4.206   0.863   4.221 -2.2457  0.0601 -0.9631
15618TIP3   OH268344   1.460   1.151  15.008 -0.2564 -0.4603  0.8351
15618TIP3    H168345   1.373   1.112  15.001 -0.4082  0.1415 -1.5618
15618TIP3    H268346   1.513   1.084  15.051 -1.3550 -1.8357  0.1365
15619TIP3   OH268347   3.554   4.565   2.854 -0.1942 -0.1818 -0.2280
15619TIP3    H168348   3.502   4.645   2.847 -0.4778 -0.4125 -0.7971
15619TIP3    H268349   3.515   4.506   2.791  0.1042 -0.7264  0.0947
15620TIP3   OH268350   2.058   2.829   1.745 -0.0503  0.3352 -0.2660
15620TIP3    H168351   1.984   2.847   1.686 -0.9617  2.6040  1.4150
15620TIP3    H268352   2.128   2.798   1.687 -1.7803 -0.2694 -2.1362
15621TIP3   OH268353   3.696   0.167   0.786  0.4372  0.5351 -0.3971
15621TIP3    H168354   3.680   0.230   0.856  0.9922  0.0842  0.1433
15621TIP3    H268355   3.746   0.217   0.721 -0.5945  1.1262 -0.7789
15622TIP3   OH268356   1.306   1.965   2.738 -0.2020 -0.7038 -0.3248
15622TIP3    H168357   1.291   1.988   2.830  1.1717 -0.2008 -0.2107
15622TIP3    H268358   1.227   1.993   2.693  0.2241  1.6292  0.2659
15623TIP3   OH268359   0.634   1.610  12.976  0.3688 -0.1571  0.5573
15623TIP3    H168360   0.625   1.704  12.962 -0.8854 -0.4000 -0.3866
15623TIP3    H268361   0.551   1.583  13.016  1.1389 -0.6982  1.8492
15624TIP3   OH268362   6.479   2.833  12.168 -0.2427  0.1660  0.0383
15624TIP3    H168363   6.573   2.813  12.164  0.0061  1.3097 -0.4205
15624TIP3    H268364   6.462   2.881  12.087 -1.4013 -0.6786 -0.2355
15625TIP3   OH268365   0.950   5.763   2.060 -0.6401 -0.4194  0.7198
15625TIP3    H168366   1.000   5.740   2.138  1.0308 -0.5758 -0.3476
15625TIP3    H268367   0.879   5.818   2.092  0.3781  0.0406  2.2647
15626TIP3   OH268368   3.352   0.474  16.718  0.1258 -0.6170  0.0685
15626TIP3    H168369   3.400   0.429  16.788 -1.2261 -2.5896 -0.1821
15626TIP3    H268370   3.392   0.442  16.637 -0.9206 -1.5179 -0.1165
15627TIP3   OH268371   1.589   5.976  11.813 -0.0471  0.7627 -0.0420
15627TIP3    H168372   1.497   6.002  11.814  0.3616  2.4078 -1.2011
15627TIP3    H268373   1.621   6.003  11.726  1.6325  0.6259  0.4924
15628TIP3   OH268374   2.582   0.445  16.349  0.1139 -0.2127  0.3194
15628TIP3    H168375   2.562   0.359  16.313 -2.8499  0.8515 -0.8915
15628TIP3    H268376   2.605   0.498  16.272  2.0696  0.1001  1.0609
15629TIP3   OH268377   6.318   3.287  16.973 -0.0120  0.1083 -0.0253
15629TIP3    H168378   6.307   3.380  16.954 -0.4163  0.1121  0.2065
15629TIP3    H268379   6.267   3.243  16.906  1.0763  0.0042 -0.8116
15630TIP3   OH268380   1.882   0.749  10.897 -0.3758 -0.1355 -0.2606
15630TIP3    H168381   1.955   0.741  10.836 -0.4634 -1.3156 -0.2350
15630TIP3    H268382   1.827   0.673  10.879 -0.3231 -0.6075  1.3642
15631TIP3   OH268383   5.112   2.967  10.952  0.1192 -0.5059 -0.1799
15631TIP3    H168384   5.157   2.960  11.036  1.1238 -0.6867 -0.7172
15631TIP3    H268385   5.172   2.928  10.889 -0.5701 -0.2735 -1.0035
15632TIP3   OH268386   1.573   4.113  15.925  0.0387  0.0285 -0.2260
15632TIP3    H168387   1.629   4.039  15.950 -0.1693 -0.9759 -2.4639
15632TIP3    H268388   1.608   4.141  15.840 -0.7460  1.6392 -0.0571
15633TIP3   OH268389   6.648   6.264  15.211  0.5910 -0.8822  0.1310
15633TIP3    H168390   6.677   6.218  15.133  0.1640  0.4239 -0.8382
15633TIP3    H268391   6.552   6.262  15.206  0.5345  1.3224 -0.7365
15634TIP3   OH268392   1.953   0.642   5.871  0.5247 -0.2443  0.7194
15634TIP3    H168393   1.965   0.616   5.963  0.7525 -0.5017  0.6197
15634TIP3    H268394   1.939   0.559   5.825  0.7502 -0.1426  0.4706
15635TIP3   OH268395   5.875   4.694  15.927 -0.6232 -0.0861  0.5730
15635TIP3    H168396   5.888   4.724  16.018  0.9136 -0.6893  0.5833
15635TIP3    H268397   5.959   4.654  15.903 -0.8555  0.4573 -1.2772
15636TIP3   OH268398   2.256   1.335   4.279 -0.1553  0.1023  0.0605
15636TIP3    H168399   2.174   1.339   4.328  0.2504  0.1332  0.7570
15636TIP3    H268400   2.233   1.365   4.191 -0.3316  3.1591  1.0136
15637TIP3   OH268401   4.967   6.850   4.473  0.4301 -0.4381  0.1597
15637TIP3    H168402   5.011   6.898   4.543 -2.5800  0.1403  1.8326
15637TIP3    H268403   4.924   6.918   4.420  0.7007 -1.0091 -0.8281
15638TIP3   OH268404   4.325   0.518  13.246  0.2329 -0.0346  0.1645
15638TIP3    H168405   4.354   0.521  13.155  1.9706 -1.0477  0.6385
15638TIP3    H268406   4.344   0.606  13.279 -1.6828  0.7835 -0.7643
15639TIP3   OH268407   5.140   5.816  14.183  0.0810  0.3265  0.5388
15639TIP3    H168408   5.154   5.905  14.216 -1.4912  0.7676  0.0706
15639TIP3    H268409   5.215   5.800  14.125  0.5635  1.2009  0.9087
15640TIP3   OH268410   0.461   3.253   0.355 -0.8353  0.4572 -0.1171
15640TIP3    H168411   0.440   3.249   0.448 -0.9643 -0.7293 -0.1818
15640TIP3    H268412   0.469   3.346   0.336  1.5048  0.6771  1.5974
15641TIP3   OH268413   6.239   3.053  12.485 -0.7431 -0.0848 -0.4363
15641TIP3    H168414   6.170   3.049  12.551 -1.4194 -0.9826 -1.1642
15641TIP3    H268415   6.298   2.981  12.507  0.5640  1.2990  0.7861
15642TIP3   OH268416   5.751   4.995   2.501  1.0440 -0.4226  0.5830
15642TIP3    H168417   5.733   4.935   2.429  0.5650  0.3726  0.0112
15642TIP3    H268418   5.664   5.027   2.528  1.3502  1.2923 -0.2867
15643TIP3   OH268419   4.668   2.325  10.459  0.0298 -0.6687 -0.4921
15643TIP3    H168420   4.604   2.255  10.442 -1.1589  0.6094 -1.5219
15643TIP3    H268421   4.753   2.283  10.446 -0.4943 -2.6771  1.8496
15644TIP3   OH268422   3.415   1.744   6.107  0.2245 -0.1507 -0.2160
15644TIP3    H168423   3.453   1.735   6.195  0.8626  0.4533 -0.4229
15644TIP3    H268424   3.325   1.774   6.123 -0.4446 -2.2438  0.3027
15645TIP3   OH268425   6.128   2.965   1.149 -0.0802  0.1198  0.2293
15645TIP3    H168426   6.215   2.981   1.113 -0.2986 -0.9539 -0.8420
15645TIP3    H268427   6.099   2.884   1.107  0.3273 -2.2286  3.9939
15646TIP3   OH268428   6.648   0.958  14.873  0.0973 -0.3626  0.1750
15646TIP3    H168429   6.742   0.976  14.869 -0.2326  1.4755 -2.0860
15646TIP3    H268430   6.608   1.044  14.887 -1.2543 -1.1123  1.0859
15647TIP3   OH268431   1.373   0.943   1.472 -0.1636 -0.0673 -0.5115
15647TIP3    H168432   1.383   0.981   1.385  1.3495 -1.2733 -0.9170
15647TIP3    H268433   1.367   1.018   1.531  0.9066  0.8007 -1.4652
15648TIP3   OH268434   6.310   3.756   6.588  0.4451  0.0193  0.4144
15648TIP3    H168435   6.219   3.766   6.615 -0.1623  2.8646 -2.0572
15648TIP3    H268436   6.311   3.678   6.533 -1.1724  1.3106 -1.5840
15649TIP3   OH268437   2.775   3.963   1.912 -0.5368 -0.0231  0.2416
15649TIP3    H168438   2.735   4.027   1.853 -1.9827  0.1157  1.3100
15649TIP3    H268439   2.712   3.890   1.914  0.8244 -1.2664 -0.5401
15650TIP3   OH268440   6.771   3.179  13.161  0.2389  0.3824  0.4935
15650TIP3    H168441   6.847   3.237  13.157 -0.6755  1.8290  2.6034
15650TIP3    H268442   6.753   3.158  13.069  3.2738 -0.2189 -0.0893
15651TIP3   OH268443   0.172   0.189   1.872  0.4575  0.4647  0.3908
15651TIP3    H168444   0.227   0.243   1.815 -0.4829  1.0450 -0.0038
15651TIP3    H268445   0.090   0.179   1.823  0.0164  0.0848  1.1912
15652TIP3   OH268446   1.868   1.971   2.569  0.0822  0.7187 -0.2280
15652TIP3    H168447   1.835   1.952   2.480 -1.4870 -1.8303  0.7692
15652TIP3    H268448   1.814   2.044   2.599 -0.0682  0.9403 -1.0064
15653TIP3   OH268449   0.651   0.687  12.700  0.6732 -0.0162  0.0495
15653TIP3    H168450   0.616   0.727  12.621  0.6487 -0.2563 -0.0632
15653TIP3    H268451   0.740   0.721  12.707  0.6584  0.0428 -0.0536
15654TIP3   OH268452   1.162   4.187   4.358  0.4024  0.0659 -0.1488
15654TIP3    H168453   1.188   4.103   4.395  0.1106  0.5755  1.2830
15654TIP3    H268454   1.077   4.205   4.398  1.8458  2.4993  2.1311
15655TIP3   OH268455   4.510   5.567  16.278 -0.7391 -0.0863 -0.1779
15655TIP3    H168456   4.421   5.595  16.256 -1.1556 -0.2520  1.1879
15655TIP3    H268457   4.548   5.540  16.195 -1.7099  0.6922 -0.8978
15656TIP3   OH268458   1.059   3.160  11.039 -0.2760  0.4096  0.5234
15656TIP3    H168459   1.124   3.156  10.968 -1.9587  0.9376 -1.1198
15656TIP3    H268460   1.106   3.127  11.115  0.7975 -3.2513 -1.4609
15657TIP3   OH268461   1.207   1.612  15.218  0.4595  0.0193 -0.0040
15657TIP3    H168462   1.210   1.539  15.279 -0.9887  0.3655  0.5074
15657TIP3    H268463   1.243   1.577  15.137 -0.2218 -1.2661  0.2302
15658TIP3   OH268464   5.073   2.410  16.382 -0.0834 -0.2144  0.2710
15658TIP3    H168465   5.078   2.501  16.355  1.3213 -0.1120  0.8050
15658TIP3    H268466   4.987   2.381  16.351  0.4782  0.5336 -2.2381
15659TIP3   OH268467   5.733   2.066   6.441  0.3351 -0.2405  0.3582
15659TIP3    H168468   5.686   2.027   6.515 -0.6751 -0.0700 -0.1827
15659TIP3    H268469   5.751   2.156   6.469  1.4482 -0.6497  1.0517
15660TIP3   OH268470   0.205   2.369   3.737  0.2378  0.0666  0.6705
15660TIP3    H168471   0.144   2.423   3.685 -0.8436 -0.0805  1.7474
15660TIP3    H268472   0.245   2.310   3.673  0.7203  1.4656 -0.3793
15661TIP3   OH268473   0.354   6.067   4.978 -0.6533  0.4090 -0.3582
15661TIP3    H168474   0.326   6.093   4.890 -1.5735  2.5509  0.5122
15661TIP3    H268475   0.449   6.072   4.975 -0.7159  1.5957 -0.9414
15662TIP3   OH268476   3.905   1.442   4.587 -0.7020  0.3931  0.6395
15662TIP3    H168477   3.981   1.394   4.555 -0.6169  0.7776  0.2554
15662TIP3    H268478   3.835   1.420   4.525 -0.5123  1.2126  0.1104
15663TIP3   OH268479   3.008   1.625   1.745  0.9141  0.1286 -0.0388
15663TIP3    H168480   3.005   1.631   1.650  0.0437 -0.6389 -0.0774
15663TIP3    H268481   2.920   1.652   1.773  0.9771 -0.2255  0.5107
15664TIP3   OH268482   6.036   0.751   2.299  0.4578 -0.0691  0.3267
15664TIP3    H168483   5.961   0.806   2.275  0.3388 -0.7789 -1.0202
15664TIP3    H268484   5.997   0.676   2.343  0.1707 -1.2098 -1.7438
15665TIP3   OH268485   1.740   6.408   6.026  0.2824  0.2235 -0.1332
15665TIP3    H168486   1.807   6.340   6.019 -0.2892 -0.2153 -1.9216
15665TIP3    H268487   1.738   6.430   6.119  2.2449 -0.4032  0.1123
15666TIP3   OH268488   5.762   1.171   6.008  0.7191 -0.3832 -0.2541
15666TIP3    H168489   5.721   1.158   5.922 -0.6933 -0.9343  0.4792
15666TIP3    H268490   5.767   1.083   6.045  1.5536 -0.1742  0.1426
15667TIP3   OH268491   2.967   3.187   0.715  0.2168 -0.1682  0.0573
15667TIP3    H168492   3.010   3.118   0.765  0.9026  1.6307  2.1360
15667TIP3    H268493   2.893   3.214   0.769 -0.7378 -0.0244 -1.2615
15668TIP3   OH268494   2.699   6.797   0.232 -0.2626  0.3140 -0.3005
15668TIP3    H168495   2.749   6.740   0.290 -1.5369  0.2709  0.7799
15668TIP3    H268496   2.766   6.844   0.182  0.9634  1.5156  2.2959
15669TIP3   OH268497   4.114   6.658  13.133  0.3754  0.1321  0.1902
15669TIP3    H168498   4.163   6.578  13.151 -0.3922 -0.4824 -0.3584
15669TIP3    H268499   4.028   6.644  13.173  1.3215  2.1933  3.3464
15670TIP3   OH268500   1.927   5.910  10.138  0.4449 -0.1531 -0.0395
15670TIP3    H168501   1.845   5.897  10.089 -0.3196  0.8183  0.9309
15670TIP3    H268502   1.898   5.934  10.226  1.7946 -0.5861  0.5329
15671TIP3   OH268503   5.547   0.787   4.745  0.1331  0.3335 -0.2807
15671TIP3    H168504   5.624   0.843   4.737  0.3153 -0.1362 -2.3726
15671TIP3    H268505   5.558   0.742   4.829 -0.1695  3.5343  1.6524
15672TIP3   OH268506   4.452   1.848  11.859  0.1969  0.6505 -0.5579
15672TIP3    H168507   4.509   1.924  11.850  1.2727 -0.0213  0.2752
15672TIP3    H268508   4.440   1.838  11.954  0.4745 -0.4864 -0.6243
15673TIP3   OH268509   2.946   0.200  14.739  0.5175 -0.0189  0.7545
15673TIP3    H168510   2.972   0.221  14.649  3.1683 -0.1131  1.4080
15673TIP3    H268511   2.871   0.256  14.756  0.5030  0.6408 -1.2250
15674TIP3   OH268512   3.025   5.509  14.609  0.2974 -0.1834  0.3484
15674TIP3    H168513   2.948   5.566  14.610 -1.3281 -2.2523  1.2606
15674TIP3    H268514   3.049   5.500  14.702  1.2273 -0.1042  0.1256
15675TIP3   OH268515   4.483   2.880  13.732 -0.4072 -0.2481 -0.0688
15675TIP3    H168516   4.458   2.926  13.652 -2.6248 -0.0255  0.6825
15675TIP3    H268517   4.490   2.788  13.706 -2.0927 -0.3188 -0.3605
15676TIP3   OH268518   6.476   4.879  11.234  0.8629  0.4638 -0.1983
15676TIP3    H168519   6.492   4.928  11.314  0.0182 -0.9801  0.9049
15676TIP3    H268520   6.415   4.809  11.260  0.9714 -0.3578 -1.9801
15677TIP3   OH268521   2.072   6.750   2.730 -0.5790  0.4011  0.3079
15677TIP3    H168522   1.998   6.702   2.694 -0.4076  1.0661 -0.9915
15677TIP3    H268523   2.034   6.832   2.761 -0.1687  1.5412 -2.0315
15678TIP3   OH268524   4.598   0.033   0.846 -0.0627  0.2587  0.3611
15678TIP3    H168525   4.614   0.114   0.796 -2.0023  0.4581  0.0009
15678TIP3    H268526   4.673   0.027   0.905  1.4358  0.9366 -1.3649
15679TIP3   OH268527   3.255   3.030   2.296 -1.0161 -0.5318  0.4781
15679TIP3    H168528   3.246   3.035   2.200 -0.6109 -0.3634  0.4485
15679TIP3    H268529   3.343   2.996   2.310 -1.1428 -0.7379  0.7922
15680TIP3   OH268530   2.022   5.397  16.293 -0.8239  0.0230  0.0259
15680TIP3    H168531   1.948   5.395  16.232 -0.9313  1.3429  0.0712
15680TIP3    H268532   2.055   5.487  16.287  0.4429 -0.3993  0.4136
15681TIP3   OH268533   0.657   1.319   3.576 -0.7165 -0.5127 -1.0084
15681TIP3    H168534   0.566   1.321   3.606  0.0725 -0.8201  1.6604
15681TIP3    H268535   0.663   1.237   3.526 -1.4317 -1.6500  0.6551
15682TIP3   OH268536   3.496   5.665   3.747 -0.1786 -0.4738  0.0308
15682TIP3    H168537   3.468   5.585   3.702 -0.4961 -0.3347 -0.0187
15682TIP3    H268538   3.438   5.733   3.713 -1.8199 -0.7247  2.1384
15683TIP3   OH268539   2.144   6.691  11.239  0.0350  0.1485 -0.4007
15683TIP3    H168540   2.191   6.688  11.155 -0.7325  0.2560 -0.8464
15683TIP3    H268541   2.166   6.777  11.275  1.5541 -0.4783  0.2232
15684TIP3   OH268542   4.800   0.731   2.359  0.1215 -0.3847  0.1335
15684TIP3    H168543   4.768   0.815   2.393 -0.1176  0.8157 -2.7547
15684TIP3    H268544   4.760   0.723   2.273  3.8606 -1.0126 -1.7887
15685TIP3   OH268545   6.643   5.757  14.837 -0.4442  0.5414  0.0384
15685TIP3    H168546   6.620   5.758  14.930 -0.8674  0.9113 -0.0696
15685TIP3    H268547   6.570   5.800  14.793 -0.6379 -0.3769 -0.5581
15686TIP3   OH268548   1.534   1.691  14.094 -0.9372 -0.6666  0.3517
15686TIP3    H168549   1.538   1.783  14.122 -0.0588 -0.9052  1.0452
15686TIP3    H268550   1.497   1.695  14.006  1.5417  0.6325 -0.7552
15687TIP3   OH268551   6.723   1.451  16.602  0.2760 -0.4440  0.0949
15687TIP3    H168552   6.748   1.516  16.537  1.2364 -1.2636 -0.3869
15687TIP3    H268553   6.724   1.498  16.685  0.6603  0.2291 -0.2813
15688TIP3   OH268554   3.071   6.292   3.299  0.0110  0.0346 -0.1208
15688TIP3    H168555   3.001   6.271   3.237 -0.6320  0.3437  0.4906
15688TIP3    H268556   3.027   6.306   3.383  0.7179  0.9387  0.1279
15689TIP3   OH268557   5.173   4.685   5.386  1.0134  0.5095 -0.1762
15689TIP3    H168558   5.245   4.623   5.395  2.0496  1.4127 -1.8717
15689TIP3    H268559   5.202   4.763   5.433  0.4455  0.3251  0.4942
15690TIP3   OH268560   1.565   5.511   0.753 -0.1984 -0.1716 -0.3217
15690TIP3    H168561   1.531   5.508   0.842 -0.5709  0.6525 -0.4305
15690TIP3    H268562   1.561   5.420   0.723  0.8006 -0.6053  0.8111
15691TIP3   OH268563   1.881   4.872  15.269 -0.3571  0.2032  0.2610
15691TIP3    H168564   1.935   4.933  15.219 -0.1372  0.1203  0.3949
15691TIP3    H268565   1.913   4.882  15.359 -0.4256  0.0014  0.3067
15692TIP3   OH268566   4.120   3.069   0.907  0.0369  0.6408 -0.2523
15692TIP3    H168567   4.193   3.053   0.966 -0.3694 -3.0134 -0.5176
15692TIP3    H268568   4.156   3.053   0.820 -0.6449  0.6502 -0.5419
15693TIP3   OH268569   4.955   0.566   0.506 -0.6695 -0.5626 -0.1131
15693TIP3    H168570   4.909   0.635   0.458  1.3388 -0.7190 -2.4286
15693TIP3    H268571   5.040   0.603   0.528 -0.3165 -1.6237  0.4085
15694TIP3   OH268572   4.712   5.316  11.808  0.0472 -0.5308 -0.4108
15694TIP3    H168573   4.636   5.372  11.795 -0.1059 -0.8083 -0.7429
15694TIP3    H268574   4.762   5.324  11.727  0.4223 -0.2747 -0.1550
15695TIP3   OH268575   5.438   5.273  12.266 -0.0878  0.2200  0.2737
15695TIP3    H168576   5.449   5.230  12.181  0.1982 -1.6523  1.2003
15695TIP3    H268577   5.404   5.204  12.324  0.7965  1.1236  1.9576
15696TIP3   OH268578   1.817   5.307   1.594 -0.2824  0.1347 -0.0765
15696TIP3    H168579   1.750   5.248   1.631 -0.3676  0.7972  0.8593
15696TIP3    H268580   1.900   5.266   1.619 -0.3352  0.8150  1.2929
15697TIP3   OH268581   1.214   1.672   0.965 -0.3701  0.1760 -0.2859
15697TIP3    H168582   1.227   1.644   1.056  0.4704  0.3639 -0.3481
15697TIP3    H268583   1.204   1.767   0.970  0.1934  0.2461 -0.4416
15698TIP3   OH268584   4.563   0.105  12.769 -0.2546 -0.3118 -0.1713
15698TIP3    H168585   4.637   0.079  12.825  0.0336  1.5062  0.3547
15698TIP3    H268586   4.529   0.022  12.735  1.5142 -1.2551  0.2140
15699TIP3   OH268587   4.046   6.516   1.914 -0.0892 -0.0375  0.0879
15699TIP3    H168588   3.972   6.575   1.902  1.4186  1.9411 -0.1695
15699TIP3    H268589   4.055   6.472   1.830 -1.6742 -1.2497  0.5053
15700TIP3   OH268590   3.826   4.171  10.719 -0.3835 -0.0031 -0.2517
15700TIP3    H168591   3.750   4.175  10.661 -0.4987  0.3269 -0.0746
15700TIP3    H268592   3.828   4.256  10.762 -1.6589 -1.0201  1.9642
15701TIP3   OH268593   4.658   2.297   3.032  0.5062  0.4060  0.2106
15701TIP3    H168594   4.634   2.298   3.125  0.4756 -1.1882  0.2528
15701TIP3    H268595   4.707   2.216   3.021  0.4184  0.5193 -1.1908
15702TIP3   OH268596   5.661   6.179  14.024 -0.5952  0.1272 -0.1319
15702TIP3    H168597   5.733   6.135  14.069 -1.1585 -0.6244  0.0506
15702TIP3    H268598   5.596   6.196  14.092 -0.5764  0.8627 -0.2816
15703TIP3   OH268599   6.087   6.121  15.729 -0.3526 -0.0849 -0.1114
15703TIP3    H168600   6.052   6.172  15.656  1.1067  1.2892  0.0952
15703TIP3    H268601   6.155   6.067  15.690 -1.2096 -1.1821 -0.1491
15704TIP3   OH268602   6.464   6.257  13.154 -0.1518 -0.2255 -0.1188
15704TIP3    H168603   6.499   6.216  13.075  0.1635 -0.2954  0.0581
15704TIP3    H268604   6.536   6.254  13.217  0.0978  1.1787 -0.3024
15705TIP3   OH268605   3.031   1.418  14.581 -0.1065  0.1348  0.0403
15705TIP3    H168606   3.057   1.370  14.503  1.1148  1.4531 -0.3999
15705TIP3    H268607   3.060   1.508  14.565 -2.2063  1.0387  0.8782
15706TIP3   OH268608   4.966   2.169  16.461  0.7220 -0.0704  0.1387
15706TIP3    H168609   4.955   2.084  16.419  0.0200  0.0487  0.0726
15706TIP3    H268610   5.041   2.209  16.417 -0.0876  0.1133 -1.1145
15707TIP3   OH268611   0.200   1.306  12.898  0.3311 -0.0212 -0.0312
15707TIP3    H168612   0.289   1.281  12.923  0.4297  0.2980 -0.0534
15707TIP3    H268613   0.159   1.225  12.869  0.0541 -0.5039  1.6316
15708TIP3   OH268614   6.826   0.813  12.669 -0.1506 -0.0402  0.1426
15708TIP3    H168615   6.907   0.856  12.696  0.5930  0.2406 -2.2933
15708TIP3    H268616   6.809   0.750  12.739  1.8572  0.2819  1.0145
15709TIP3   OH268617   1.777   5.901   3.013 -0.8239 -0.5263 -0.0279
15709TIP3    H168618   1.851   5.887   2.953 -0.2680 -1.3459  0.8129
15709TIP3    H268619   1.789   5.991   3.045 -1.0468 -0.1332 -1.0218
15710TIP3   OH268620   3.265   6.484   5.088  0.6671  0.1927 -0.4655
15710TIP3    H168621   3.339   6.514   5.035  0.6699 -3.0142 -2.6107
15710TIP3    H268622   3.191   6.487   5.027 -0.6740  1.6995  1.1360
15711TIP3   OH268623   2.438   2.455   2.382  0.0051  0.1306 -0.1029
15711TIP3    H168624   2.524   2.413   2.389  0.7086  1.7030  1.3517
15711TIP3    H268625   2.375   2.383   2.386  1.2244 -0.9911 -0.5030
15712TIP3   OH268626   3.125   0.267   3.175 -0.0748  0.6227  0.0559
15712TIP3    H168627   3.098   0.226   3.093  0.9200 -4.1752  1.8065
15712TIP3    H268628   3.218   0.288   3.162  0.6436 -1.9779  0.3983
15713TIP3   OH268629   0.452   2.753   0.156 -0.2621 -0.2510  0.0808
15713TIP3    H168630   0.370   2.789   0.191  0.3552  0.3331  0.9656
15713TIP3    H268631   0.517   2.775   0.222  1.2592  2.2253 -2.0482
15714TIP3   OH268632   1.201   3.761  13.695 -0.0716  0.1005  0.7396
15714TIP3    H168633   1.291   3.783  13.668  0.6141 -1.2315  1.8375
15714TIP3    H268634   1.192   3.800  13.782 -1.4090  2.2175 -0.2532
15715TIP3   OH268635   6.819   4.498  13.643 -0.2452 -0.1675 -0.0956
15715TIP3    H168636   6.753   4.558  13.608 -0.4312 -1.8937 -2.9839
15715TIP3    H268637   6.768   4.433  13.692 -0.6162 -0.7485 -1.2132
15716TIP3   OH268638   4.958   0.431   5.113  0.1424 -0.1222  0.5691
15716TIP3    H168639   4.890   0.384   5.161  0.2350 -0.9623 -0.1006
15716TIP3    H268640   4.910   0.492   5.057 -0.1635 -1.4948 -0.7402
15717TIP3   OH268641   6.102   1.232   5.390 -0.2162  0.2695  0.8058
15717TIP3    H168642   6.142   1.166   5.332 -2.8788 -0.8320  0.0842
15717TIP3    H268643   6.124   1.203   5.478 -0.9778 -1.3734  0.4814
15718TIP3   OH268644   5.721   4.727  12.281 -0.1438 -0.1966  0.3909
15718TIP3    H168645   5.797   4.670  12.292  0.5846  0.6718 -0.0387
15718TIP3    H268646   5.700   4.721  12.188 -1.3076 -1.2924  0.6990
15719TIP3   OH268647   0.505   2.216  12.782 -0.2311  0.1404  0.7166
15719TIP3    H168648   0.417   2.227  12.818 -0.0694  2.4428  0.5699
15719TIP3    H268649   0.563   2.222  12.857 -0.1044  0.8983  0.5683
15720TIP3   OH268650   3.886   0.715  12.047  0.0038  0.6693 -0.2228
15720TIP3    H168651   3.968   0.735  12.091  0.4190  1.6322 -1.4113
15720TIP3    H268652   3.828   0.685  12.118  1.3643 -0.0691  0.6188
15721TIP3   OH268653   1.357   2.497   5.604  0.5725 -0.1925 -0.1537
15721TIP3    H168654   1.450   2.520   5.598  0.0023  2.7393  0.6164
15721TIP3    H268655   1.352   2.441   5.681  1.8399 -1.5783 -1.0166
15722TIP3   OH268656   4.034   2.428   0.834 -0.6575  0.2317  0.1365
15722TIP3    H168657   4.078   2.504   0.797  0.7268 -0.8826 -0.5729
15722TIP3    H268658   3.969   2.403   0.769 -1.5776  1.1779  0.6666
15723TIP3   OH268659   5.409   4.276   2.932  0.3543  0.3885 -0.1314
15723TIP3    H168660   5.431   4.235   3.016  1.5169 -0.3812 -0.7882
15723TIP3    H268661   5.478   4.247   2.872 -0.6290  0.6659 -1.4393
15724TIP3   OH268662   0.447   5.503  12.690  0.0651  0.1003 -0.0928
15724TIP3    H168663   0.424   5.545  12.607  1.9034  0.4760 -0.4600
15724TIP3    H268664   0.452   5.575  12.753 -3.6964 -0.4227  1.0240
15725TIP3   OH268665   6.405   3.303  13.669  0.0124  0.5180  0.2741
15725TIP3    H168666   6.313   3.330  13.665  0.5038  2.3246  0.1323
15725TIP3    H268667   6.453   3.380  13.638  1.4763 -1.1344 -1.7912
15726TIP3   OH268668   3.511   1.069   5.265  0.0165 -0.8357  0.2518
15726TIP3    H168669   3.588   1.037   5.220 -0.4284 -1.1126 -0.3239
15726TIP3    H268670   3.536   1.156   5.296  0.0300 -0.2316 -1.3605
15727TIP3   OH268671   3.453   2.643   0.286  0.3372  0.1991 -0.7736
15727TIP3    H168672   3.519   2.626   0.354 -0.0367 -0.1987 -0.5062
15727TIP3    H268673   3.473   2.732   0.256 -0.4407  1.0136  0.9568
15728TIP3   OH268674   4.119   0.869  11.206  0.1178 -0.5408  0.0157
15728TIP3    H168675   4.064   0.852  11.129 -1.0752  1.4484  0.3663
15728TIP3    H268676   4.162   0.952  11.187  0.7504 -0.6202  1.0219
15729TIP3   OH268677   1.639   0.765  16.986 -0.0245  0.4289 -0.3607
15729TIP3    H168678   1.587   0.820  16.927 -1.9685 -0.3849  0.4849
15729TIP3    H268679   1.605   0.786  17.074 -0.7973 -1.9980 -0.0076
15730TIP3   OH268680   3.953   4.632  11.879  0.6747  0.1357  0.0300
15730TIP3    H168681   3.869   4.677  11.882  0.0873 -0.8719 -0.7628
15730TIP3    H268682   3.982   4.629  11.970  0.0025  0.7627  0.2736
15731TIP3   OH268683   6.369   3.781  16.607 -0.0269 -0.3140 -0.0872
15731TIP3    H168684   6.338   3.784  16.517  0.3885 -0.5878 -0.2486
15731TIP3    H268685   6.368   3.688  16.629 -1.6241 -0.1219  0.7393
15732TIP3   OH268686   4.847   6.596  12.104 -0.0197 -0.3705 -0.0944
15732TIP3    H168687   4.806   6.554  12.029  0.8624 -1.0352 -0.2164
15732TIP3    H268688   4.932   6.553  12.113  0.7796  1.1507 -0.0194
15733TIP3   OH268689   0.103   3.898   0.705 -0.0377  0.3206  0.2565
15733TIP3    H168690   0.148   3.816   0.685  1.4520  0.9071  1.1197
15733TIP3    H268691   0.161   3.966   0.673  0.0998  1.1260  2.0948
15734TIP3   OH268692   3.401   5.234  13.872 -0.5894 -0.0672 -0.0007
15734TIP3    H168693   3.462   5.295  13.831  1.3405 -2.1390 -0.4557
15734TIP3    H268694   3.422   5.237  13.965 -0.0963 -0.3957 -0.0935
15735TIP3   OH268695   0.303   1.797  17.110 -0.8002 -0.4686  0.2895
15735TIP3    H168696   0.275   1.757  17.028 -0.2881  2.8778 -1.7052
15735TIP3    H268697   0.368   1.863  17.084  1.3195 -0.9570  3.6828
15736TIP3   OH268698   0.545   1.175   2.778 -0.1062  0.5849  0.3331
15736TIP3    H168699   0.482   1.234   2.818 -0.9780  0.0634 -0.2441
15736TIP3    H268700   0.513   1.161   2.689 -0.3312 -1.3004  0.6504
15737TIP3   OH268701   4.196   1.843  11.458 -0.0494 -0.1149 -0.8239
15737TIP3    H168702   4.107   1.875  11.442 -0.2495 -0.8305 -1.1671
15737TIP3    H268703   4.236   1.839  11.372  0.2217 -0.0720 -0.7002
15738TIP3   OH268704   2.504   4.724  11.112  0.0544 -0.2365 -0.0609
15738TIP3    H168705   2.531   4.644  11.067 -0.7115 -0.1188 -0.7367
15738TIP3    H268706   2.428   4.699  11.163 -1.7169  0.5586 -2.1558
15739TIP3   OH268707   4.415   0.686  13.059  0.1827  0.1388 -0.7594
15739TIP3    H168708   4.378   0.739  13.128 -0.7363  2.0996 -2.6442
15739TIP3    H268709   4.468   0.746  13.007  0.9116 -1.2594 -1.7176
15740TIP3   OH268710   5.582   3.848   1.540 -0.1687 -0.0196  0.3109
15740TIP3    H168711   5.598   3.762   1.580  0.8942 -0.3927 -0.8412
15740TIP3    H268712   5.493   3.842   1.506 -0.0480 -0.7422  0.0906
15741TIP3   OH268713   2.168   2.105  11.597  0.3468 -0.3160 -0.4264
15741TIP3    H168714   2.126   2.143  11.674  0.6435 -1.8747  0.5519
15741TIP3    H268715   2.205   2.180  11.550 -2.4724  0.9838 -0.7229
15742TIP3   OH268716   0.072   1.809  16.655 -0.1875  0.1951 -0.0773
15742TIP3    H168717   0.145   1.858  16.693  1.2035 -1.4712 -0.4651
15742TIP3    H268718   0.052   1.854  16.573  0.8899  0.2766 -0.3007
15743TIP3   OH268719   0.640   4.111  13.561 -0.9135 -0.2215 -0.8779
15743TIP3    H168720   0.563   4.168  13.556 -1.1938 -0.4847  0.1894
15743TIP3    H268721   0.634   4.070  13.647  0.6395  0.0548 -0.6036
15744TIP3   OH268722   0.392   2.975   5.426  0.3372 -0.6594  0.1613
15744TIP3    H168723   0.439   2.935   5.500 -0.7923 -1.1769  0.6251
15744TIP3    H268724   0.308   3.002   5.463  1.1833  2.6237 -0.0146
15745TIP3   OH268725   0.738   4.586  15.961 -0.7506 -0.3400 -0.2578
15745TIP3    H168726   0.707   4.634  16.037 -0.0768 -0.4581  0.1040
15745TIP3    H268727   0.720   4.643  15.887 -1.1808 -0.1143  0.0226
15746TIP3   OH268728   6.221   3.821  13.929  0.1090 -0.4497  0.0505
15746TIP3    H168729   6.275   3.859  13.998 -1.3170 -0.8472  1.4668
15746TIP3    H268730   6.133   3.855  13.946 -0.3467 -0.8786 -1.3421
15747TIP3   OH268731   0.800   4.196  11.101 -0.0733  0.0650  0.0599
15747TIP3    H168732   0.881   4.196  11.049 -1.0523 -2.1294 -1.6064
15747TIP3    H268733   0.735   4.156  11.043 -2.6031  2.4684  1.0357
15748TIP3   OH268734   2.683   1.351  14.422  0.8132 -0.2277 -0.4512
15748TIP3    H168735   2.686   1.439  14.457  3.0331 -0.3383 -0.2087
15748TIP3    H268736   2.596   1.344  14.381  0.1548  1.6363  0.5172
15749TIP3   OH268737   6.678   5.037  11.459 -0.5736 -0.4694  0.3996
15749TIP3    H168738   6.607   5.012  11.520 -0.1659 -1.9214  0.3170
15749TIP3    H268739   6.666   5.131  11.447 -1.4743 -0.3781  1.6973
15750TIP3   OH268740   1.137   5.719  12.620 -0.1425  0.4452  0.5999
15750TIP3    H168741   1.060   5.736  12.566  0.3037 -0.2622 -0.2908
15750TIP3    H268742   1.144   5.623  12.621  2.1311  0.4878 -1.4485
15751TIP3   OH268743   1.682   2.294   1.366  0.4835  0.1617  0.8688
15751TIP3    H168744   1.595   2.299   1.407  0.3673 -0.7681  0.7653
15751TIP3    H268745   1.670   2.335   1.280 -0.1718 -0.9835  0.3841
15752TIP3   OH268746   1.034   3.599   5.906  0.3350 -0.1498  0.3025
15752TIP3    H168747   1.128   3.596   5.922  0.5935 -0.4425 -1.1687
15752TIP3    H268748   1.001   3.658   5.974  1.4495 -0.6625  1.3401
15753TIP3   OH268749   0.344   5.438   1.631 -0.0618  0.2634  0.1092
15753TIP3    H168750   0.404   5.459   1.703 -0.2356 -2.5876  1.2517
15753TIP3    H268751   0.268   5.493   1.646 -0.3923 -0.7375  2.6380
15754TIP3   OH268752   1.753   6.290   0.715 -0.2592 -0.5616  0.1107
15754TIP3    H168753   1.845   6.278   0.737 -0.1799 -1.9777 -0.8801
15754TIP3    H268754   1.706   6.266   0.794  0.1319 -2.5470 -0.2182
15755TIP3   OH268755   0.906   2.052   5.438  0.5879 -0.2249  0.6152
15755TIP3    H168756   0.934   2.144   5.443  1.6297 -0.4902 -0.0987
15755TIP3    H268757   0.826   2.049   5.490 -0.2080  1.3681 -0.4387
15756TIP3   OH268758   4.554   4.657  16.104  0.5534 -0.2435  0.1566
15756TIP3    H168759   4.477   4.683  16.055  0.0182 -2.5850 -0.3878
15756TIP3    H268760   4.628   4.686  16.051  0.0520  1.0677  0.1541
15757TIP3   OH268761   3.588   3.898   5.503  0.0561 -0.5864  0.1193
15757TIP3    H168762   3.586   3.976   5.558 -0.2316 -1.3819  1.2635
15757TIP3    H268763   3.668   3.907   5.452 -0.0962  0.5681  0.0634
15758TIP3   OH268764   5.221   1.047   0.652  0.4086  0.0479 -0.8586
15758TIP3    H168765   5.274   1.121   0.683 -1.0594  0.6467  0.3354
15758TIP3    H268766   5.178   1.080   0.573 -0.5883  0.6444 -0.0806
15759TIP3   OH268767   3.622   5.139  14.868 -0.0071  0.0320 -0.5533
15759TIP3    H168768   3.640   5.233  14.875 -0.9269  0.1500  0.5498
15759TIP3    H268769   3.530   5.130  14.893 -0.0215 -1.1377 -0.9506
15760TIP3   OH268770   0.161   0.301   5.282  0.0122  0.2808 -0.5461
15760TIP3    H168771   0.143   0.207   5.296 -3.0249  1.0216  1.7513
15760TIP3    H268772   0.213   0.327   5.358  1.7016  0.3501 -1.6747
15761TIP3   OH268773   4.414   2.806   4.123 -0.6091  0.0756 -0.7008
15761TIP3    H168774   4.347   2.744   4.093 -0.2871 -1.3282  1.2823
15761TIP3    H268775   4.480   2.751   4.166 -0.8676  1.8038  2.1662
15762TIP3   OH268776   2.544   2.567  13.068 -0.6066 -0.0587 -0.3331
15762TIP3    H168777   2.616   2.507  13.046  0.7797  1.6381 -0.6918
15762TIP3    H268778   2.494   2.573  12.986  0.8346  1.3150 -1.1676
15763TIP3   OH268779   2.510   5.086  13.280 -0.4943 -0.0584  0.0644
15763TIP3    H168780   2.508   5.112  13.188  1.8970  0.8918  0.1996
15763TIP3    H268781   2.484   5.164  13.328 -2.3879 -0.7434  0.2231
15764TIP3   OH268782   4.190   3.334  11.170 -0.4487  0.2405 -0.2059
15764TIP3    H168783   4.144   3.323  11.086  2.9024 -2.0282 -1.9730
15764TIP3    H268784   4.180   3.427  11.190 -2.6018  0.5727 -2.3343
15765TIP3   OH268785   6.374   1.277   0.094  0.5422  0.1140  0.3691
15765TIP3    H168786   6.386   1.361   0.049  0.2938  0.6239  1.2304
15765TIP3    H268787   6.369   1.300   0.186 -0.2615 -0.7749  0.5680
15766TIP3   OH268788   2.331   5.468   6.395 -1.0273  0.9296  0.2169
15766TIP3    H168789   2.243   5.449   6.425 -0.5350 -2.7747 -0.1953
15766TIP3    H268790   2.373   5.382   6.388  2.4209  2.4765 -0.2299
15767TIP3   OH268791   1.933   3.162  14.446 -0.7994 -0.1232 -0.6491
15767TIP3    H168792   2.023   3.170  14.415 -0.6066 -2.7411 -0.9694
15767TIP3    H268793   1.939   3.174  14.541  0.1379 -1.6699 -0.4878
15768TIP3   OH268794   1.615   4.800   1.672  0.3725 -0.2201 -0.0680
15768TIP3    H168795   1.598   4.770   1.761  0.9572 -0.1551  0.0699
15768TIP3    H268796   1.545   4.761   1.620  1.0037 -1.6631  0.1306
15769TIP3   OH268797   2.537   5.941   5.487 -0.0120  0.3681 -0.8777
15769TIP3    H168798   2.500   6.023   5.518 -0.5008  0.4159 -1.5577
15769TIP3    H268799   2.471   5.905   5.428 -0.4076 -1.1949  0.4370
15770TIP3   OH268800   1.975   0.368   0.612  0.3927  0.7592 -0.4429
15770TIP3    H168801   2.031   0.296   0.581  1.1226  1.5151 -0.9378
15770TIP3    H268802   1.889   0.329   0.624  0.8108 -0.2245 -0.5907
15771TIP3   OH268803   1.915   2.782  13.266 -0.0572  0.2473 -0.2615
15771TIP3    H168804   2.003   2.820  13.263  0.1069 -0.1766 -1.9139
15771TIP3    H268805   1.904   2.755  13.357  1.4800  0.4027  0.0043
15772TIP3   OH268806   5.065   5.980   1.711 -0.1116 -0.3998  0.0485
15772TIP3    H168807   5.023   5.911   1.762 -1.0623  0.5225  0.5529
15772TIP3    H268808   5.098   6.041   1.777 -2.4304  1.4401 -0.3791
15773TIP3   OH268809   5.077   4.171   2.788  0.0526  0.0286  0.5737
15773TIP3    H168810   5.119   4.233   2.728  0.2743 -1.2990 -0.6960
15773TIP3    H268811   5.125   4.182   2.870  0.4922  1.0926  0.1973
15774TIP3   OH268812   4.968   1.629   2.028 -1.0587  0.0595  0.4167
15774TIP3    H168813   4.962   1.677   1.946 -0.7187  0.2780  0.5178
15774TIP3    H268814   4.887   1.650   2.075 -0.1496  1.9898  1.2387
15775TIP3   OH268815   4.715   3.808  13.964 -0.4970 -0.5056 -0.1572
15775TIP3    H168816   4.804   3.786  13.992 -0.7616 -0.3909  0.8030
15775TIP3    H268817   4.727   3.860  13.884  0.2959 -0.4135  0.0121
15776TIP3   OH268818   6.502   3.512   2.225 -0.0378  0.3514 -0.3134
15776TIP3    H168819   6.505   3.426   2.184 -1.9030  0.6366 -1.1370
15776TIP3    H268820   6.593   3.534   2.242  0.4574 -1.9438  0.2851
15777TIP3   OH268821   0.540   2.869  11.616  0.5244  0.3009 -0.0881
15777TIP3    H168822   0.567   2.957  11.589  0.0622  0.3725 -0.3219
15777TIP3    H268823   0.493   2.834  11.541  2.6614 -1.0469 -0.8931
15778TIP3   OH268824   5.650   2.726   3.232  0.6633 -0.1573 -0.3506
15778TIP3    H168825   5.715   2.723   3.302  1.7089  0.2622 -1.2847
15778TIP3    H268826   5.608   2.639   3.235  1.0569 -0.3301  0.4410
15779TIP3   OH268827   6.097   3.312   1.118 -0.8239  1.3149 -1.1621
15779TIP3    H168828   6.167   3.271   1.169 -1.3646  0.7036 -0.8960
15779TIP3    H268829   6.016   3.280   1.158 -1.2611  1.4558 -1.9139
15780TIP3   OH268830   3.373   2.794  15.685  0.2173  0.2905 -0.1330
15780TIP3    H168831   3.358   2.754  15.771 -0.8026 -1.0470 -0.8961
15780TIP3    H268832   3.318   2.872  15.686 -0.5543 -0.2356  0.1029
15781TIP3   OH268833   3.074   6.288   2.714  0.1613 -0.2731 -0.2980
15781TIP3    H168834   3.112   6.354   2.656 -1.6434 -0.2128 -1.4902
15781TIP3    H268835   3.062   6.334   2.797 -0.6642  0.8296 -0.9845
15782TIP3   OH268836   2.808   0.086  13.939 -0.0582 -0.2602 -0.2345
15782TIP3    H168837   2.725   0.050  13.907  0.2608 -1.0957 -0.1428
15782TIP3    H268838   2.866   0.085  13.863 -0.8574  2.7408 -0.9940
15783TIP3   OH268839   2.494   4.709   4.572  0.2712  0.2368 -0.0020
15783TIP3    H168840   2.406   4.741   4.550  0.3054 -0.5385 -1.3393
15783TIP3    H268841   2.478   4.632   4.627 -0.0702 -2.0983 -3.1240
15784TIP3   OH268842   6.508   1.483   5.111 -0.0902 -0.1804  0.6046
15784TIP3    H168843   6.568   1.546   5.150  0.8175 -1.2349  0.9798
15784TIP3    H268844   6.458   1.448   5.185 -1.0611  0.5694  0.3142
15785TIP3   OH268845   1.802   6.703   0.492 -0.3748 -0.0324 -0.5065
15785TIP3    H168846   1.750   6.715   0.413 -0.9926 -0.9680 -0.2610
15785TIP3    H268847   1.843   6.617   0.481  1.2280  0.7171 -0.7411
15786TIP3   OH268848   1.515   6.580   0.004 -0.2413 -0.1232 -0.0230
15786TIP3    H168849   1.461   6.527  -0.055 -1.5242 -0.8621  1.7456
15786TIP3    H268850   1.522   6.664  -0.040 -2.1020 -0.2976 -0.7289
15787TIP3   OH268851   6.708   3.488  11.626 -0.0406 -0.0233 -0.0814
15787TIP3    H168852   6.755   3.479  11.543 -0.6359 -2.0638 -0.2626
15787TIP3    H268853   6.698   3.398  11.657 -2.2979  0.4613  0.7948
15788TIP3   OH268854   1.034   3.013  17.044  0.2407 -0.3670  0.0868
15788TIP3    H168855   1.117   3.038  17.087  1.0866 -0.1149 -1.6202
15788TIP3    H268856   1.056   2.936  16.993 -0.5634 -0.2276 -0.4838
15789TIP3   OH268857   1.256   3.760  16.849  0.4715 -0.0497 -0.4283
15789TIP3    H168858   1.333   3.775  16.795  0.4422  0.4159 -0.3473
15789TIP3    H268859   1.275   3.806  16.931  1.6866 -2.9644  1.0664
15790TIP3   OH268860   2.555   1.519   4.342 -0.3806  0.3632  0.5353
15790TIP3    H168861   2.647   1.498   4.328 -0.1296  1.7988 -0.1513
15790TIP3    H268862   2.527   1.460   4.412  1.0978  0.0054  0.8582
15791TIP3   OH268863   6.022   3.005  11.626  0.6435 -0.4762  0.4742
15791TIP3    H168864   6.051   3.095  11.618  0.7719 -0.4120  1.5400
15791TIP3    H268865   6.004   2.993  11.719  0.2826 -1.4453  0.3004
15792TIP3   OH268866   3.562   4.006   5.238 -0.0312 -0.0083 -0.1121
15792TIP3    H168867   3.588   4.039   5.152 -2.8433 -1.1247 -1.5080
15792TIP3    H268868   3.503   4.073   5.272 -0.5208 -0.5136  0.0424
15793TIP3   OH268869   2.402   1.397  14.394  0.1619  0.4413 -0.0653
15793TIP3    H168870   2.426   1.478  14.439 -0.9591  2.0393 -2.1820
15793TIP3    H268871   2.308   1.407  14.376  0.5981  0.0111 -2.9273
15794TIP3   OH268872   1.449   6.752  15.347 -0.1711  0.0219 -0.2088
15794TIP3    H168873   1.404   6.681  15.300 -2.4636  0.1052  1.6438
15794TIP3    H268874   1.483   6.710  15.426  0.3523  0.5791 -0.1309
15795TIP3   OH268875   5.122   3.694   4.086 -0.2697  0.5362  0.0835
15795TIP3    H168876   5.105   3.601   4.068 -1.1624  0.2990  1.8989
15795TIP3    H268877   5.035   3.730   4.105  0.3356  1.1939  1.6798
15796TIP3   OH268878   5.846   6.074   1.721 -0.4773 -0.5353 -0.1849
15796TIP3    H168879   5.760   6.111   1.702  0.2834  0.1007 -2.9980
15796TIP3    H268880   5.903   6.113   1.654  1.3727 -3.1630 -0.2626
15797TIP3   OH268881   5.496   1.118  13.527  0.9798  0.3681  0.4851
15797TIP3    H168882   5.458   1.202  13.554  0.6057  0.9782 -1.7086
15797TIP3    H268883   5.438   1.052  13.563 -0.1218  1.1612  0.2123
15798TIP3   OH268884   6.160   5.514  15.908 -0.0096 -0.6198  0.0308
15798TIP3    H168885   6.250   5.540  15.927  0.2302 -1.2367 -0.2251
15798TIP3    H268886   6.166   5.461  15.828 -0.6339 -0.4373 -0.1486
15799TIP3   OH268887   6.605   0.276   0.993 -0.0076 -0.2561 -0.8542
15799TIP3    H168888   6.698   0.261   1.010 -0.0743  0.7090  0.5477
15799TIP3    H268889   6.591   0.367   1.019 -1.1000 -0.0110 -2.2038
15800TIP3   OH268890   4.275   5.059  15.398 -0.3346  0.4848  0.7464
15800TIP3    H168891   4.231   5.098  15.474  1.4312  1.3049  1.4000
15800TIP3    H268892   4.257   4.965  15.406  1.3063  0.2926  3.2742
15801TIP3   OH268893   1.403   5.695  13.400 -0.6380 -0.6262 -0.1971
15801TIP3    H168894   1.466   5.708  13.471  1.1871 -0.0963 -1.8326
15801TIP3    H268895   1.346   5.772  13.405 -0.3372 -0.4406  0.5034
15802TIP3   OH268896   1.013   4.021  12.375 -0.0915 -0.2244  0.5556
15802TIP3    H168897   0.970   4.029  12.460 -2.5583  0.7913 -0.6792
15802TIP3    H268898   0.999   3.930  12.350 -1.1352 -0.0287  0.3886
15803TIP3   OH268899   1.138   4.723  12.171 -0.6620 -0.4507  0.0010
15803TIP3    H168900   1.219   4.771  12.187 -1.4524  0.6971  0.6897
15803TIP3    H268901   1.131   4.719  12.076  0.9521 -1.8998 -0.0969
15804TIP3   OH268902   3.575   0.767  14.329 -0.0354  0.2546  0.3375
15804TIP3    H168903   3.593   0.857  14.357 -1.1051  0.0763  1.6809
15804TIP3    H268904   3.656   0.739  14.287 -0.2880  2.4959 -1.9190
15805TIP3   OH268905   2.045   2.386   1.081 -0.4861  0.2783  0.0985
15805TIP3    H168906   2.112   2.324   1.053  1.5105  3.1440 -2.1174
15805TIP3    H268907   1.963   2.349   1.050  0.3867 -1.9757  0.2942
15806TIP3   OH268908   0.308   6.835   1.767 -0.4212  0.8231  0.3886
15806TIP3    H168909   0.251   6.890   1.821 -0.9097  1.1734 -0.4795
15806TIP3    H268910   0.289   6.860   1.677 -0.8464 -0.9542 -0.0542
15807TIP3   OH268911   6.270   2.374   5.607 -0.5187  0.3505  0.1453
15807TIP3    H168912   6.220   2.294   5.625  0.1297 -0.4955 -1.6293
15807TIP3    H268913   6.279   2.415   5.693 -1.8715 -0.8742  0.9309
15808TIP3   OH268914   0.074   4.048   1.528 -0.0785  0.0037  0.3570
15808TIP3    H168915   0.126   3.982   1.480 -1.3519 -1.9395  1.5013
15808TIP3    H268916   0.011   4.080   1.463  0.9244  0.5563 -0.3690
15809TIP3   OH268917   3.370   1.341  15.336  0.1822 -0.1067  0.0804
15809TIP3    H168918   3.352   1.315  15.246  0.8913  0.5876 -0.2685
15809TIP3    H268919   3.449   1.292  15.360 -0.4610 -0.9141  0.6137
15810TIP3   OH268920   6.539   5.810  16.847  0.2744  0.1272  0.4071
15810TIP3    H168921   6.559   5.844  16.934 -0.2789 -0.0946  0.6257
15810TIP3    H268922   6.552   5.884  16.789  0.1245  0.4230  0.7470
15811TIP3   OH268923   5.527   5.102   5.895 -0.5908 -0.1199 -0.0211
15811TIP3    H168924   5.474   5.130   5.969 -1.7763 -1.4435 -0.3429
15811TIP3    H268925   5.617   5.109   5.926 -1.0921 -2.6917  2.3308
15812TIP3   OH268926   5.473   4.598   2.827  0.5015  0.3193  0.0246
15812TIP3    H168927   5.556   4.645   2.829 -0.0692  1.4898 -1.7394
15812TIP3    H268928   5.434   4.622   2.743 -2.3937  1.1782  1.4859
15813TIP3   OH268929   0.109   6.038  12.901 -0.3270 -0.4310  0.3608
15813TIP3    H168930   0.102   5.946  12.877 -2.7769  0.1575 -1.5574
15813TIP3    H268931   0.204   6.055  12.901  0.1444 -2.7165 -0.0882
15814TIP3   OH268932   4.611   4.963   1.762  0.3908 -0.3511 -0.0321
15814TIP3    H168933   4.652   4.926   1.841  0.0113 -0.5401  0.0771
15814TIP3    H268934   4.545   4.899   1.736 -1.7242  1.0990  1.3461
15815TIP3   OH268935   3.454   3.671   2.734 -0.8739 -0.1914 -0.0574
15815TIP3    H168936   3.430   3.581   2.712 -0.7508 -0.9084  2.4313
15815TIP3    H268937   3.374   3.721   2.721 -1.2100 -0.8537 -0.5641
15816TIP3   OH268938   6.158   0.149  14.867 -0.3795  0.5095  0.2356
15816TIP3    H168939   6.169   0.054  14.865  0.3576  0.4640  2.9169
15816TIP3    H268940   6.211   0.181  14.794  0.1886 -1.0512 -0.0748
15817TIP3   OH268941   4.384   2.025   4.730 -0.3278  0.0888  0.4300
15817TIP3    H168942   4.460   1.981   4.692 -0.8221  0.2189 -0.7686
15817TIP3    H268943   4.374   1.986   4.817 -0.3043 -1.6375 -0.3134
15818TIP3   OH268944   3.256   4.597  16.633 -0.0833 -0.3543 -0.2123
15818TIP3    H168945   3.163   4.620  16.621 -0.1824  0.0889  1.1833
15818TIP3    H268946   3.267   4.515  16.586 -1.6101 -1.2677  0.9263
15819TIP3   OH268947   3.837   2.080   0.469  0.5451  0.2896 -0.2282
15819TIP3    H168948   3.910   2.020   0.486  0.2305  0.3984  1.7529
15819TIP3    H268949   3.843   2.145   0.539 -0.2299  1.5127 -1.2562
15820TIP3   OH268950   3.313   2.787  16.540 -0.0304  0.1036  0.2312
15820TIP3    H168951   3.303   2.817  16.450  1.6423 -3.5054 -1.3010
15820TIP3    H268952   3.225   2.757  16.565 -0.3723  0.5871 -0.3667
15821TIP3   OH268953   1.730   3.944  16.296 -0.4786  0.7790  0.1461
15821TIP3    H168954   1.740   3.897  16.378 -1.3547  0.2854 -0.0146
15821TIP3    H268955   1.693   4.029  16.321  3.1082  2.3753  0.6789
15822TIP3   OH268956   0.169   2.162  13.727  0.2321 -0.0508  0.1625
15822TIP3    H168957   0.206   2.180  13.641  0.0186 -0.3939 -0.0002
15822TIP3    H268958   0.204   2.232  13.783  0.3253  0.2039 -0.2123
15823TIP3   OH268959   1.966   5.663  17.034  0.1966  0.3792 -0.5426
15823TIP3    H168960   2.006   5.733  16.983  0.0287 -0.2630 -1.5940
15823TIP3    H268961   1.958   5.699  17.123 -1.2680  2.2532 -1.3664
15824TIP3   OH268962   5.983   1.949  11.752  0.0539 -0.1341  0.1579
15824TIP3    H168963   6.031   1.957  11.670  1.3899  1.9867  1.0809
15824TIP3    H268964   5.967   2.039  11.780  0.2039 -0.7715  2.5377
15825TIP3   OH268965   5.640   2.419  15.399 -0.1335 -0.1526 -0.1015
15825TIP3    H168966   5.559   2.369  15.415 -0.5839  0.7567  0.5170
15825TIP3    H268967   5.677   2.433  15.486  0.3610 -0.0085 -0.3349
15826TIP3   OH268968   5.670   1.886  13.546 -0.0275  0.2413 -0.2065
15826TIP3    H168969   5.749   1.834  13.561 -1.1997 -1.0609  2.0725
15826TIP3    H268970   5.666   1.946  13.621 -2.0788 -1.0051  0.7947
15827TIP3   OH268971   1.117   2.124   1.539 -0.2384 -0.2303 -0.2081
15827TIP3    H168972   1.184   2.056   1.535 -0.8555 -0.8508 -0.2194
15827TIP3    H268973   1.144   2.179   1.613 -0.2300 -1.0365  0.4071
15828TIP3   OH268974   3.652   0.728   1.034 -1.4701 -0.0819 -0.4443
15828TIP3    H168975   3.748   0.727   1.035 -1.4741 -0.2189  0.1249
15828TIP3    H268976   3.629   0.717   0.941 -0.9404 -0.9374 -0.4861
15829TIP3   OH268977   3.107   3.634  15.672  0.4045  0.0212 -0.4103
15829TIP3    H168978   3.096   3.667  15.761 -0.5657 -1.4468  0.0644
15829TIP3    H268979   3.073   3.703  15.616  3.1156  1.9735  0.1347
15830TIP3   OH268980   4.270   2.892   2.031  0.0537  0.6474 -0.5509
15830TIP3    H168981   4.237   2.952   2.097 -0.4169  0.0166 -0.2048
15830TIP3    H268982   4.283   2.810   2.078 -1.4267 -0.1558 -1.4768
15831TIP3   OH268983   4.939   2.245   1.490 -0.0733  0.0599  0.0831
15831TIP3    H168984   4.901   2.333   1.485  0.7909  0.9033  4.1683
15831TIP3    H268985   4.878   2.189   1.444 -1.1788  2.6323 -1.8280
15832TIP3   OH268986   5.833   1.002  11.427  0.4373 -0.2434 -0.8590
15832TIP3    H168987   5.779   1.029  11.501  2.7834  0.6548  0.6575
15832TIP3    H268988   5.789   1.037  11.350 -1.1031  0.4214  0.2897
15833TIP3   OH268989   6.364   3.243   1.306  0.3197 -0.2605 -0.0460
15833TIP3    H168990   6.427   3.305   1.342 -2.3013  0.9138  3.0398
15833TIP3    H268991   6.406   3.158   1.317  1.9079  0.5645  0.6391
15834TIP3   OH268992   5.012   4.724   4.861 -0.2221  0.2027 -0.5879
15834TIP3    H168993   4.935   4.670   4.879 -0.6505  0.8278 -0.5177
15834TIP3    H268994   5.067   4.715   4.938 -0.3454 -0.0455 -0.5311
15835TIP3   OH268995   1.339   1.619   4.941 -0.3559  0.0209  1.1421
15835TIP3    H168996   1.348   1.675   4.864  1.3836 -0.1640  1.1611
15835TIP3    H268997   1.355   1.678   5.015 -1.5804  0.1043  1.3653
15836TIP3   OH268998   3.404   3.178   2.752  0.2937 -0.0342  0.0160
15836TIP3    H168999   3.453   3.204   2.674 -1.1170 -0.3993 -1.0392
15836TIP3    H269000   3.386   3.085   2.740  1.8236 -0.6268  1.8133
15837TIP3   OH269001   2.794   0.541   1.001  0.0827  0.2186  0.2392
15837TIP3    H169002   2.730   0.505   1.063  0.8853 -0.5241  0.6562
15837TIP3    H269003   2.763   0.511   0.915 -0.8253  0.9339  0.3054
15838TIP3   OH269004   2.116   1.202  12.844 -0.2337  0.0020  0.3246
15838TIP3    H169005   2.095   1.291  12.816 -0.4094 -0.7193 -2.0914
15838TIP3    H269006   2.031   1.157  12.846 -0.4069  0.2459  3.3080
15839TIP3   OH269007   3.385   2.374   1.969  0.4679 -0.0931 -0.7619
15839TIP3    H169008   3.479   2.388   1.978  0.8010 -1.4598 -1.7057
15839TIP3    H269009   3.372   2.356   1.876 -0.9921  1.6560 -0.9624
15840TIP3   OH269010   2.960   6.639  13.397  0.2946  0.5952 -0.3779
15840TIP3    H169011   2.884   6.690  13.370  0.4567  0.8559 -0.3479
15840TIP3    H269012   2.944   6.620  13.490  0.0578  0.2749 -0.4852
15841TIP3   OH269013   2.187   4.314  14.647 -0.3129 -0.1236 -0.0445
15841TIP3    H169014   2.205   4.405  14.668 -1.4260 -0.1175  1.0114
15841TIP3    H269015   2.173   4.313  14.553  1.4007  0.4712 -0.3418
15842TIP3   OH269016   4.922   3.955  12.453  0.5214 -0.1552 -0.8410
15842TIP3    H169017   4.997   3.996  12.496  0.2567 -0.9891  0.4544
15842TIP3    H269018   4.885   4.024  12.398  0.3286  1.2555  0.9728
15843TIP3   OH269019   0.253   2.441  13.057  0.3552  0.2067  0.1480
15843TIP3    H169020   0.198   2.506  13.102  0.1249  0.7329 -0.8760
15843TIP3    H269021   0.230   2.358  13.099 -2.0579  0.2391 -0.9671
15844TIP3   OH269022   2.016   5.900  11.342  0.1984 -0.1481 -0.2693
15844TIP3    H169023   1.995   5.866  11.429 -1.3288  1.2459 -0.0372
15844TIP3    H269024   2.112   5.904  11.341  0.2943 -1.1699  0.9388
15845TIP3   OH269025   2.476   3.136   0.768 -0.5944 -0.2118  0.5318
15845TIP3    H169026   2.496   3.072   0.699  0.3908  0.7283 -0.0752
15845TIP3    H269027   2.484   3.086   0.849  1.6162 -0.5722  0.1637
15846TIP3   OH269028   3.678   2.075  13.180 -0.2438 -0.0439  0.4585
15846TIP3    H169029   3.591   2.107  13.205 -0.0253  0.7068  0.2670
15846TIP3    H269030   3.715   2.041  13.261 -1.1854 -1.5083  0.3209
15847TIP3   OH269031   4.010   2.801  15.898  0.5613 -0.0170 -0.0356
15847TIP3    H169032   4.103   2.802  15.921  0.5313  0.4481  0.0758
15847TIP3    H269033   3.992   2.891  15.870  0.4899 -0.4513 -1.4551
15848TIP3   OH269034   6.729   2.845  14.601  0.1191 -0.2372  0.9194
15848TIP3    H169035   6.646   2.823  14.644  0.5813  1.2286  2.6917
15848TIP3    H269036   6.714   2.934  14.566  0.5663 -0.4445  0.1749
15849TIP3   OH269037   6.258   0.535   0.288 -0.8050 -0.2521  0.1098
15849TIP3    H169038   6.290   0.459   0.240  0.1638 -0.9675  1.7778
15849TIP3    H269039   6.166   0.516   0.307 -0.7415 -0.7020 -0.0474
15850TIP3   OH269040   3.984   5.946   0.186 -0.4845  0.5777 -0.4564
15850TIP3    H169041   3.935   5.874   0.227  1.3903 -0.4224  0.1481
15850TIP3    H269042   4.050   5.970   0.252  0.6563  1.0052 -1.7185
15851TIP3   OH269043   6.824   1.960  13.489  0.2025 -0.0695 -0.9896
15851TIP3    H169044   6.769   2.037  13.472 -3.1714 -2.1481 -0.2439
15851TIP3    H269045   6.861   1.938  13.403 -1.2085  0.6541 -1.8095
15852TIP3   OH269046   3.750   3.438   3.495 -0.2215 -0.3427  0.2009
15852TIP3    H169047   3.665   3.410   3.529 -0.3181 -1.2185 -0.7250
15852TIP3    H269048   3.796   3.471   3.572 -1.2707 -0.1706  0.7772
15853TIP3   OH269049   2.707   6.581  10.586 -0.0384  0.2887 -0.4243
15853TIP3    H169050   2.710   6.636  10.508 -3.5608  1.5672  0.1319
15853TIP3    H269051   2.670   6.638  10.654  1.2805 -1.2707  1.7395
15854TIP3   OH269052   1.265   3.399   5.476 -0.3211  0.0406 -0.0691
15854TIP3    H169053   1.308   3.398   5.391 -0.9656  0.2189 -0.3961
15854TIP3    H269054   1.332   3.433   5.536 -0.1950  0.8856 -0.6734
15855TIP3   OH269055   6.848   2.435  15.958  0.3469 -0.4983 -0.3366
15855TIP3    H169056   6.863   2.511  16.015  0.1502  0.7797 -1.9069
15855TIP3    H269057   6.925   2.381  15.970 -0.0289 -0.6820  1.7040
15856TIP3   OH269058   0.312   3.756  14.606 -0.4280 -0.4830 -0.7833
15856TIP3    H169059   0.371   3.690  14.643 -0.7489 -1.0809 -1.3187
15856TIP3    H269060   0.292   3.723  14.518 -1.9997 -0.5789 -0.4145
15857TIP3   OH269061   5.874   2.469   2.480  0.3105  0.6458  0.1600
15857TIP3    H169062   5.842   2.480   2.390 -0.6660 -0.6188  0.3246
15857TIP3    H269063   5.796   2.443   2.530  0.6957  1.9922  1.5213
15858TIP3   OH269064   4.513   1.008  16.626  0.1831 -0.0054  0.7016
15858TIP3    H169065   4.565   1.067  16.680  0.5230 -0.3797  0.7913
15858TIP3    H269066   4.511   0.926  16.675 -1.9589  0.4898  1.5292
15859TIP3   OH269067   4.713   4.594   3.903 -0.2233  0.2222  0.2705
15859TIP3    H169068   4.652   4.522   3.884 -1.0338  1.1245 -0.6700
15859TIP3    H269069   4.659   4.661   3.945 -0.0348  1.2864 -1.1312
15860TIP3   OH269070   5.368   1.331  14.772  0.1078  0.2107 -0.4513
15860TIP3    H169071   5.316   1.251  14.773  0.0945  0.2269  0.2853
15860TIP3    H269072   5.426   1.321  14.696 -0.1138 -0.3489 -0.5511
15861TIP3   OH269073   2.325   0.774   3.938 -0.1217 -0.5884 -0.2756
15861TIP3    H169074   2.385   0.765   4.012  1.3340  1.5252 -1.0970
15861TIP3    H269075   2.333   0.691   3.891  4.2091  0.3631 -1.7055
15862TIP3   OH269076   3.734   3.063  12.188 -0.7458 -0.0552  0.1540
15862TIP3    H169077   3.687   3.057  12.271  1.3317 -0.7612  1.3524
15862TIP3    H269078   3.766   2.974  12.172  0.6481  0.4869 -0.2741
15863TIP3   OH269079   0.155   1.021  12.493  0.1050  0.3043  0.7069
15863TIP3    H169080   0.248   1.024  12.516  0.6703 -2.7071 -0.7255
15863TIP3    H269081   0.133   0.928  12.495 -2.6211  0.8580 -0.0194
15864TIP3   OH269082   1.912   0.377  13.838 -0.1390  0.2213 -0.8116
15864TIP3    H169083   1.937   0.464  13.869 -0.9563  0.5327 -0.9851
15864TIP3    H269084   1.852   0.345  13.905  0.1417 -0.1970 -0.7621
15865TIP3   OH269085   4.785   3.392  15.029 -0.3815 -0.0162  0.3498
15865TIP3    H169086   4.811   3.421  14.942  1.4417 -1.4208  0.3631
15865TIP3    H269087   4.867   3.377  15.075 -1.1238 -3.8344  0.7331
15866TIP3   OH269088   4.308   5.075   2.264 -0.0418 -0.7046 -0.3884
15866TIP3    H169089   4.292   5.064   2.170 -1.5183 -0.2129 -0.2118
15866TIP3    H269090   4.361   5.155   2.269  2.5995 -2.2603 -0.9602
15867TIP3   OH269091   2.961   5.876   1.738 -0.5044 -0.3268 -0.9506
15867TIP3    H169092   3.053   5.859   1.717 -0.7303 -0.9927 -1.4403
15867TIP3    H269093   2.964   5.929   1.818  0.3573  1.1267 -1.8846
15868TIP3   OH269094   1.038   5.552  14.802 -0.1706 -0.1743  0.5554
15868TIP3    H169095   1.123   5.558  14.759 -0.7625 -0.5063 -0.7160
15868TIP3    H269096   1.051   5.593  14.888  1.3118 -0.4070  0.4681
15869TIP3   OH269097   2.909   6.055   2.715  0.5164  0.7428  0.3390
15869TIP3    H169098   2.987   6.105   2.691  0.6722  0.5506  0.4455
15869TIP3    H269099   2.836   6.111   2.687  0.6502  1.8322  2.0400
15870TIP3   OH269100   3.251   1.065   2.407  0.2759  0.0769 -0.2102
15870TIP3    H169101   3.300   1.146   2.393 -0.8517  0.6019 -1.3170
15870TIP3    H269102   3.295   1.001   2.352  1.4942 -0.2443  1.0645
15871TIP3   OH269103   4.539   2.896  13.062  0.4802  0.0629  0.1290
15871TIP3    H169104   4.484   2.819  13.080  0.0951  0.4862  0.8042
15871TIP3    H269105   4.523   2.916  12.970  1.7511 -1.5791 -0.4990
15872TIP3   OH269106   6.718   0.010  16.064  0.0095  0.1117  0.2960
15872TIP3    H169107   6.805  -0.030  16.069  0.1524  0.4357  0.4556
15872TIP3    H269108   6.686   0.009  16.154 -0.0761  0.1574  0.2659
15873TIP3   OH269109   3.881   3.800  12.173  0.5560  0.1005 -0.2495
15873TIP3    H169110   3.798   3.846  12.160  0.7332  0.9315  1.3723
15873TIP3    H269111   3.928   3.852  12.238  2.1160 -0.6714 -0.7022
15874TIP3   OH269112   6.283   6.780   0.023 -0.7886  0.1956  0.4577
15874TIP3    H169113   6.366   6.731   0.014 -1.4974 -1.1378  0.8496
15874TIP3    H269114   6.298   6.861  -0.026 -0.0740 -1.0852 -1.5997
15875TIP3   OH269115   0.967   2.359  16.813  0.1431  0.6038 -0.0179
15875TIP3    H169116   1.057   2.391  16.825  0.8513 -1.2398 -0.1943
15875TIP3    H269117   0.952   2.365  16.719  0.6461 -0.4934 -0.1789
15876TIP3   OH269118   0.340   3.017   2.187  0.2693  0.5249 -0.0640
15876TIP3    H169119   0.367   2.933   2.222  0.2029  0.3543 -0.4202
15876TIP3    H269120   0.421   3.060   2.161  0.3491  0.7949  0.6087
15877TIP3   OH269121   1.892   1.025  12.914  0.4608 -0.1454  0.1455
15877TIP3    H169122   1.845   1.108  12.910  0.2117 -0.2757  0.2609
15877TIP3    H269123   1.851   0.971  12.846  0.3396 -0.3108  0.3476
15878TIP3   OH269124   3.823   6.473   4.217 -0.4665 -0.0818  0.2217
15878TIP3    H169125   3.797   6.534   4.147  1.0493 -0.5639 -0.8040
15878TIP3    H269126   3.851   6.394   4.171  1.7699  0.0263  1.2571
15879TIP3   OH269127   0.349   3.869   2.607 -0.5252  0.2914  0.0319
15879TIP3    H169128   0.424   3.890   2.662  1.5634 -0.6281 -2.2874
15879TIP3    H269129   0.341   3.945   2.549  0.0359 -0.4950 -1.1220
15880TIP3   OH269130   2.914   1.094  14.425 -0.4713 -0.8833 -0.1585
15880TIP3    H169131   2.857   1.135  14.490 -2.1664 -2.2019 -0.7311
15880TIP3    H269132   2.956   1.022  14.472  1.9263  0.8747  0.6410
15881TIP3   OH269133   5.977   5.255  14.193  0.7661 -0.0870  0.3518
15881TIP3    H169134   6.022   5.340  14.195  1.9064 -0.6767  1.2603
15881TIP3    H269135   6.047   5.191  14.202 -0.0894 -1.1338 -0.2131
15882TIP3   OH269136   3.075   5.650   5.474 -0.1097  0.5105  0.1621
15882TIP3    H169137   3.094   5.744   5.485  1.5467  0.3450 -0.9668
15882TIP3    H269138   3.019   5.646   5.396 -1.2219  0.6256  0.9237
15883TIP3   OH269139   5.671   5.013  14.628 -0.6055 -0.0992  0.9805
15883TIP3    H169140   5.719   5.088  14.593 -1.0672  0.2024  0.9781
15883TIP3    H269141   5.703   5.002  14.717 -0.0301 -0.3406  0.7440
15884TIP3   OH269142   0.133   1.575   5.482  0.6897  0.5269 -0.5305
15884TIP3    H169143   0.212   1.626   5.499  1.9895 -1.9649  1.7057
15884TIP3    H269144   0.158   1.517   5.410  1.3346 -0.8909  0.7653
15885TIP3   OH269145   3.813   3.360   0.860  0.4246 -0.2483 -0.4525
15885TIP3    H169146   3.808   3.355   0.764  3.8515  0.2373 -0.7919
15885TIP3    H269147   3.831   3.271   0.888  1.0997 -0.1132 -0.4444
15886TIP3   OH269148   5.922   3.320   0.337 -0.2898 -0.5903 -0.0024
15886TIP3    H169149   5.986   3.365   0.282 -0.6266 -0.9112 -0.6707
15886TIP3    H269150   5.970   3.247   0.375 -0.2713 -0.8687 -0.5529
15887TIP3   OH269151   3.575   5.096   0.614  0.1454 -0.2070 -0.3911
15887TIP3    H169152   3.527   5.135   0.541  0.8958 -1.0321 -1.3374
15887TIP3    H269153   3.570   5.002   0.600 -2.2225 -0.6207  2.2297
15888TIP3   OH269154   6.680   0.354  10.722 -0.0758 -0.2689 -0.0646
15888TIP3    H169155   6.763   0.346  10.676  0.5978  0.5013  0.9795
15888TIP3    H269156   6.613   0.338  10.655  0.8602  0.9392 -1.3380
15889TIP3   OH269157   4.152   5.728   4.885 -0.6564  0.6364 -0.1255
15889TIP3    H169158   4.082   5.673   4.922  0.2040 -0.9882 -0.7903
15889TIP3    H269159   4.108   5.782   4.819 -0.9894 -2.3763 -2.6115
15890TIP3   OH269160   6.489   0.542  13.144 -0.1558 -0.1490  0.5943
15890TIP3    H169161   6.404   0.549  13.101  0.8170 -0.0115 -1.4238
15890TIP3    H269162   6.542   0.490  13.084  1.9073  1.8185  0.5673
15891TIP3   OH269163   4.466   4.910   3.889  0.4175  0.3928 -0.1380
15891TIP3    H169164   4.488   4.843   3.953  0.1142 -0.0084 -0.4453
15891TIP3    H269165   4.370   4.916   3.893  0.1987 -1.0166 -1.8902
15892TIP3   OH269166   5.618   0.831   5.495  0.1826 -0.2513 -0.0855
15892TIP3    H169167   5.553   0.900   5.511  0.6185  0.2087 -0.2825
15892TIP3    H269168   5.686   0.873   5.442 -1.0344 -1.6173 -2.9657
15893TIP3   OH269169   0.898   4.905   1.818  0.4727  0.4353  0.1872
15893TIP3    H169170   0.946   4.864   1.747 -0.6211  0.2563 -0.4703
15893TIP3    H269171   0.831   4.958   1.775 -0.3976  0.1025  1.0754
15894TIP3   OH269172   1.537   6.442  13.935  0.5264  0.2156  0.1531
15894TIP3    H169173   1.505   6.523  13.974  0.6944  0.3401  0.0328
15894TIP3    H269174   1.525   6.376  14.003 -0.2786  0.1982  0.0009
15895TIP3   OH269175   6.605   5.825  11.393 -0.3168 -0.6101 -0.6622
15895TIP3    H169176   6.589   5.751  11.452 -1.1678 -0.6440 -0.9208
15895TIP3    H269177   6.628   5.784  11.310  1.7465 -0.5631 -0.1646
15896TIP3   OH269178   1.141   4.990   2.636 -0.2189  0.2113 -0.4583
15896TIP3    H169179   1.116   4.898   2.642 -2.7394  0.8159 -0.2921
15896TIP3    H269180   1.063   5.038   2.664  1.4989  2.4142  0.9361
15897TIP3   OH269181   1.453   4.242   2.195 -0.0091 -0.0594  0.8735
15897TIP3    H169182   1.476   4.255   2.287 -0.3801 -0.6539  1.0541
15897TIP3    H269183   1.382   4.304   2.179  2.2510  2.5003  0.0497
15898TIP3   OH269184   2.880   6.724  11.247  0.1025 -0.3401 -0.1534
15898TIP3    H169185   2.918   6.637  11.260  2.0105  0.5229  0.5129
15898TIP3    H269186   2.794   6.720  11.289  0.7861 -1.4836  1.2214
15899TIP3   OH269187   5.743   5.625  16.384 -0.4912  0.4598 -0.1816
15899TIP3    H169188   5.733   5.658  16.473  0.0191  0.3618 -0.0878
15899TIP3    H269189   5.757   5.531  16.394 -1.3497  0.2918 -0.4170
15900TIP3   OH269190   2.750   4.393   5.890 -0.5083 -0.0134  0.3345
15900TIP3    H169191   2.786   4.312   5.926  1.5186  0.2728 -0.8944
15900TIP3    H269192   2.673   4.411   5.944  0.2844 -1.5280  2.0860
15901TIP3   OH269193   0.846   0.418  11.106 -0.1001  0.4968  0.3430
15901TIP3    H169194   0.887   0.443  11.189 -1.8517 -0.5846  1.5988
15901TIP3    H269195   0.920   0.400  11.048  1.1808  1.0732  1.7202
15902TIP3   OH269196   2.705   3.507  12.405  0.1368 -0.2234  0.0066
15902TIP3    H169197   2.794   3.476  12.420  0.7773  0.7356 -1.6300
15902TIP3    H269198   2.708   3.601  12.425 -0.9917 -0.5104  1.7517
15903TIP3   OH269199   3.111   0.023   2.069  0.0825 -0.8565  0.2854
15903TIP3    H169200   3.181   0.023   2.134  1.7239 -2.3884 -1.3909
15903TIP3    H269201   3.155   0.025   1.985 -1.9729  0.5052 -0.8511
15904TIP3   OH269202   3.290   4.056   5.029 -0.1584 -0.2969  0.6641
15904TIP3    H169203   3.266   4.107   5.106 -0.8674 -0.7930  0.7733
15904TIP3    H269204   3.217   3.996   5.015 -1.4695  1.7104 -2.1186
15905TIP3   OH269205   4.336   5.777   5.879 -0.6272 -0.2392 -0.2911
15905TIP3    H169206   4.291   5.804   5.799  0.7567  1.4029 -0.5477
15905TIP3    H269207   4.270   5.788   5.948 -0.9273  1.2239 -0.7853
15906TIP3   OH269208   0.045   3.851  15.193  0.0009  0.2014  0.0186
15906TIP3    H169209   0.117   3.846  15.130  1.4313  1.0792  1.5167
15906TIP3    H269210   0.020   3.943  15.193 -2.4877 -0.3572 -1.8530
15907TIP3   OH269211   4.189   5.949   5.651 -0.5575  0.2314 -0.2322
15907TIP3    H169212   4.246   6.020   5.681  0.7914 -0.6398 -0.6918
15907TIP3    H269213   4.169   5.971   5.560  1.5007 -0.9445 -1.0302
15908TIP3   OH269214   1.406   5.529  13.207 -0.1759  0.2990  0.0695
15908TIP3    H169215   1.487   5.546  13.158  0.8068 -0.4708  1.3585
15908TIP3    H269216   1.404   5.597  13.274 -0.6835  0.4025 -0.0504
15909TIP3   OH269217   3.991   4.294   0.702  0.0723 -0.4975 -0.4610
15909TIP3    H169218   3.928   4.328   0.638 -1.1424 -1.6417  0.0924
15909TIP3    H269219   4.000   4.202   0.680  3.2540  0.0087 -1.8795
15910TIP3   OH269220   1.052   2.835   2.357  0.1920 -0.2943 -0.4911
15910TIP3    H169221   1.060   2.815   2.450  1.4125  1.5200 -0.1612
15910TIP3    H269222   1.121   2.785   2.315 -1.8788 -3.0838 -0.8392
15911TIP3   OH269223   6.303   1.316   0.353 -0.3180  0.3120  0.9997
15911TIP3    H169224   6.217   1.335   0.314 -0.7210 -1.2769  1.0532
15911TIP3    H269225   6.292   1.341   0.445 -0.4874  0.8071  0.8473
15912TIP3   OH269226   3.787   4.999  12.066  0.8906 -0.4392  0.1239
15912TIP3    H169227   3.775   5.082  12.112  0.6974 -0.1027 -0.5234
15912TIP3    H269228   3.794   5.024  11.973  0.5337 -1.1740 -0.1046
15913TIP3   OH269229   3.488   5.325   2.415  0.0552  0.5668 -0.0318
15913TIP3    H169230   3.581   5.340   2.435 -0.1490  1.3517  0.3530
15913TIP3    H269231   3.482   5.230   2.399  0.8077  0.4112  0.5672
15914TIP3   OH269232   6.308   6.716  14.906 -0.3151 -0.1909  0.8565
15914TIP3    H169233   6.327   6.641  14.962  0.6047 -0.7190 -0.1171
15914TIP3    H269234   6.388   6.768  14.910  1.4787 -2.2479 -3.0178
15915TIP3   OH269235   3.270   0.975   1.255  0.3129  0.4171 -0.0310
15915TIP3    H169236   3.189   0.926   1.268 -0.1928  0.9359 -1.0902
15915TIP3    H269237   3.340   0.912   1.271 -0.2767 -1.4175 -3.6610
15916TIP3   OH269238   4.257   4.934  14.225  0.0168  0.4602 -0.5531
15916TIP3    H169239   4.171   4.901  14.252  0.4107 -0.0712  0.0938
15916TIP3    H269240   4.249   4.949  14.131 -0.5717 -0.2490 -0.6229
15917TIP3   OH269241   6.297   4.106   4.980 -0.2488  0.0484  0.5322
15917TIP3    H169242   6.250   4.024   4.994 -0.6811  0.0491 -0.8347
15917TIP3    H269243   6.340   4.096   4.896  1.1598  0.5627  1.1533
15918TIP3   OH269244   0.399   4.225  15.583 -0.0132 -0.0200  0.5269
15918TIP3    H169245   0.470   4.199  15.524 -0.1391 -0.1155  0.4191
15918TIP3    H269246   0.405   4.162  15.656  0.1036  0.0609  0.5875
15919TIP3   OH269247   2.907   2.672  11.767 -0.1334  0.3788  0.4114
15919TIP3    H169248   2.909   2.688  11.861 -0.1941  0.8407  0.3366
15919TIP3    H269249   2.946   2.751  11.728  0.1251  0.0847  0.0634
15920TIP3   OH269250   0.751   0.647  12.401  0.0775 -0.3091  0.2069
15920TIP3    H169251   0.733   0.699  12.323  2.1465 -1.1465 -0.9080
15920TIP3    H269252   0.791   0.708  12.463  1.3630 -0.2610 -0.6316
15921TIP3   OH269253   6.638   1.108  12.407 -0.2571  0.0938  0.4222
15921TIP3    H169254   6.605   1.025  12.441  0.6160 -0.3881  0.1154
15921TIP3    H269255   6.721   1.121  12.454  0.0752  0.3180 -0.2261
15922TIP3   OH269256   1.865   0.313   2.279 -0.2450  0.4172  0.1354
15922TIP3    H169257   1.853   0.218   2.269 -0.0597  0.3961  0.1033
15922TIP3    H269258   1.795   0.352   2.227 -0.2901  0.2980  0.1061
15923TIP3   OH269259   1.415   5.466  12.610  0.1363 -0.3428 -0.1444
15923TIP3    H169260   1.410   5.373  12.591 -3.3631 -0.1100 -1.0774
15923TIP3    H269261   1.439   5.472  12.702 -0.7890 -2.2190  0.2482
15924TIP3   OH269262   5.457   4.268  12.697  0.0396 -0.1812 -0.5522
15924TIP3    H169263   5.449   4.278  12.792  1.8702  1.8651 -0.5172
15924TIP3    H269264   5.372   4.293  12.663 -0.2853  0.2259  0.5089
15925TIP3   OH269265   0.221   5.679   5.034 -0.1016  0.3132  0.5021
15925TIP3    H169266   0.286   5.612   5.056 -0.0101  0.8698  2.0316
15925TIP3    H269267   0.142   5.650   5.079  0.0076  1.3523  1.3814
15926TIP3   OH269268   0.631   5.858  12.331  0.2696  0.0672  0.2537
15926TIP3    H169269   0.628   5.925  12.262  1.1462  0.3209  0.4401
15926TIP3    H269270   0.618   5.907  12.412  0.7515 -0.0028  0.3791
15927TIP3   OH269271   4.467   1.922  11.563 -0.0839 -0.1706  0.1545
15927TIP3    H169272   4.442   2.012  11.543 -2.0223 -0.8173 -0.6847
15927TIP3    H269273   4.553   1.911  11.523 -0.0532  1.1535 -0.1966
15928TIP3   OH269274   2.503   3.077  12.269 -0.6397  0.0005 -0.1231
15928TIP3    H169275   2.531   3.104  12.357 -0.0066 -0.3836 -0.2014
15928TIP3    H269276   2.408   3.089  12.270 -0.5046  1.2380  0.1817
15929TIP3   OH269277   6.769   2.396  11.251  0.1089  0.1685  0.4345
15929TIP3    H169278   6.855   2.414  11.290  0.4188  0.4679 -0.3737
15929TIP3    H269279   6.789   2.363  11.163 -0.4712 -2.8066  1.3194
15930TIP3   OH269280   3.953   4.996  14.446  0.6750 -0.6220 -0.1406
15930TIP3    H169281   3.929   5.002  14.353  0.5204  0.9753 -0.0320
15930TIP3    H269282   4.016   4.924  14.450  1.1157 -0.3511 -1.5721
15931TIP3   OH269283   1.560   0.232  16.964 -0.0785 -0.0674 -0.2859
15931TIP3    H169284   1.520   0.222  16.878 -0.8553 -2.9564  0.2978
15931TIP3    H269285   1.597   0.146  16.984  0.1631  0.5284  2.1943
15932TIP3   OH269286   5.530   5.778   2.575 -0.6953 -0.3478 -0.0961
15932TIP3    H169287   5.487   5.706   2.620 -1.0461 -0.3723 -0.4650
15932TIP3    H269288   5.575   5.827   2.644 -1.3581 -0.2934  0.3014
15933TIP3   OH269289   2.918   4.013  15.942  0.1627 -0.2215  0.2589
15933TIP3    H169290   2.875   4.001  16.027 -0.8601 -0.6897 -0.3009
15933TIP3    H269291   2.852   3.986  15.879  1.6109 -1.8987 -0.6131
15934TIP3   OH269292   2.310   5.655  13.803 -0.5393 -0.2478  0.4124
15934TIP3    H169293   2.274   5.727  13.856 -0.1305  0.2000  0.0905
15934TIP3    H269294   2.346   5.698  13.725 -1.1321 -0.9014 -0.2328
15935TIP3   OH269295   5.524   0.595  16.344 -0.2282  0.3692 -0.5559
15935TIP3    H169296   5.454   0.648  16.306  0.0589  1.6264  0.6411
15935TIP3    H269297   5.598   0.654  16.352  0.6176 -0.6399 -0.6837
15936TIP3   OH269298   3.995   0.520  13.119 -0.3724 -0.5947  0.1533
15936TIP3    H169299   3.978   0.451  13.055 -0.1742 -2.4019  1.9491
15936TIP3    H269300   4.083   0.502  13.151  1.5161  3.0610 -2.2587
15937TIP3   OH269301   2.926   1.471   2.070  0.6158  0.6989 -0.2742
15937TIP3    H169302   2.854   1.437   2.016  1.5485  0.4065 -1.3767
15937TIP3    H269303   2.925   1.565   2.054  1.1343  0.5706 -1.1559
15938TIP3   OH269304   5.017   4.196  11.493  0.9828 -0.1730 -0.2194
15938TIP3    H169305   4.929   4.186  11.456  1.1239  1.2201 -0.9851
15938TIP3    H269306   5.075   4.178  11.419  1.3424 -0.5488  0.1516
15939TIP3   OH269307   2.705   6.207   2.561  0.0612 -0.8575 -0.1304
15939TIP3    H169308   2.626   6.174   2.516  0.1498 -1.1084 -0.1067
15939TIP3    H269309   2.771   6.212   2.492  0.0514 -0.7365 -0.1314
15940TIP3   OH269310   3.878   0.486   4.488  0.0884  0.6194 -0.5491
15940TIP3    H169311   3.903   0.480   4.580 -1.2434  2.0107 -0.0380
15940TIP3    H269312   3.782   0.497   4.491 -0.3514 -1.9384 -2.2379
15941TIP3   OH269313   2.851   4.190  15.487  0.2764 -0.0416 -0.5042
15941TIP3    H169314   2.937   4.213  15.453 -0.4392 -0.7941 -3.0373
15941TIP3    H269315   2.839   4.099  15.462 -0.5532 -0.5238  1.4575
15942TIP3   OH269316   1.920   3.267  12.070 -0.2092 -0.1030  0.4657
15942TIP3    H169317   1.859   3.315  12.014  0.8323  0.5590 -0.1292
15942TIP3    H269318   1.933   3.325  12.145  0.6039  0.2968  0.0211
15943TIP3   OH269319   3.417   0.203   0.686  0.2939  1.0230  0.5097
15943TIP3    H169320   3.397   0.239   0.773 -1.7415 -1.2497  1.0980
15943TIP3    H269321   3.490   0.143   0.702 -0.4401  0.1843  0.8115
15944TIP3   OH269322   0.432   3.426  12.416 -0.2197 -0.3742  0.5259
15944TIP3    H169323   0.359   3.394  12.363  0.0534 -0.1033 -0.0311
15944TIP3    H269324   0.394   3.447  12.501 -0.9483  0.4621  0.0154
15945TIP3   OH269325   1.127   3.332  11.711 -0.2790 -0.0431  0.5003
15945TIP3    H169326   1.180   3.391  11.764  1.2513  0.2636 -1.2867
15945TIP3    H269327   1.117   3.253  11.765 -0.2213  0.8688  1.8881
15946TIP3   OH269328   2.718   1.556  16.372  0.4114 -0.3034  0.2876
15946TIP3    H169329   2.785   1.566  16.305 -0.1829  0.3982 -0.2192
15946TIP3    H269330   2.647   1.614  16.345 -0.6764 -1.4859  0.4790
15947TIP3   OH269331   4.313   3.685  10.934  0.3560  0.4049  0.0488
15947TIP3    H169332   4.325   3.688  10.839  2.2952 -0.0519  0.2423
15947TIP3    H269333   4.229   3.728  10.949  0.3583  1.1390 -1.8089
15948TIP3   OH269334   0.893   2.804   0.293  0.2206  0.3385  0.0718
15948TIP3    H169335   0.898   2.741   0.222  0.1456  1.4180 -0.9255
15948TIP3    H269336   0.804   2.838   0.290 -0.0627 -0.2392  1.2696
15949TIP3   OH269337   1.528   6.157   1.926  0.1184 -0.5087 -0.0918
15949TIP3    H169338   1.590   6.198   1.866 -0.5354  1.1100  0.2832
15949TIP3    H269339   1.469   6.228   1.952 -1.0852 -1.7021  0.5901
15950TIP3   OH269340   6.688   6.806  11.765 -0.2618 -0.4709 -0.2549
15950TIP3    H169341   6.778   6.826  11.739 -0.5448 -0.6708 -1.3982
15950TIP3    H269342   6.677   6.714  11.743 -0.9721 -0.2658 -0.7700
15951TIP3   OH269343   4.543   4.725   2.313 -0.0803 -0.1987  0.6297
15951TIP3    H169344   4.630   4.707   2.278  0.0708  1.5880 -0.0375
15951TIP3    H269345   4.553   4.808   2.359 -1.9762  1.5569 -1.8287
15952TIP3   OH269346   4.642   5.739   1.787  0.0871 -0.1294 -0.4743
15952TIP3    H169347   4.558   5.730   1.741  0.1498 -0.6596 -0.4895
15952TIP3    H269348   4.706   5.754   1.718  0.3596 -2.0303 -0.7018
15953TIP3   OH269349   6.539   5.753  15.642  0.3588  0.3205  0.1023
15953TIP3    H169350   6.548   5.663  15.674  0.8636  0.3798  0.1457
15953TIP3    H269351   6.470   5.791  15.696 -0.8206 -0.4373 -0.8254
15954TIP3   OH269352   3.318   1.179  11.924  0.1641  0.4047  0.1538
15954TIP3    H169353   3.323   1.221  12.010  0.3018 -1.0172  0.8789
15954TIP3    H269354   3.228   1.145  11.920  0.5143 -0.5960  0.2946
15955TIP3   OH269355   0.170   6.582  15.874  0.0827 -0.9317 -0.0582
15955TIP3    H169356   0.142   6.627  15.795  0.6462 -0.3893  0.0450
15955TIP3    H269357   0.229   6.513  15.843 -1.1319 -1.9189 -0.2543
15956TIP3   OH269358   0.945   4.510   6.524  0.2939 -0.2010 -0.0904
15956TIP3    H169359   1.020   4.516   6.584  0.3873 -0.3032 -0.1966
15956TIP3    H269360   0.921   4.601   6.507  1.6857 -0.0704 -1.6671
15957TIP3   OH269361   4.438   1.144  12.344 -0.1833 -0.1521 -1.1508
15957TIP3    H169362   4.349   1.148  12.308 -1.5901 -0.5203  1.8974
15957TIP3    H269363   4.446   1.224  12.397  1.0273 -0.4632 -0.8262
15958TIP3   OH269364   3.877   2.915  14.906  0.0265 -0.3863  0.0669
15958TIP3    H169365   3.862   2.994  14.854  1.3136 -0.8140 -0.9957
15958TIP3    H269366   3.858   2.843  14.847  0.3863 -0.8822  0.5470
15959TIP3   OH269367   6.243   3.552   2.348 -1.1033 -0.2246 -0.2685
15959TIP3    H169368   6.328   3.545   2.304 -0.4506 -0.7202  1.0187
15959TIP3    H269369   6.195   3.616   2.296  0.4375  0.8658 -0.4427
15960TIP3   OH269370   4.630   2.256  11.675 -0.3046 -0.0256 -0.1073
15960TIP3    H169371   4.660   2.347  11.684  0.7918 -0.4669  0.9249
15960TIP3    H269372   4.602   2.249  11.584 -1.8143  1.7457  0.1366
15961TIP3   OH269373   5.886   3.512  11.659  0.2423 -0.5954  0.3713
15961TIP3    H169374   5.844   3.494  11.744 -1.0283  0.8905  0.0918
15961TIP3    H269375   5.875   3.430  11.610  1.1445 -1.5362  1.6617
15962TIP3   OH269376   5.802   0.126  15.664  0.4532 -0.6317  0.0035
15962TIP3    H169377   5.896   0.146  15.671  0.3968 -0.3780  0.0360
15962TIP3    H269378   5.781   0.142  15.572  0.4039 -0.5211  0.0335
15963TIP3   OH269379   3.202   1.246   5.123 -0.4819  0.4274  0.1199
15963TIP3    H169380   3.210   1.333   5.084 -0.1004  0.1819 -0.3471
15963TIP3    H269381   3.109   1.240   5.146 -0.6306  0.7334 -0.3760
15964TIP3   OH269382   0.612   6.706  16.666 -0.2528  0.0970 -0.8334
15964TIP3    H169383   0.611   6.800  16.687 -2.4028 -0.2749  1.2181
15964TIP3    H269384   0.678   6.669  16.724 -1.1555  0.0431  0.1869
15965TIP3   OH269385   2.507   2.044  11.531 -0.1274 -0.0257 -0.1407
15965TIP3    H169386   2.460   2.110  11.481  0.4639  0.9957  0.6239
15965TIP3    H269387   2.574   2.093  11.579 -0.6399 -0.9695  1.6271
15966TIP3   OH269388   4.012   2.222  12.592  0.0420  0.3543 -0.2730
15966TIP3    H169389   4.068   2.241  12.668  0.5543 -1.4407 -0.1564
15966TIP3    H269390   3.934   2.181  12.630 -1.3106  2.5654 -0.4618
15967TIP3   OH269391   0.859   3.647   2.243 -0.1143  0.0684 -0.1513
15967TIP3    H169392   0.871   3.555   2.265  0.2551  0.6080  2.2076
15967TIP3    H269393   0.943   3.674   2.206  1.0860  0.2421  2.4635
15968TIP3   OH269394   2.617   0.026   2.655 -0.2099 -0.3385  0.4632
15968TIP3    H169395   2.593   0.103   2.602  0.5955 -0.4960 -0.1469
15968TIP3    H269396   2.536  -0.026   2.659 -1.4809  1.6256  2.8872
15969TIP3   OH269397   0.035   0.238   0.247 -0.6995 -0.1100  0.0769
15969TIP3    H169398  -0.015   0.253   0.167  0.2182 -1.6190 -0.8245
15969TIP3    H269399   0.089   0.316   0.258 -0.4747 -0.1027 -1.0419
15970TIP3   OH269400   0.510   5.177   1.933  0.6459  0.4053 -0.3467
15970TIP3    H169401   0.525   5.190   2.027  0.3494  1.2366 -0.4058
15970TIP3    H269402   0.550   5.253   1.891  1.0715 -0.1219 -0.9370
15971TIP3   OH269403   5.345   6.686  13.747 -0.1271 -0.4033 -1.0160
15971TIP3    H169404   5.430   6.680  13.704  2.2505  0.8919  2.9375
15971TIP3    H269405   5.305   6.765  13.711  1.0063 -0.2149 -1.9088
15972TIP3   OH269406   5.085   6.077   2.348  0.8044 -0.3666  0.1323
15972TIP3    H169407   5.180   6.063   2.339  0.8395 -0.1477  0.1659
15972TIP3    H269408   5.048   6.042   2.266  0.8226 -1.3211  0.5131
15973TIP3   OH269409   6.089   2.072   2.551  0.1750  0.2011 -0.4526
15973TIP3    H169410   6.085   2.167   2.547  0.1088  0.1781 -1.0367
15973TIP3    H269411   6.002   2.043   2.523 -0.3564 -0.0085  1.2682
15974TIP3   OH269412   4.359   3.712   0.991 -0.2266 -0.0966  0.3587
15974TIP3    H169413   4.269   3.726   0.961 -0.4319 -2.1847 -0.0969
15974TIP3    H269414   4.370   3.617   0.995  1.9951  0.0836  0.2999
15975TIP3   OH269415   0.956   4.961  12.148  0.4087 -0.3410  0.7353
15975TIP3    H169416   0.997   4.877  12.172 -0.3474 -0.3451  2.1766
15975TIP3    H269417   1.025   5.026  12.162  1.5097 -0.8238 -1.9398
15976TIP3   OH269418   6.335   0.410  10.802 -0.2462  0.1709 -0.2698
15976TIP3    H169419   6.257   0.358  10.784 -0.8007  0.5392  0.9753
15976TIP3    H269420   6.334   0.424  10.897 -0.4100  2.9000 -0.5973
15977TIP3   OH269421   3.172   1.710  16.018 -0.6350 -0.4486 -0.1266
15977TIP3    H169422   3.082   1.679  16.010 -0.7862 -1.0339  2.6453
15977TIP3    H269423   3.165   1.791  16.069  0.2795  0.7517 -1.8322
15978TIP3   OH269424   6.164   6.489  12.841  0.0893  0.7090  0.0417
15978TIP3    H169425   6.158   6.581  12.816  0.3982  0.3930 -1.2850
15978TIP3    H269426   6.116   6.442  12.772  1.4659 -0.2496 -0.3250
15979TIP3   OH269427   5.478   2.868  13.535  0.5274 -0.0079  0.2629
15979TIP3    H169428   5.394   2.846  13.575  0.9362 -1.8803  0.1951
15979TIP3    H269429   5.463   2.952  13.492 -1.5438 -0.6635 -0.4063
15980TIP3   OH269430   0.190   2.355   4.276 -0.8885  0.1548  0.4656
15980TIP3    H169431   0.251   2.406   4.224 -0.0788 -1.8266 -0.6329
15980TIP3    H269432   0.220   2.367   4.366  0.7246 -0.2208  0.0128
15981TIP3   OH269433   0.502   2.730  12.097 -0.4220 -0.5749  0.7222
15981TIP3    H169434   0.588   2.769  12.106 -1.1944  1.4283 -0.0272
15981TIP3    H269435   0.495   2.707  12.005 -0.1806 -2.0770  1.0519
15982TIP3   OH269436   6.291   6.062  11.925  0.2496 -0.2283 -0.4463
15982TIP3    H169437   6.199   6.073  11.949  1.0414  0.7502  2.5568
15982TIP3    H269438   6.328   6.150  11.930  1.4409 -0.6605 -1.2689
15983TIP3   OH269439   6.542   3.278  15.646 -0.2622 -0.1568  0.3213
15983TIP3    H169440   6.454   3.306  15.620 -0.6021 -0.6529  0.8870
15983TIP3    H269441   6.578   3.353  15.693 -0.8947 -0.3972  1.2172
15984TIP3   OH269442   0.162   5.586  14.469 -0.1373 -0.1180  0.0155
15984TIP3    H169443   0.125   5.569  14.383 -0.0085  1.0125 -0.2760
15984TIP3    H269444   0.086   5.592  14.527 -0.1486 -2.7676  0.3737
15985TIP3   OH269445   4.039   1.180   0.937 -0.2612 -0.6039 -0.2418
15985TIP3    H169446   4.124   1.220   0.917  0.9259 -1.8160  1.9350
15985TIP3    H269447   4.004   1.232   1.009 -0.7097 -0.8948 -0.2467
15986TIP3   OH269448   2.380   2.278  13.670 -0.0044  0.8627  0.1764
15986TIP3    H169449   2.384   2.223  13.592 -0.0866 -1.2243  1.5651
15986TIP3    H269450   2.289   2.272  13.698  0.7159 -1.4191  2.3861
15987TIP3   OH269451   3.506   5.663   2.504  0.6518  0.3940  0.5416
15987TIP3    H169452   3.469   5.730   2.562 -1.0968 -0.7738  0.8602
15987TIP3    H269453   3.588   5.637   2.546  0.9666  1.7666  0.8094
15988TIP3   OH269454   5.874   3.925  14.590 -0.2018 -0.4674 -0.5887
15988TIP3    H169455   5.791   3.940  14.544 -0.6310  1.2331  0.6540
15988TIP3    H269456   5.869   3.980  14.668  2.3830  0.1894 -0.7965
15989TIP3   OH269457   5.941   3.991   3.500 -0.3101  0.7186 -0.2642
15989TIP3    H169458   5.936   4.074   3.452  1.1424  0.8354 -0.2658
15989TIP3    H269459   5.925   3.924   3.434  2.0943  0.8562 -1.0822
15990TIP3   OH269460   5.494   5.201   0.279  0.3334  0.3438  0.1978
15990TIP3    H169461   5.507   5.107   0.291  1.6812  0.5522  0.5797
15990TIP3    H269462   5.539   5.241   0.354 -0.0732  1.2947 -0.0511
15991TIP3   OH269463   3.627   6.639  15.659  0.7364 -0.0033 -0.4551
15991TIP3    H169464   3.563   6.683  15.603  1.2636  0.0953 -0.9808
15991TIP3    H269465   3.633   6.695  15.736 -0.4972 -0.4861  0.0293
15992TIP3   OH269466   1.484   4.230  16.586  0.0871  0.5041 -0.1676
15992TIP3    H169467   1.434   4.242  16.505 -2.4023 -0.3113  1.1197
15992TIP3    H269468   1.432   4.166  16.636  1.0970  1.5741  2.3977
15993TIP3   OH269469   0.969   0.595   4.842 -0.0841 -0.3437 -0.5258
15993TIP3    H169470   1.059   0.596   4.810 -0.0293 -0.0051 -0.3585
15993TIP3    H269471   0.953   0.684   4.872 -0.6748 -0.2541 -1.1033
15994TIP3   OH269472   0.125   3.457  12.060  0.4382  0.3524 -0.0486
15994TIP3    H169473   0.204   3.403  12.066  0.7920  0.6297 -1.5859
15994TIP3    H269474   0.068   3.409  12.000 -1.0567 -0.3687  1.8461
15995TIP3   OH269475   5.000   1.936  14.531  0.2165 -0.2488 -0.1705
15995TIP3    H169476   5.052   1.997  14.479  0.9502  1.0621  1.9508
15995TIP3    H269477   5.026   1.953  14.621  0.2266 -3.5373  0.5849
15996TIP3   OH269478   6.227   5.193  16.384 -0.6209 -0.7674 -0.7687
15996TIP3    H169479   6.242   5.261  16.318  1.4039  0.9547  1.2732
15996TIP3    H269480   6.264   5.114  16.345 -1.2739 -0.2903 -2.4551
15997TIP3   OH269481   3.918   4.951  16.690 -0.1816  0.4830  0.0742
15997TIP3    H169482   3.852   4.975  16.624 -0.2384  0.8829  0.2704
15997TIP3    H269483   3.985   5.018  16.682  1.1409 -0.9146 -1.3796
15998TIP3   OH269484   5.053   5.922   1.216 -0.1136  0.1397 -1.2958
15998TIP3    H169485   5.006   5.957   1.292  0.3237 -0.2262 -0.8555
15998TIP3    H269486   5.123   5.984   1.200  1.9269 -1.4818  0.7357
15999TIP3   OH269487   1.157   3.518   3.392  0.2754 -0.1459  0.7806
15999TIP3    H169488   1.129   3.467   3.317 -0.0591  2.4572 -0.9934
15999TIP3    H269489   1.085   3.509   3.455  0.6004 -2.4213  0.9091
16000TIP3   OH269490   4.509   5.353  12.650 -0.1196  0.1171  0.3829
16000TIP3    H169491   4.556   5.348  12.733 -0.2901 -0.5753  0.4429
16000TIP3    H269492   4.550   5.426  12.604 -0.8820  1.3465  1.5877
16001TIP3   OH269493   5.416   3.464  12.937 -0.3753 -0.3259  0.5123
16001TIP3    H169494   5.428   3.469  13.032 -0.1961  0.8523  0.4425
16001TIP3    H269495   5.350   3.396  12.925 -0.3438 -0.5464  1.4721
16002TIP3   OH269496   5.021   2.122  13.824 -0.1005  0.1611 -0.2281
16002TIP3    H169497   5.098   2.134  13.768 -0.0320 -0.9420 -0.3786
16002TIP3    H269498   5.002   2.029  13.820 -2.9348  0.6948 -2.1466
16003TIP3   OH269499   3.114   4.699   1.464  0.7626 -0.0893 -0.3062
16003TIP3    H169500   3.030   4.743   1.471  1.8415  2.1055 -0.2368
16003TIP3    H269501   3.092   4.607   1.454 -1.6558  0.5057 -1.1518
16004TIP3   OH269502   5.149   1.594   4.985 -0.0410 -0.3487 -0.0237
16004TIP3    H169503   5.105   1.608   4.902 -1.4947 -0.5337  0.6734
16004TIP3    H269504   5.131   1.673   5.035  1.0512 -0.1216  0.0298
16005TIP3   OH269505   2.170   0.347   0.275  0.1670  0.2822 -0.2446
16005TIP3    H169506   2.082   0.366   0.241 -0.9649 -2.7238  0.7129
16005TIP3    H269507   2.157   0.331   0.368  1.2177 -2.7016 -0.5126
16006TIP3   OH269508   4.836   3.888  12.934  0.2637 -0.1467  0.9705
16006TIP3    H169509   4.898   3.881  12.862  0.0475  0.9076  0.6619
16006TIP3    H269510   4.844   3.805  12.981 -0.3010 -1.2812 -0.8222
16007TIP3   OH269511   1.684   1.527  15.002  0.5815 -0.1961  0.1307
16007TIP3    H169512   1.641   1.606  15.034 -1.0497 -0.3856 -1.4166
16007TIP3    H269513   1.645   1.456  15.054  1.6592 -0.0787  1.1505
16008TIP3   OH269514   0.441   2.312   2.791 -0.0667  0.6700 -0.1799
16008TIP3    H169515   0.362   2.282   2.746  0.0471  1.1808 -0.7311
16008TIP3    H269516   0.444   2.406   2.774  0.7407  0.6279 -0.2983
16009TIP3   OH269517   1.890   4.987   1.126  0.0093  0.5394 -0.4616
16009TIP3    H169518   1.796   4.967   1.134  0.0802  0.5428  0.4739
16009TIP3    H269519   1.907   4.980   1.032 -1.0853  1.2531 -0.7437
16010TIP3   OH269520   0.057   6.197  14.627 -0.3970  0.7392  0.1628
16010TIP3    H169521   0.013   6.209  14.711  0.6891  0.2656  0.8262
16010TIP3    H269522   0.058   6.285  14.588 -0.5546  1.0503  0.8383
16011TIP3   OH269523   4.147   3.441   5.424  0.3964  0.0402  0.1613
16011TIP3    H169524   4.173   3.350   5.433  2.4616  0.5880  0.3375
16011TIP3    H269525   4.158   3.478   5.512  0.1684  0.5862 -0.0326
16012TIP3   OH269526   6.088   0.706   3.466 -0.6905  0.3897  0.0586
16012TIP3    H169527   6.000   0.720   3.501 -0.2403 -1.1791  2.0068
16012TIP3    H269528   6.082   0.624   3.418 -0.2304  0.0542  0.5550
16013TIP3   OH269529   6.829   6.320   3.707  0.2758  0.1849 -0.8934
16013TIP3    H169530   6.834   6.227   3.728  0.3204 -0.6849 -4.1915
16013TIP3    H269531   6.738   6.344   3.724 -0.1397 -0.9002 -1.4748
16014TIP3   OH269532   6.836   0.804  16.833 -0.4498 -0.2970 -0.4072
16014TIP3    H169533   6.804   0.894  16.836  1.2780  0.3715 -1.2042
16014TIP3    H269534   6.833   0.780  16.741 -0.2383 -0.8157 -0.2837
16015TIP3   OH269535   4.119   1.902  14.305 -0.0108  0.1417 -0.4026
16015TIP3    H169536   4.054   1.835  14.285 -0.0940 -0.1510  0.7856
16015TIP3    H269537   4.145   1.884  14.395 -0.3626  1.9727  0.1044
16016TIP3   OH269538   3.961   4.570  12.325 -0.5022  0.1089  0.3903
16016TIP3    H169539   4.015   4.607  12.394 -1.2567 -1.9700  2.2289
16016TIP3    H269540   3.930   4.645  12.275  0.2762  1.6887  2.1776
16017TIP3   OH269541   2.505   6.262  13.327 -0.6095  0.1213  0.6687
16017TIP3    H169542   2.419   6.289  13.297  0.3687  1.2670 -1.2831
16017TIP3    H269543   2.487   6.203  13.401 -3.1894 -2.2903 -1.6405
16018TIP3   OH269544   3.584   3.128   5.870 -0.1656 -0.3579  0.4436
16018TIP3    H169545   3.569   3.046   5.917 -1.8420  0.6326  1.7544
16018TIP3    H269546   3.502   3.144   5.824 -0.0647  0.8543  0.6564
16019TIP3   OH269547   2.769   5.938   0.054 -0.3052 -0.4392 -0.5079
16019TIP3    H169548   2.820   5.962   0.131  2.7069 -0.3950 -2.3746
16019TIP3    H269549   2.728   5.855   0.078  1.5060 -1.0240  0.7755
16020TIP3   OH269550   3.176   2.081   5.684 -0.1156  0.3179 -0.0042
16020TIP3    H169551   3.143   1.991   5.683  1.8318 -0.4639  0.0354
16020TIP3    H269552   3.184   2.104   5.592 -0.6912  0.4929 -0.0141
16021TIP3   OH269553   4.162   5.765  12.944 -0.1386 -0.5572  0.0730
16021TIP3    H169554   4.098   5.762  12.873 -0.5554 -2.3135  0.4644
16021TIP3    H269555   4.245   5.742  12.902  0.1118  0.9184 -0.2837
16022TIP3   OH269556   3.063   4.358  13.568 -0.1191  0.1677 -0.1661
16022TIP3    H169557   2.985   4.305  13.585  0.5216 -0.2508  1.6007
16022TIP3    H269558   3.136   4.301  13.588  0.6855  0.5780 -1.7653
16023TIP3   OH269559   3.661   1.406   3.614  0.4486 -0.0332  0.0657
16023TIP3    H169560   3.717   1.448   3.681 -0.4893  1.7047 -0.1726
16023TIP3    H269561   3.696   1.439   3.531 -0.5658  0.6614 -0.1059
16024TIP3   OH269562   0.989   1.020  13.448  0.2211 -0.0741 -0.0353
16024TIP3    H169563   0.980   0.961  13.523  2.7040  0.7881  1.0636
16024TIP3    H269564   0.932   1.094  13.469  0.4096 -0.1345  0.7251
16025TIP3   OH269565   3.807   3.130   0.966  0.2228 -0.2480 -0.1429
16025TIP3    H169566   3.729   3.127   1.021  0.1735 -0.3765 -0.2219
16025TIP3    H269567   3.878   3.101   1.024  0.2350  0.0024 -0.0309
16026TIP3   OH269568   0.376   6.320  14.780  0.0657 -0.0856  0.2364
16026TIP3    H169569   0.437   6.272  14.836  0.5489  0.1609 -0.0678
16026TIP3    H269570   0.341   6.254  14.721  2.6657  0.2713 -1.9204
16027TIP3   OH269571   2.539   3.961   0.906  0.3965 -0.2743 -0.1186
16027TIP3    H169572   2.543   3.871   0.939  1.1509  0.2741  1.3383
16027TIP3    H269573   2.512   3.951   0.814 -0.1924 -1.9358  0.2014
16028TIP3   OH269574   6.792   6.237  12.993  0.1449  0.0776 -0.2804
16028TIP3    H169575   6.814   6.271  12.906  0.9410 -0.0298 -0.1224
16028TIP3    H269576   6.854   6.166  13.008 -0.2212 -0.1383  0.2280
16029TIP3   OH269577   5.918   4.532   1.940 -0.0208  0.6483  0.0592
16029TIP3    H169578   5.939   4.510   1.849  1.9323  1.2411  0.3205
16029TIP3    H269579   5.993   4.584   1.970 -1.6165  2.3481  1.3533
16030TIP3   OH269580   4.766   4.812  11.753 -0.3033 -0.5665 -0.3132
16030TIP3    H169581   4.805   4.832  11.668  2.8794 -0.5293  1.0387
16030TIP3    H269582   4.796   4.882  11.810  0.3975 -2.3323  1.5861
16031TIP3   OH269583   5.145   5.760  13.677  0.5175 -0.1408  0.3358
16031TIP3    H169584   5.054   5.750  13.650  0.4116  0.9114  0.2447
16031TIP3    H269585   5.165   5.680  13.726 -0.9216  0.2770  1.6725
16032TIP3   OH269586   4.148   4.560  15.320  0.6438  0.4791 -0.1162
16032TIP3    H169587   4.076   4.523  15.370 -0.7855  0.8219 -1.8011
16032TIP3    H269588   4.225   4.510  15.346  0.0453  0.8111  2.5334
16033TIP3   OH269589   2.267   1.980  11.236  0.5046 -0.2962  0.4942
16033TIP3    H169590   2.256   2.049  11.301  2.2467 -1.6061  2.2857
16033TIP3    H269591   2.195   1.919  11.252 -0.7725  0.7940 -0.7986
16034TIP3   OH269592   5.250   4.660  14.260  0.2179 -0.1204 -0.5816
16034TIP3    H169593   5.162   4.671  14.294  0.0189 -0.9669 -0.8072
16034TIP3    H269594   5.289   4.591  14.315  1.1343  1.0070  0.2473
16035TIP3   OH269595   1.387   2.487  11.078 -0.3101 -1.1736 -0.0420
16035TIP3    H169596   1.395   2.580  11.098  1.2149 -1.4405  0.7209
16035TIP3    H269597   1.334   2.484  10.998 -2.0346  0.2313  0.9617
16036TIP3   OH269598   5.490   3.058  16.369  0.2358 -0.3044  0.4752
16036TIP3    H169599   5.429   3.122  16.333 -1.8933 -1.0927  2.4330
16036TIP3    H269600   5.458   2.974  16.336  1.6175 -0.5973 -0.2020
16037TIP3   OH269601   4.253   1.925   1.599 -0.5703  0.5361  0.2642
16037TIP3    H169602   4.245   1.954   1.689  0.8042  1.4334  0.1156
16037TIP3    H269603   4.335   1.962   1.568  0.2218 -1.7472 -0.6146
16038TIP3   OH269604   3.815   5.323  13.169 -0.2195 -0.0947 -0.9006
16038TIP3    H169605   3.775   5.260  13.109  2.7428 -2.2961 -0.8252
16038TIP3    H269606   3.876   5.372  13.114  0.4825 -0.1980 -0.2388
16039TIP3   OH269607   0.478   3.239  12.170  0.5451  0.0493 -0.2165
16039TIP3    H169608   0.548   3.252  12.233  0.8770  0.4116 -0.6514
16039TIP3    H269609   0.508   3.284  12.091  0.6989 -1.4306 -1.0473
16040TIP3   OH269610   6.081   3.357  12.950  0.5475  0.3854 -0.1760
16040TIP3    H169611   6.111   3.376  13.038 -0.4510  1.1021  0.0286
16040TIP3    H269612   5.989   3.333  12.960  0.7219 -0.6618 -0.8996
16041TIP3   OH269613   5.045   6.167   5.328 -0.2546 -0.0092 -0.5117
16041TIP3    H169614   5.138   6.174   5.352 -0.2156 -0.1205 -0.6220
16041TIP3    H269615   4.998   6.171   5.411 -0.0843 -1.1048 -0.3413
16042TIP3   OH269616   4.846   3.145  11.727 -0.1173 -0.1179  0.2412
16042TIP3    H169617   4.906   3.123  11.656 -1.3193  0.5438 -1.0396
16042TIP3    H269618   4.777   3.197  11.685  0.2729  2.2503  2.2817
16043TIP3   OH269619   1.787   0.108   1.477 -0.7790  0.5578 -0.4941
16043TIP3    H169620   1.880   0.132   1.473 -0.8417  0.6638 -2.2151
16043TIP3    H269621   1.756   0.122   1.388 -1.9125 -1.6116 -0.4993
16044TIP3   OH269622   6.850   0.622  15.165  0.1577  0.7602 -0.3368
16044TIP3    H169623   6.853   0.548  15.225 -0.8190  1.4903  0.6725
16044TIP3    H269624   6.792   0.685  15.209  0.1207  1.6753 -1.6525
16045TIP3   OH269625   2.933   1.203  16.584  0.8534 -0.0638  0.4566
16045TIP3    H169626   2.950   1.171  16.495  0.7668  1.6298 -0.2107
16045TIP3    H269627   2.979   1.142  16.641 -0.0569 -1.8819 -0.6574
16046TIP3   OH269628   0.697   3.087  15.838  0.0505 -0.1298  0.5184
16046TIP3    H169629   0.726   3.022  15.775  1.6538  1.9681 -1.0385
16046TIP3    H269630   0.777   3.124  15.874 -0.8215 -0.1596  2.6416
16047TIP3   OH269631   4.699   5.750  14.372 -0.2219 -0.0482  0.1869
16047TIP3    H169632   4.780   5.705  14.398  0.4653  0.6229 -0.6957
16047TIP3    H269633   4.729   5.822  14.316 -1.4575 -0.0343 -0.4979
16048TIP3   OH269634   3.093   5.432  14.867 -0.7332 -0.1015  0.4881
16048TIP3    H169635   3.086   5.336  14.867 -0.7483 -0.1366 -1.6036
16048TIP3    H269636   3.173   5.450  14.917  1.0057 -1.4113 -1.6711
16049TIP3   OH269637   2.844   0.600   4.396  0.2559  0.9154 -0.2508
16049TIP3    H169638   2.805   0.686   4.412  0.6605  0.7687  1.8421
16049TIP3    H269639   2.773   0.548   4.360 -0.7042  1.4627  0.7772
16050TIP3   OH269640   5.951   0.834   1.755  0.2515 -0.4968 -0.0933
16050TIP3    H169641   5.958   0.756   1.701 -0.0016 -1.8853  1.7800
16050TIP3    H269642   6.042   0.859   1.773  0.3489  0.3492 -1.5961
16051TIP3   OH269643   3.741   5.261  12.148  0.1965  0.1674  0.1999
16051TIP3    H169644   3.705   5.320  12.214  0.6367  2.7288 -1.6911
16051TIP3    H269645   3.828   5.295  12.130  0.2893 -0.7609 -1.3193
16052TIP3   OH269646   3.638   3.643  12.210 -0.4962 -0.1283 -0.4300
16052TIP3    H169647   3.601   3.557  12.231 -1.7327  0.8948  1.9946
16052TIP3    H269648   3.733   3.628  12.206 -0.6045 -1.4660  0.8984
16053TIP3   OH269649   3.543   3.391  12.243  0.8010 -0.0691 -0.1018
16053TIP3    H169650   3.590   3.353  12.318  1.8676 -0.3247 -0.8729
16053TIP3    H269651   3.517   3.315  12.190  0.9026  0.1557 -0.4783
16054TIP3   OH269652   5.915   4.506  11.969  0.0632 -0.3845 -0.0226
16054TIP3    H169653   5.996   4.461  11.993  0.4623 -0.5013 -1.5017
16054TIP3    H269654   5.846   4.456  12.013  0.7706 -0.1281  1.4735
16055TIP3   OH269655   6.583   4.016   5.343  0.1112  0.9256  0.0057
16055TIP3    H169656   6.504   4.070   5.339 -0.0000  0.6997 -1.2182
16055TIP3    H269657   6.651   4.068   5.300 -0.2897 -0.3368 -2.3149
16056TIP3   OH269658   0.928   4.855   5.104  0.1028 -0.3620 -0.1434
16056TIP3    H169659   0.900   4.807   5.183  1.0647  0.8734  0.9906
16056TIP3    H269660   0.865   4.829   5.037 -2.2086  0.3443  1.6339
16057TIP3   OH269661   1.194   2.728   1.957  0.3259 -0.1127 -0.3144
16057TIP3    H169662   1.115   2.677   1.946  0.3872  0.0694 -1.8261
16057TIP3    H269663   1.198   2.783   1.879  1.2820  0.7894  0.3397
16058TIP3   OH269664   6.302   4.378   4.739 -0.4617 -0.6757  0.0871
16058TIP3    H169665   6.264   4.441   4.678 -1.4616  0.5020  1.8263
16058TIP3    H269666   6.248   4.300   4.729 -3.2166  0.7749  2.0967
16059TIP3   OH269667   3.257   1.365   5.667 -0.0764 -0.6740 -0.6109
16059TIP3    H169668   3.284   1.332   5.582  0.7490 -0.1030 -0.5782
16059TIP3    H269669   3.169   1.328   5.680 -0.8323  0.3698 -2.3355
16060TIP3   OH269670   0.595   6.192  15.172  0.0603 -0.3966  0.3169
16060TIP3    H169671   0.540   6.159  15.102 -2.5768  0.2273  1.9735
16060TIP3    H269672   0.571   6.140  15.249  1.6699  0.0252  1.1656
16061TIP3   OH269673   4.094   0.039   5.925 -0.1123 -0.1030  0.0021
16061TIP3    H169674   4.083  -0.013   5.845  1.1739 -1.7803  0.8541
16061TIP3    H269675   4.166   0.099   5.904  0.6178 -0.9358  0.0582
16062TIP3   OH269676   2.277   6.325  12.919  0.0646 -0.3736  0.3638
16062TIP3    H169677   2.220   6.354  12.848  0.0308  1.8085  1.2019
16062TIP3    H269678   2.363   6.315  12.877 -0.0918  0.2559 -0.1298
16063TIP3   OH269679   1.043   5.636   3.375 -0.1152 -0.0262 -0.5414
16063TIP3    H169680   1.076   5.593   3.296  0.1341 -1.4402  0.3015
16063TIP3    H269681   1.038   5.567   3.440 -0.4543  1.0808  0.6598
16064TIP3   OH269682   6.684   0.628  10.618 -0.6743  0.0097  0.1943
16064TIP3    H169683   6.747   0.632  10.546  0.2979  1.7029  1.0706
16064TIP3    H269684   6.692   0.539  10.652  1.4197  0.2174  0.3858
16065TIP3   OH269685   0.308   3.158  11.680  0.0457 -0.3349  0.0336
16065TIP3    H169686   0.299   3.063  11.686 -2.5042 -0.2748 -1.3325
16065TIP3    H269687   0.307   3.177  11.586  2.4932  0.9669  0.1963
16066TIP3   OH269688   5.140   6.230  10.380  0.2172  0.0234  0.1530
16066TIP3    H169689   5.110   6.317  10.356 -2.7409 -0.3887  1.8648
16066TIP3    H269690   5.127   6.225  10.474  2.9932 -1.3823  0.5662
16067TIP3   OH269691   4.206   3.659   0.599 -0.5374 -0.1217 -0.0217
16067TIP3    H169692   4.125   3.634   0.641 -0.3580  0.1301  0.4808
16067TIP3    H269693   4.200   3.754   0.590  0.1435  0.0328  0.9782
16068TIP3   OH269694   4.086   3.507  13.634  0.6722  0.0104 -0.2593
16068TIP3    H169695   4.169   3.529  13.591  0.0328 -0.1659 -1.6330
16068TIP3    H269696   4.103   3.425  13.679  1.2393 -0.0535 -0.5827
16069TIP3   OH269697   4.750   5.324   5.722 -0.0027  0.6679 -0.1244
16069TIP3    H169698   4.696   5.324   5.801  0.8520  1.1463  0.4788
16069TIP3    H269699   4.835   5.359   5.750  1.0935 -1.3189 -0.7148
16070TIP3   OH269700   0.618   1.832   5.137  0.0312 -0.1636 -0.3859
16070TIP3    H169701   0.612   1.916   5.091  0.6512 -0.0084 -0.1871
16070TIP3    H269702   0.528   1.798   5.135 -0.7812  1.6137  1.5981
16071TIP3   OH269703   2.054   1.450   4.753  0.1851 -0.0065  0.6471
16071TIP3    H169704   1.992   1.523   4.758 -0.1411 -0.0775 -1.5431
16071TIP3    H269705   2.004   1.378   4.715  1.4047 -0.2485 -0.6004
16072TIP3   OH269706   5.480   4.606  17.047  0.3459 -0.1333  0.1975
16072TIP3    H169707   5.453   4.621  16.957 -1.2598 -0.7093  0.5599
16072TIP3    H269708   5.573   4.584  17.040 -0.0786 -1.6473 -1.4748
16073TIP3   OH269709   4.552   0.113  16.428 -1.0645 -0.2963  0.6783
16073TIP3    H169710   4.568   0.081  16.339  0.4508  0.4223  0.6628
16073TIP3    H269711   4.598   0.051  16.485  1.1183  1.2406  0.6986
16074TIP3   OH269712   1.460   1.435   0.926  0.0475 -0.0263 -0.2899
16074TIP3    H169713   1.414   1.377   0.986  3.0970 -1.3539  0.9844
16074TIP3    H269714   1.456   1.521   0.967 -1.6972  0.0293 -0.5225
16075TIP3   OH269715   5.806   5.067   4.434 -0.0529  0.3213  0.9505
16075TIP3    H169716   5.805   4.984   4.387  0.1323  1.4924 -1.2607
16075TIP3    H269717   5.769   5.047   4.520 -0.5940 -1.8996  0.2521
16076TIP3   OH269718   3.024   1.809  15.115 -0.1621 -0.2177  0.8294
16076TIP3    H169719   3.099   1.866  15.130  0.3047 -0.5959 -0.0114
16076TIP3    H269720   3.008   1.767  15.200  2.2618 -2.1251  0.4549
16077TIP3   OH269721   4.282   2.496   5.368 -0.3863  0.2892 -0.2156
16077TIP3    H169722   4.258   2.438   5.440  0.5477  1.0510  0.7396
16077TIP3    H269723   4.336   2.564   5.409 -0.9588  1.4982 -1.4045
16078TIP3   OH269724   4.812   5.162  12.684  0.4288 -0.1874 -0.2743
16078TIP3    H169725   4.901   5.131  12.703  0.5702  0.8683  0.9356
16078TIP3    H269726   4.761   5.137  12.760  0.1293  0.8860 -0.1151
16079TIP3   OH269727   1.559   3.025  14.535 -0.3261 -0.1915 -0.1410
16079TIP3    H169728   1.576   3.070  14.618 -2.7795 -1.8282  1.4236
16079TIP3    H269729   1.523   3.093  14.478 -3.7141  0.1241  2.0603
16080TIP3   OH269730   2.222   1.784   3.329  0.4217 -0.7362 -0.1104
16080TIP3    H169731   2.245   1.857   3.386 -1.6602 -0.4346  0.4379
16080TIP3    H269732   2.189   1.825   3.249  1.0544 -1.1216 -0.5793
16081TIP3   OH269733   4.850   5.079  12.159  0.2797  0.3907  0.2060
16081TIP3    H169734   4.911   5.152  12.167  0.3040  0.2733  1.3730
16081TIP3    H269735   4.813   5.070  12.247 -0.6414 -0.2099 -0.2304
16082TIP3   OH269736   3.706   3.461   1.146  0.2720 -0.0627 -0.1759
16082TIP3    H169737   3.653   3.390   1.180  1.8831 -0.8623  0.7757
16082TIP3    H269738   3.734   3.432   1.059  1.3406 -0.8370  0.4152
16083TIP3   OH269739   3.248   5.055   3.268 -0.4526 -0.1466  0.3126
16083TIP3    H169740   3.236   5.028   3.177 -0.2261  1.0225 -0.0843
16083TIP3    H269741   3.316   5.123   3.264 -0.0471 -0.4639  1.4254
16084TIP3   OH269742   0.106   5.987  11.573 -0.0276 -0.2547 -0.7438
16084TIP3    H169743   0.052   5.919  11.613  0.1044  0.2964  0.4252
16084TIP3    H269744   0.125   5.954  11.486 -0.5610 -1.3854 -0.4575
16085TIP3   OH269745   1.645   3.209  14.735  0.1103 -0.3324 -0.4275
16085TIP3    H169746   1.578   3.222  14.802 -0.4539 -0.7289 -0.9067
16085TIP3    H269747   1.677   3.297  14.715 -0.9901 -0.0335 -0.9345
16086TIP3   OH269748   6.360   5.994  12.639 -0.0506  0.4331  0.2110
16086TIP3    H169749   6.341   5.982  12.732  1.2168  1.2105  0.6100
16086TIP3    H269750   6.292   5.945  12.594 -1.3120  0.8777  1.5286
16087TIP3   OH269751   4.132   1.730   4.949 -0.2936 -0.1725  0.7659
16087TIP3    H169752   4.211   1.714   4.898  0.2265  0.7596  1.2549
16087TIP3    H269753   4.078   1.785   4.892 -0.0545  0.2155  0.9144
16088TIP3   OH269754   6.791   5.380   4.359 -0.0784  0.3840 -0.6089
16088TIP3    H169755   6.713   5.330   4.335  0.1951  0.0464 -0.8094
16088TIP3    H269756   6.758   5.459   4.400 -0.5292  0.3382 -0.8849
16089TIP3   OH269757   4.257   3.200   0.370  0.0184 -0.0825  0.1345
16089TIP3    H169758   4.214   3.155   0.297  0.8593 -1.4368  0.4248
16089TIP3    H269759   4.189   3.255   0.408 -0.4339  0.6454 -1.6526
16090TIP3   OH269760   5.431   3.417   2.759 -0.7331 -0.7839 -1.1626
16090TIP3    H169761   5.454   3.378   2.843  0.9304  2.0700 -0.1326
16090TIP3    H269762   5.481   3.368   2.695 -0.5092 -1.7701 -0.2582
16091TIP3   OH269763   6.636   6.023  12.310  0.2223 -0.0159 -0.0374
16091TIP3    H169764   6.657   5.964  12.383 -1.6154 -0.3852  0.2354
16091TIP3    H269765   6.569   6.082  12.346 -0.4147  0.0529 -1.3067
16092TIP3   OH269766   3.439   4.354   0.792 -0.3034  0.5676 -0.0454
16092TIP3    H169767   3.505   4.287   0.807 -1.0983 -0.6369 -1.6543
16092TIP3    H269768   3.411   4.381   0.879  0.9654 -0.2505  0.6292
16093TIP3   OH269769   3.664   0.701   2.583 -0.6003  0.2534  0.2644
16093TIP3    H169770   3.586   0.646   2.577 -0.5325  0.0867  0.8846
16093TIP3    H269771   3.724   0.664   2.518 -0.4960 -0.5011  0.7795
16094TIP3   OH269772   1.948   0.924  10.237 -0.1789 -0.0050 -0.2377
16094TIP3    H169773   1.853   0.929  10.228 -0.1579  0.3466 -0.2745
16094TIP3    H269774   1.964   0.842  10.283 -0.4786 -0.2510 -0.5666
16095TIP3   OH269775   4.129   4.292  15.676 -0.0638 -0.0561  0.2221
16095TIP3    H169776   4.113   4.351  15.602 -2.9289 -1.0464 -0.0764
16095TIP3    H269777   4.209   4.246  15.652 -0.4727  0.2222 -1.9382
16096TIP3   OH269778   0.191   5.439  12.804  0.0523  0.4299  0.5863
16096TIP3    H169779   0.263   5.461  12.744 -0.4060 -0.1117 -0.1812
16096TIP3    H269780   0.221   5.359  12.848 -0.4990 -0.4187 -0.5158
16097TIP3   OH269781   2.118   0.442   5.182  0.4410 -0.4354 -0.0671
16097TIP3    H169782   2.028   0.450   5.151 -0.8171  0.3074  3.3515
16097TIP3    H269783   2.130   0.347   5.194  0.0469 -0.5264 -0.3582
16098TIP3   OH269784   6.007   0.522   4.466 -0.4741 -0.3162 -0.3992
16098TIP3    H169785   5.975   0.513   4.376 -0.2966  0.3828 -0.5414
16098TIP3    H269786   6.092   0.563   4.457 -1.3838  1.8379  0.1690
16099TIP3   OH269787   2.374   6.827  13.543 -0.0791  0.2180  1.0136
16099TIP3    H169788   2.414   6.785  13.467 -3.7528  0.2993 -1.1939
16099TIP3    H269789   2.369   6.919  13.520  4.3866  1.6117  4.2118
16100TIP3   OH269790   6.632   6.298   2.269 -0.6906  0.1719  0.6050
16100TIP3    H169791   6.542   6.285   2.299 -0.5214 -0.8199  0.7142
16100TIP3    H269792   6.651   6.389   2.290 -1.2857  0.0784  1.6161
16101TIP3   OH269793   1.324   1.420   1.416  0.4830  0.5307  0.0134
16101TIP3    H169794   1.310   1.483   1.487 -2.2351  2.0856 -1.7640
16101TIP3    H269795   1.263   1.348   1.434  2.0884 -0.7036  0.8851
16102TIP3   OH269796   2.856   4.433   0.236  0.4920 -0.1354  0.8971
16102TIP3    H169797   2.767   4.463   0.221  0.6374 -0.3630 -0.6006
16102TIP3    H269798   2.887   4.484   0.311 -0.4187  0.9402  0.5561
16103TIP3   OH269799   3.876   4.259   6.332 -0.4109 -0.3475 -0.2697
16103TIP3    H169800   3.910   4.229   6.416  0.2774 -0.0633 -0.4371
16103TIP3    H269801   3.818   4.332   6.354  0.7519  0.5614 -0.1161
16104TIP3   OH269802   3.612   2.081  12.363  0.2999 -0.0470 -0.2685
16104TIP3    H169803   3.708   2.079  12.368  0.2356 -0.2130  1.8705
16104TIP3    H269804   3.593   2.122  12.279  2.2334 -1.2659 -1.3764
16105TIP3   OH269805   3.646   0.359  15.121 -0.1179 -0.1490 -0.2386
16105TIP3    H169806   3.593   0.424  15.166  0.3467 -0.7117  1.1814
16105TIP3    H269807   3.642   0.282  15.178  2.4354 -0.1231  0.0910
16106TIP3   OH269808   5.542   5.502  11.968 -0.2142  0.1051 -0.2452
16106TIP3    H169809   5.451   5.503  12.000  0.4238  0.1803  1.6795
16106TIP3    H269810   5.569   5.410  11.976  0.6374  0.4763  1.5740
16107TIP3   OH269811   5.774   2.260   5.328  0.2043  0.3950  0.2007
16107TIP3    H169812   5.821   2.271   5.245 -0.0719 -1.0354 -0.1608
16107TIP3    H269813   5.834   2.295   5.394  1.7912 -1.3253 -0.2555
16108TIP3   OH269814   1.347   0.882   3.237 -0.3029 -0.2158  0.4709
16108TIP3    H169815   1.264   0.874   3.285  0.2399  0.1778  1.5197
16108TIP3    H269816   1.368   0.975   3.241 -0.4119 -0.1160 -0.8634
16109TIP3   OH269817   4.229   5.741   6.477  0.2832 -0.1489 -0.0172
16109TIP3    H169818   4.218   5.655   6.517  1.3005  0.4675  1.6953
16109TIP3    H269819   4.148   5.788   6.497  0.6555  0.0436  1.1110
16110TIP3   OH269820   2.574   1.301  11.693  0.5991 -0.4114  0.3335
16110TIP3    H169821   2.619   1.383  11.674  0.8014 -0.2724  1.3471
16110TIP3    H269822   2.490   1.308  11.647  1.0997 -0.1614 -0.5750
16111TIP3   OH269823   1.871   6.323  14.137  0.0385 -0.0034 -0.4880
16111TIP3    H169824   1.843   6.331  14.046  0.8767  1.0537 -0.6765
16111TIP3    H269825   1.936   6.392  14.148  0.0549 -0.2069  0.8778
16112TIP3   OH269826   5.137   5.102  15.421  0.4155  0.0593 -0.5961
16112TIP3    H169827   5.162   5.163  15.491  0.0628 -0.7976  0.2917
16112TIP3    H269828   5.167   5.145  15.340  0.2442  1.3719  0.0132
16113TIP3   OH269829   0.953   3.724  12.368 -0.0957  0.1459  0.0737
16113TIP3    H169830   0.901   3.683  12.437 -1.4997 -1.0719 -1.6320
16113TIP3    H269831   1.035   3.673  12.367  0.0144  0.2889  0.9247
16114TIP3   OH269832   2.004   0.245  15.932 -0.3488  0.2616  0.2856
16114TIP3    H169833   1.950   0.282  15.862  0.6922 -1.0537 -1.3077
16114TIP3    H269834   2.058   0.318  15.962  0.7095  0.4213 -1.8314
16115TIP3   OH269835   0.378   6.628   1.074  0.0648 -0.0058  0.1915
16115TIP3    H169836   0.295   6.675   1.073  0.5395  0.8791  1.2714
16115TIP3    H269837   0.424   6.659   0.996 -0.2472  0.1669  0.0754
16116TIP3   OH269838   1.055   0.084   1.296  0.8641  0.2383 -0.4122
16116TIP3    H169839   1.071   0.167   1.341 -2.7933  0.1377  1.4622
16116TIP3    H269840   0.981   0.101   1.238  1.1531 -1.3313 -1.3045
16117TIP3   OH269841   4.225   6.375  14.890  1.1757  0.2662 -0.0439
16117TIP3    H169842   4.236   6.298  14.833  0.4028 -0.6959  1.0653
16117TIP3    H269843   4.169   6.344  14.961  2.2989  1.3781  1.3697
16118TIP3   OH269844   0.985   1.856  13.619  0.3480  0.0408 -0.0416
16118TIP3    H169845   0.910   1.799  13.608  0.4194 -0.3968  1.5418
16118TIP3    H269846   0.949   1.945  13.614 -0.4925 -0.1593  1.8463
16119TIP3   OH269847   5.715   1.324  12.068  0.5045  0.1295 -0.4330
16119TIP3    H169848   5.810   1.333  12.060  0.3278  0.4634 -3.0735
16119TIP3    H269849   5.683   1.414  12.071  0.1703  0.1182 -2.3005
16120TIP3   OH269850   5.399   1.960   5.271 -0.4754 -0.1927  0.4504
16120TIP3    H169851   5.366   1.926   5.355  0.0769  1.1239  1.2331
16120TIP3    H269852   5.435   2.046   5.293  0.7196 -0.3114 -0.9443
16121TIP3   OH269853   2.126   1.459  12.359 -0.4506 -0.6436 -0.1629
16121TIP3    H169854   2.183   1.530  12.387 -0.9226 -0.4898  0.4241
16121TIP3    H269855   2.131   1.461  12.263  0.4476 -0.5758 -0.1262
16122TIP3   OH269856   4.866   4.540  10.638 -0.0594 -0.6384  0.3593
16122TIP3    H169857   4.779   4.553  10.599  1.2410  0.7356 -2.3213
16122TIP3    H269858   4.855   4.464  10.695 -2.3044 -2.4841 -2.2876
16123TIP3   OH269859   0.915   6.690   0.107 -0.5543 -0.0638 -0.8445
16123TIP3    H169860   0.849   6.650   0.163 -0.1416 -0.1211 -0.3892
16123TIP3    H269861   0.874   6.769   0.072 -1.6396 -1.2261 -2.3312
16124TIP3   OH269862   4.871   3.723  10.331  0.3220  0.0688  0.0007
16124TIP3    H169863   4.931   3.735  10.405  1.4149 -1.6312 -0.5668
16124TIP3    H269864   4.842   3.633  10.338  1.0271 -0.3677 -2.0317
16125TIP3   OH269865   4.974   0.725  15.119 -0.1487 -0.4569  0.0704
16125TIP3    H169866   4.936   0.670  15.188 -0.8151 -0.2956 -0.1663
16125TIP3    H269867   5.068   0.723  15.137 -0.3715  0.1897  1.4340
16126TIP3   OH269868   1.026   4.285   0.156 -0.6569 -0.5301  0.0298
16126TIP3    H169869   1.038   4.194   0.130  0.2425 -0.9088  1.6040
16126TIP3    H269870   0.941   4.287   0.199  0.7507 -1.4908  3.1291
16127TIP3   OH269871   5.923   2.337  16.409  0.7178 -0.7260 -0.9444
16127TIP3    H169872   5.933   2.426  16.375  1.4477 -0.6084 -0.4614
16127TIP3    H269873   5.828   2.324  16.415  0.4779  1.2413  1.9737
16128TIP3   OH269874   3.095   2.154  10.529 -0.6324  0.6347 -0.2048
16128TIP3    H169875   3.017   2.208  10.545 -0.4200  1.9541 -2.9914
16128TIP3    H269876   3.129   2.185  10.445  2.1820 -0.7876  0.2692
16129TIP3   OH269877   6.221   1.278   4.482 -0.6496  0.0069 -1.2308
16129TIP3    H169878   6.169   1.255   4.559 -3.1882 -0.1816 -2.8763
16129TIP3    H269879   6.181   1.359   4.450  0.8077  0.4605 -2.0008
16130TIP3   OH269880   4.598   5.013  16.746 -0.1765 -0.4012 -0.3056
16130TIP3    H169881   4.534   4.979  16.683 -0.9930  1.7049 -0.7055
16130TIP3    H269882   4.667   5.051  16.691  0.0852 -0.2937  0.0969
16131TIP3   OH269883   1.581   6.477  15.507 -1.1052 -0.5969  0.3125
16131TIP3    H169884   1.634   6.411  15.551 -0.3518 -1.0577 -1.2157
16131TIP3    H269885   1.543   6.431  15.432 -1.5795  0.3972 -0.0751
16132TIP3   OH269886   4.932   4.580   0.232 -0.1539 -0.4931  0.2350
16132TIP3    H169887   4.883   4.533   0.164  0.3867 -2.2375  0.9887
16132TIP3    H269888   4.877   4.655   0.253 -1.9807 -1.7704  0.2549
16133TIP3   OH269889   0.148   2.487   1.329  0.2157 -0.8700  0.0832
16133TIP3    H169890   0.137   2.474   1.423 -0.8031  1.7198  0.4237
16133TIP3    H269891   0.147   2.582   1.318  0.9206 -1.0802 -2.4990
16134TIP3   OH269892   3.733   0.840   1.483  0.1560 -0.5949 -0.2087
16134TIP3    H169893   3.693   0.905   1.426  1.0734 -0.0993 -0.2912
16134TIP3    H269894   3.658   0.793   1.521 -0.6399  1.6993  1.3045
16135TIP3   OH269895   3.747   2.009  15.281 -0.2221  0.2160 -0.1396
16135TIP3    H169896   3.722   1.937  15.339  0.8479  0.1456  0.2468
16135TIP3    H269897   3.838   1.992  15.258  0.1867  1.6361  0.2908
16136TIP3   OH269898   1.424   4.061  12.867 -0.6633 -0.0214  0.1699
16136TIP3    H169899   1.378   4.073  12.950  0.4343  1.8410  0.5766
16136TIP3    H269900   1.372   4.111  12.804 -0.1052  0.7542  0.3061
16137TIP3   OH269901   1.232   2.681  14.254  0.5766  0.0982  0.1716
16137TIP3    H169902   1.159   2.742  14.264  0.2401 -0.3826  0.7432
16137TIP3    H269903   1.285   2.694  14.333  0.4158 -0.4528  0.3748
16138TIP3   OH269904   1.238   5.398  10.677 -0.6649 -0.4979 -0.2294
16138TIP3    H169905   1.327   5.414  10.645  0.5654 -2.4625  1.8947
16138TIP3    H269906   1.208   5.321  10.628  0.2895 -2.0374  1.4763
16139TIP3   OH269907   5.602   5.800  12.583  0.1291  0.3832 -0.2307
16139TIP3    H169908   5.563   5.886  12.565  0.7871  0.2380 -2.6325
16139TIP3    H269909   5.527   5.743  12.598 -0.5348  0.6575 -2.2254
16140TIP3   OH269910   1.370   4.994  13.537  0.6135 -0.0162 -0.1901
16140TIP3    H169911   1.434   5.008  13.467  0.1379 -0.8563 -0.8022
16140TIP3    H269912   1.396   4.911  13.577 -0.7155 -0.9289 -1.1507
16141TIP3   OH269913   1.364   3.099  16.705 -0.4771  0.5906 -0.2412
16141TIP3    H169914   1.293   3.116  16.768  0.5185 -1.4365  1.5942
16141TIP3    H269915   1.444   3.113  16.756  0.3688 -2.8011 -0.4098
16142TIP3   OH269916   2.342   1.773   5.012 -0.1386 -0.0526 -0.3518
16142TIP3    H169917   2.408   1.757   5.080  0.3430 -0.2413 -0.8571
16142TIP3    H269918   2.393   1.798   4.935 -0.7081  0.8089 -0.4660
16143TIP3   OH269919   1.382   4.908  13.824 -0.2262 -0.1261 -0.5391
16143TIP3    H169920   1.351   4.885  13.911 -2.2117  0.0171 -1.1655
16143TIP3    H269921   1.351   4.837  13.768 -1.6840  1.2746 -1.5994
16144TIP3   OH269922   5.700   5.064   6.240 -0.3157 -0.2640  0.2448
16144TIP3    H169923   5.680   4.982   6.284 -0.9861 -1.7166 -2.5572
16144TIP3    H269924   5.794   5.058   6.220  0.3875  1.1236  2.7123
16145TIP3   OH269925   2.998   2.315  14.726  0.4779  0.9000  0.4928
16145TIP3    H169926   2.984   2.395  14.676 -0.0174  1.0841  0.9133
16145TIP3    H269927   3.041   2.256  14.665  0.7872  1.4630  0.1560
16146TIP3   OH269928   3.016   6.805   0.579  0.2525  0.1671  0.1475
16146TIP3    H169929   3.086   6.740   0.571  1.9389  1.9275 -0.1879
16146TIP3    H269930   2.949   6.776   0.517  1.1252 -1.0400 -0.2646
16147TIP3   OH269931   6.730   4.245   4.070 -0.0662 -0.1095  0.2699
16147TIP3    H169932   6.685   4.268   3.989 -1.7868 -1.8493  0.6618
16147TIP3    H269933   6.807   4.196   4.042 -0.7658 -0.8856 -0.3435
16148TIP3   OH269934   2.375   3.672   1.291  0.1264  0.3425  0.2586
16148TIP3    H169935   2.288   3.691   1.324 -0.1046  0.2644 -0.2911
16148TIP3    H269936   2.414   3.758   1.275  0.6861  0.4184  1.8263
16149TIP3   OH269937   2.431   5.329  16.084  0.5375  0.4940  0.1840
16149TIP3    H169938   2.403   5.420  16.073  1.0307  0.8015  1.3513
16149TIP3    H269939   2.375   5.296  16.154 -0.3098 -0.4256 -0.8736
16150TIP3   OH269940   5.478   4.353  15.943 -0.0928 -0.1812 -0.1302
16150TIP3    H169941   5.412   4.393  16.000  0.0256  0.5421 -0.4869
16150TIP3    H269942   5.549   4.418  15.940  0.7333 -1.0286  0.4118
16151TIP3   OH269943   0.516   3.536   3.649  0.3949 -0.0254 -0.3632
16151TIP3    H169944   0.584   3.597   3.621 -0.0218  0.4213 -0.4161
16151TIP3    H269945   0.563   3.467   3.696  1.1330 -0.8866 -2.2635
16152TIP3   OH269946   0.378   2.765   5.933  0.0398 -0.2407  0.0182
16152TIP3    H169947   0.384   2.708   6.009  0.5354 -0.8839 -0.4846
16152TIP3    H269948   0.403   2.709   5.859  2.3969  1.0903 -0.2856
16153TIP3   OH269949   5.700   5.829  11.274 -0.0227 -0.1047  0.4647
16153TIP3    H169950   5.777   5.780  11.304  0.0659 -0.0401  0.3395
16153TIP3    H269951   5.734   5.894  11.213 -0.2159 -0.3099  0.1313
16154TIP3   OH269952   2.085   4.260  16.731  0.2478 -0.1902  0.2703
16154TIP3    H169953   2.002   4.244  16.686  0.1011  1.7543 -0.2042
16154TIP3    H269954   2.062   4.312  16.807  0.9068 -0.6767  0.8128
16155TIP3   OH269955   4.397   0.972   0.141 -0.1086  0.0767 -0.1954
16155TIP3    H169956   4.411   1.034   0.070  1.0742  0.5682  0.4296
16155TIP3    H269957   4.400   0.886   0.099  0.2568  0.3727 -0.7868
16156TIP3   OH269958   4.378   4.020   4.702 -0.4921 -0.3699  0.1544
16156TIP3    H169959   4.288   3.989   4.706 -0.8558  0.7305  1.0866
16156TIP3    H269960   4.384   4.068   4.620 -0.0461 -2.4173 -1.0918
16157TIP3   OH269961   1.781   1.404   0.961 -0.2416 -0.3044 -0.1247
16157TIP3    H169962   1.771   1.419   0.867 -1.0578  1.3933  0.2092
16157TIP3    H269963   1.778   1.309   0.970  0.7484 -0.5488 -1.9031
16158TIP3   OH269964   3.939   5.944  14.457 -0.6439  0.3060  0.0428
16158TIP3    H169965   3.974   5.987  14.535 -0.5868 -0.9544  0.7409
16158TIP3    H269966   4.009   5.884  14.430 -0.7181  0.6293 -0.9096
16159TIP3   OH269967   3.032   3.953  10.963 -0.3980 -0.5224 -0.0917
16159TIP3    H169968   3.060   3.880  10.909  1.1362  1.2649 -1.8673
16159TIP3    H269969   2.965   3.998  10.911 -0.0974  0.2978  0.2093
16160TIP3   OH269970   5.147   1.806  17.051 -0.3324 -0.6037 -0.2683
16160TIP3    H169971   5.153   1.785  16.958 -0.0321 -0.0875 -0.3666
16160TIP3    H269972   5.054   1.797  17.072 -0.2779 -1.5694 -0.4166
16161TIP3   OH269973   3.949   6.237  13.445  0.2456  0.0110  0.0077
16161TIP3    H169974   3.908   6.277  13.368  0.8995  1.7126  0.4827
16161TIP3    H269975   3.879   6.185  13.485 -0.9256  1.3081 -0.2479
16162TIP3   OH269976   4.431   1.159   4.066  0.1764  0.1175  0.0043
16162TIP3    H169977   4.486   1.237   4.076 -1.9522  1.5835  1.2350
16162TIP3    H269978   4.346   1.186   4.101 -1.2281 -2.1448 -1.4261
16163TIP3   OH269979   2.686   6.170  16.472 -0.0930 -0.0772  0.8597
16163TIP3    H169980   2.612   6.120  16.438  1.0515 -1.9032  0.9068
16163TIP3    H269981   2.700   6.239  16.407 -1.3514 -0.1604  0.4761
16164TIP3   OH269982   6.621   0.828  12.013  0.0673 -0.0598  0.3982
16164TIP3    H169983   6.649   0.762  11.950  1.3007  1.0143 -0.2200
16164TIP3    H269984   6.689   0.828  12.081 -0.5582 -0.2694  1.0405
16165TIP3   OH269985   5.656   6.315  13.499  0.3961  0.4694  0.1151
16165TIP3    H169986   5.621   6.325  13.587  0.3317  1.0557  0.0295
16165TIP3    H269987   5.748   6.295  13.511  0.2008 -0.3174  0.3298
16166TIP3   OH269988   3.630   3.948  11.438  0.2261 -0.5270  0.3740
16166TIP3    H169989   3.583   3.908  11.365 -1.6450  2.5934 -0.3305
16166TIP3    H269990   3.567   3.947  11.510  0.9569 -0.8524  1.0151
16167TIP3   OH269991   4.612   0.938   4.074 -0.4252  0.0582  0.1989
16167TIP3    H169992   4.547   0.992   4.029 -0.7263  0.4150  1.0447
16167TIP3    H269993   4.564   0.861   4.104 -0.0538 -0.5781 -0.7611
16168TIP3   OH269994   0.559   5.152  16.185  0.3021 -0.5489  0.2019
16168TIP3    H169995   0.500   5.196  16.124  0.9075 -0.0573 -0.0500
16168TIP3    H269996   0.645   5.192  16.168  0.8767 -1.8309 -0.0371
16169TIP3   OH269997   3.832   0.443  15.759 -0.5365 -0.1552  0.7044
16169TIP3    H169998   3.793   0.420  15.675  1.3065 -1.4025  0.1383
16169TIP3    H269999   3.868   0.531  15.746 -1.6129  0.3023  0.7099
16170TIP3   OH270000   4.878   4.092  10.802 -0.4021  0.0697  0.0773
16170TIP3    H170001   4.866   4.014  10.748 -0.2791  0.8071 -1.0385
16170TIP3    H270002   4.972   4.106  10.804 -0.1994 -1.1291  2.2414
16171TIP3   OH270003   3.351   1.581   6.569  0.0375  0.4569 -0.1255
16171TIP3    H170004   3.336   1.487   6.577 -1.8370  0.8254  1.2997
16171TIP3    H270005   3.265   1.618   6.551  0.7511  1.9111 -0.6993
16172TIP3   OH270006   6.721   0.534   0.684  0.1691  0.1951  0.3264
16172TIP3    H170007   6.756   0.602   0.742 -0.5572  0.6522  0.2408
16172TIP3    H270008   6.628   0.531   0.705  0.3738 -1.6008  1.1651
16173TIP3   OH270009   0.235   3.933   3.585 -0.0180 -0.1249 -0.0640
16173TIP3    H170010   0.206   3.877   3.657  1.3322  0.7703  1.2356
16173TIP3    H270011   0.224   4.022   3.618  1.6086  0.2845 -0.5318
16174TIP3   OH270012   3.670   6.127   3.347 -0.0255  0.4004  0.0775
16174TIP3    H170013   3.575   6.135   3.336 -0.2479  0.3505  1.7508
16174TIP3    H270014   3.697   6.068   3.276 -1.4353 -0.6172  0.3313
16175TIP3   OH270015   3.360   6.595  13.165 -1.0146  0.4767 -0.6094
16175TIP3    H170016   3.381   6.673  13.114 -2.0405  2.3221  1.6599
16175TIP3    H270017   3.296   6.547  13.110 -2.3034  2.5255 -1.0018
16176TIP3   OH270018   0.120   3.513  13.538  0.4390  0.2626  0.3330
16176TIP3    H170019   0.055   3.445  13.519  1.0157 -0.7544  1.8373
16176TIP3    H270020   0.182   3.508  13.466 -1.6699  2.0152 -1.7623
16177TIP3   OH270021   4.456   2.774   1.168  0.2230  0.3318 -0.3570
16177TIP3    H170022   4.523   2.707   1.182  1.0614  0.8157 -1.8408
16177TIP3    H270023   4.506   2.856   1.158 -0.5444  0.6740 -1.6831
16178TIP3   OH270024   6.560   5.534   4.703 -0.3611  0.0956 -0.2383
16178TIP3    H170025   6.471   5.568   4.717 -0.0652  0.4704  0.9277
16178TIP3    H270026   6.548   5.440   4.690 -0.7144 -0.8504  4.7020
16179TIP3   OH270027   3.508   1.041  16.015 -0.5340  0.1357  0.0412
16179TIP3    H170028   3.499   1.031  15.921  0.4573 -2.5691  0.1525
16179TIP3    H270029   3.596   1.011  16.035 -0.8253  0.3674  1.8800
16180TIP3   OH270030   2.720   5.590  14.918 -0.0770 -0.1347 -1.0583
16180TIP3    H170031   2.776   5.637  14.980  0.5078 -1.0872 -0.8392
16180TIP3    H270032   2.631   5.613  14.944  0.1665 -0.4218  0.0783
16181TIP3   OH270033   5.528   0.265  11.572 -0.0258  0.2463  0.5222
16181TIP3    H170034   5.573   0.222  11.499 -0.6809 -0.7718  0.6927
16181TIP3    H270035   5.562   0.222  11.650 -1.7566 -1.0665  0.6174
16182TIP3   OH270036   3.072   2.758   5.642 -0.0880 -0.3243 -0.3326
16182TIP3    H170037   3.102   2.699   5.573  2.6714  1.7194 -1.0468
16182TIP3    H270038   3.140   2.753   5.709 -0.6837  0.7179  0.3695
16183TIP3   OH270039   4.695   5.724  16.433  0.2154  0.3604  0.4035
16183TIP3    H170040   4.643   5.767  16.501 -0.6576  1.1453 -0.7120
16183TIP3    H270041   4.646   5.645  16.410  1.0487 -0.4720  1.3936
16184TIP3   OH270042   2.291   0.780  12.621 -0.9097 -0.8441 -0.6273
16184TIP3    H170043   2.384   0.770  12.643  0.1226  4.4193 -1.3160
16184TIP3    H270044   2.253   0.822  12.698 -1.5614  0.9794 -1.8713
16185TIP3   OH270045   6.622   0.674  10.286  0.4756 -0.5722  0.6541
16185TIP3    H170046   6.717   0.668  10.291  1.0742  2.3887 -2.7224
16185TIP3    H270047   6.597   0.609  10.221  0.3532 -0.5770  0.7052
16186TIP3   OH270048   4.947   0.966  16.895 -0.3056 -0.0263 -0.2942
16186TIP3    H170049   4.860   0.960  16.935 -0.1653  0.1873  0.0505
16186TIP3    H270050   4.938   1.034  16.828 -0.2924  0.3150  0.0467
16187TIP3   OH270051   0.307   6.706  17.139  0.4571 -0.0893 -0.0777
16187TIP3    H170052   0.391   6.661  17.148  0.0549 -0.7500  0.4932
16187TIP3    H270053   0.323   6.773  17.073  0.9931 -1.2681 -1.1889
16188TIP3   OH270054   0.497   3.717   6.293 -0.9005  0.4940  0.4583
16188TIP3    H170055   0.518   3.629   6.324 -1.0535 -0.1149 -1.0614
16188TIP3    H270056   0.558   3.774   6.339 -0.1950 -0.5078  0.8051
16189TIP3   OH270057   1.512   0.315  16.252 -0.0118 -0.1549 -0.0680
16189TIP3    H170058   1.445   0.306  16.184  0.1671 -1.6466 -0.0873
16189TIP3    H270059   1.592   0.336  16.204 -0.2970  0.8751 -0.1118
16190TIP3   OH270060   4.857   1.466   3.595  0.0957 -0.5477  0.3920
16190TIP3    H170061   4.797   1.540   3.589 -0.8599 -1.3881 -1.6537
16190TIP3    H270062   4.802   1.392   3.617  0.4433 -1.2306 -0.9291
16191TIP3   OH270063   4.787   3.155   3.741  1.0003  0.5739  0.4942
16191TIP3    H170064   4.815   3.212   3.813  0.4368  3.2944 -1.2667
16191TIP3    H270065   4.841   3.182   3.667 -1.3718  1.0638 -1.1842
16192TIP3   OH270066   1.843   5.238   5.972  0.2935 -0.3273  0.0585
16192TIP3    H170067   1.804   5.228   6.059 -0.0552 -2.5196 -0.2741
16192TIP3    H270068   1.772   5.215   5.912  0.6119  0.9052 -0.8100
16193TIP3   OH270069   2.433   6.582   3.629 -0.0042  0.5809  0.1999
16193TIP3    H170070   2.377   6.659   3.639  0.7305  0.9254  2.4148
16193TIP3    H270071   2.520   6.614   3.653  0.5076 -0.7061  0.1048
16194TIP3   OH270072   4.415   1.105  13.982  0.3427 -0.1479 -0.1821
16194TIP3    H170073   4.407   1.064  14.068  3.1433 -2.1348 -0.7579
16194TIP3    H270074   4.418   1.199  14.000 -1.2013 -0.3966  1.6470
16195TIP3   OH270075   0.491   0.354  15.060 -0.2590 -0.1153  0.7532
16195TIP3    H170076   0.408   0.397  15.079 -0.4510  0.1460 -0.5686
16195TIP3    H270077   0.557   0.424  15.068 -0.8476  1.3337 -4.1020
16196TIP3   OH270078   3.570   4.989   4.047 -0.1334  0.0729  0.3230
16196TIP3    H170079   3.549   4.962   4.137 -4.1087  1.8516  0.1323
16196TIP3    H270080   3.517   4.932   3.992  2.3551 -1.0669 -1.0174
16197TIP3   OH270081   1.371   2.422  11.692  0.5955 -0.1220 -0.4515
16197TIP3    H170082   1.320   2.428  11.773 -2.8162  1.0383 -2.4685
16197TIP3    H270083   1.392   2.512  11.670  2.6373 -0.5171 -0.2743
16198TIP3   OH270084   2.469   1.314  11.076  0.1099 -0.8181 -0.2283
16198TIP3    H170085   2.524   1.235  11.077 -0.1266 -0.9852  0.1937
16198TIP3    H270086   2.438   1.321  10.986 -1.5377 -2.4081  0.1302
16199TIP3   OH270087   2.457   3.996  12.262 -0.7593 -0.2547  0.5732
16199TIP3    H170088   2.459   3.907  12.227 -1.8583  0.3594 -1.1597
16199TIP3    H270089   2.364   4.019  12.265 -0.4323  1.5636 -1.0359
16200TIP3   OH270090   3.310   3.246  11.842  0.0303 -0.0487  0.9198
16200TIP3    H170091   3.392   3.286  11.811 -0.2016 -0.4679 -0.2575
16200TIP3    H270092   3.335   3.157  11.865  0.3507  0.4514  2.6782
16201TIP3   OH270093   4.210   2.830  15.375 -0.5184 -0.4257  1.2770
16201TIP3    H170094   4.205   2.909  15.429  2.7491  1.4389 -0.8009
16201TIP3    H270095   4.272   2.773  15.422 -0.1663 -0.2167  1.0655
16202TIP3   OH270096   2.976   6.254  14.439 -0.6720  0.0930  0.0994
16202TIP3    H170097   2.923   6.191  14.488 -2.3371  0.6063 -0.9659
16202TIP3    H270098   3.036   6.290  14.504 -1.8490 -0.2716  1.4504
16203TIP3   OH270099   4.173   4.839  15.106 -0.1920 -0.1570 -0.0453
16203TIP3    H170100   4.163   4.777  15.179 -0.2512  0.5623  0.5787
16203TIP3    H270101   4.153   4.788  15.028  1.1154 -1.2785  0.3232
16204TIP3   OH270102   3.185   1.015  14.977 -0.0287 -0.4162 -0.0284
16204TIP3    H170103   3.272   1.010  14.937  0.3482 -0.9436  0.8498
16204TIP3    H270104   3.126   1.031  14.903  0.8895  0.7196 -0.5441
16205TIP3   OH270105   0.012   0.606   2.185 -0.1401 -0.6586 -0.2030
16205TIP3    H170106   0.026   0.563   2.269  0.8241  0.6274  0.3211
16205TIP3    H270107   0.087   0.580   2.132  0.5510  0.4728  0.1800
16206TIP3   OH270108   2.980   4.496   5.792 -0.3924  0.5018  0.0120
16206TIP3    H170109   2.889   4.469   5.801 -0.1761 -0.5395 -0.7711
16206TIP3    H270110   3.016   4.488   5.881 -0.8682  0.1578  0.1767
16207TIP3   OH270111   5.124   4.826  14.889 -0.5098 -0.0689  0.4377
16207TIP3    H170112   5.185   4.856  14.822 -0.3788 -1.6322 -0.1731
16207TIP3    H270113   5.169   4.846  14.972  1.2586 -1.9317 -0.0010
16208TIP3   OH270114   5.602   0.303  16.333  0.1617  0.0135 -0.0354
16208TIP3    H170115   5.601   0.398  16.329 -0.4520  0.0599  0.8969
16208TIP3    H270116   5.612   0.283  16.426 -1.1456 -0.8200 -0.0454
16209TIP3   OH270117   0.023   2.035  16.935  0.2054  0.3696  0.1125
16209TIP3    H170118  -0.007   2.117  16.973  0.3674  0.0183  1.0311
16209TIP3    H270119   0.116   2.049  16.916 -0.1810  1.0240 -1.5350
16210TIP3   OH270120   1.619   6.074  13.998 -0.2348  0.0323  0.6570
16210TIP3    H170121   1.598   5.982  13.979 -0.6369  0.5287 -1.6705
16210TIP3    H270122   1.714   6.079  13.989  0.0730 -0.5503  3.0009
16211TIP3   OH270123   0.462   1.970   0.638 -0.2398  0.0417  0.8391
16211TIP3    H170124   0.380   1.980   0.588 -1.4392  0.4197  2.7713
16211TIP3    H270125   0.437   1.915   0.712  1.4523 -0.3819  1.1142
16212TIP3   OH270126   0.600   4.645  14.355  0.6377 -0.0466 -0.1953
16212TIP3    H170127   0.515   4.641  14.312  0.8239 -0.6232 -0.5131
16212TIP3    H270128   0.589   4.713  14.421  0.3179  0.7654 -1.0636
16213TIP3   OH270129   5.370   4.038  14.744  0.7047 -0.1993  0.6408
16213TIP3    H170130   5.291   4.080  14.776  0.8108  1.5484 -1.1861
16213TIP3    H270131   5.339   3.955  14.707 -0.4080  0.7059 -0.5557
16214TIP3   OH270132   2.234   5.772   4.876  0.5514 -0.2795  0.5548
16214TIP3    H170133   2.200   5.825   4.948  0.1780  0.5618 -0.2205
16214TIP3    H270134   2.312   5.819   4.847 -1.2154  1.3652 -1.8511
16215TIP3   OH270135   5.859   2.158  15.366 -0.6152 -0.2135  0.2235
16215TIP3    H170136   5.911   2.149  15.446 -1.9137  0.6531  1.2059
16215TIP3    H270137   5.852   2.253  15.353 -0.4301 -0.3422 -0.9305
16216TIP3   OH270138   5.071   2.055  14.757 -0.4415  0.5791 -0.0777
16216TIP3    H170139   4.982   2.084  14.780 -0.7729 -0.9127  0.6768
16216TIP3    H270140   5.127   2.094  14.823 -0.6260  0.9351 -0.1268
16217TIP3   OH270141   3.307   6.577   0.871  0.4610  0.0777  0.2362
16217TIP3    H170142   3.213   6.593   0.883 -0.0201 -2.8462  1.2292
16217TIP3    H270143   3.336   6.543   0.956  2.1614 -0.0814 -0.3778
16218TIP3   OH270144   3.161   1.493  14.228  0.4606 -0.4500 -0.2226
16218TIP3    H170145   3.215   1.430  14.276  3.0662  0.7668 -1.3826
16218TIP3    H270146   3.216   1.522  14.155 -0.5488  3.1944  0.2677
16219TIP3   OH270147   4.067   4.424   5.030  0.2087  0.1057  0.1580
16219TIP3    H170148   3.985   4.472   5.013  0.5429  0.2635 -1.1249
16219TIP3    H270149   4.093   4.390   4.944  0.6360 -1.3505  0.8204
16220TIP3   OH270150   5.085   4.905  16.000  0.3878 -0.0391  0.5029
16220TIP3    H170151   5.156   4.961  16.030  0.2749  0.1346  0.4461
16220TIP3    H270152   5.120   4.863  15.921  0.2768  0.3575  0.2455
16221TIP3   OH270153   3.888   6.417  14.875  0.5638 -0.3524  0.0909
16221TIP3    H170154   3.863   6.325  14.882  0.0682 -0.1088  1.9916
16221TIP3    H270155   3.974   6.422  14.916  1.0448 -0.1109 -0.9025
16222TIP3   OH270156   0.278   5.578   1.357  0.4917  0.3004 -0.0008
16222TIP3    H170157   0.232   5.657   1.387  1.6756  0.6570  0.9478
16222TIP3    H270158   0.224   5.506   1.387  0.8447  0.6936  1.6869
16223TIP3   OH270159   5.230   5.818  15.402  0.0448 -0.4986  1.0128
16223TIP3    H170160   5.247   5.911  15.418  0.6249 -0.4541  0.2399
16223TIP3    H270161   5.189   5.816  15.315 -0.3018 -0.9402  1.1828
16224TIP3   OH270162   2.935   3.162  12.180  0.3447 -0.6784  0.3020
16224TIP3    H170163   3.029   3.158  12.165  0.3856 -1.2078  0.6916
16224TIP3    H270164   2.897   3.159  12.092  0.7427  2.7049 -0.1422
16225TIP3   OH270165   2.734   3.051  14.732 -0.2522 -0.3525  0.0794
16225TIP3    H170166   2.723   3.101  14.652  2.7725 -0.3609 -0.4673
16225TIP3    H270167   2.767   2.966  14.703 -0.4707 -0.8583  1.2596
16226TIP3   OH270168   2.631   3.905   1.461  0.0116 -0.0442 -0.1740
16226TIP3    H170169   2.613   3.812   1.476 -1.0443  0.3298  0.9837
16226TIP3    H270170   2.555   3.951   1.496  1.3477  1.3646  1.0336
16227TIP3   OH270171   0.716   5.388   0.734 -0.3267  0.3133 -0.5253
16227TIP3    H170172   0.635   5.362   0.778 -1.8283  3.1633 -1.3535
16227TIP3    H270173   0.750   5.461   0.786  1.5690 -0.5607 -0.4240
16228TIP3   OH270174   4.410   6.467  16.445  0.1275  0.2093 -0.5351
16228TIP3    H170175   4.330   6.504  16.406  0.7924  2.1449 -0.1978
16228TIP3    H270176   4.425   6.386  16.397 -0.1373  1.5257 -3.0392
16229TIP3   OH270177   0.055   4.341   5.561  0.4533  0.4533 -0.1271
16229TIP3    H170178   0.108   4.304   5.632  0.2012  1.1437  0.4416
16229TIP3    H270179  -0.033   4.307   5.578  0.4889  0.2336 -0.3899
16230TIP3   OH270180   3.300   6.021  16.925 -0.1932 -0.4931  0.3540
16230TIP3    H170181   3.334   6.111  16.924 -0.5276 -0.3594  0.7216
16230TIP3    H270182   3.232   6.022  16.992 -1.7302 -0.4660 -1.1379
16231TIP3   OH270183   4.282   0.373   5.555 -0.1535  0.3457 -0.3163
16231TIP3    H170184   4.260   0.408   5.468  2.5210  1.2579 -0.7147
16231TIP3    H270185   4.253   0.440   5.616 -0.4171  0.5236 -0.6306
16232TIP3   OH270186   5.016   3.805  12.740  0.6959 -0.4940  0.0056
16232TIP3    H170187   4.983   3.774  12.656  2.0810  0.6610 -1.0007
16232TIP3    H270188   5.054   3.727  12.781 -1.3034 -1.3952  0.2898
16233TIP3   OH270189   1.164   1.431   0.843 -0.2964  0.5595 -0.7030
16233TIP3    H170190   1.221   1.435   0.766 -0.9237  0.4739 -1.1768
16233TIP3    H270191   1.176   1.516   0.886  3.2578 -0.7936  1.4676
16234TIP3   OH270192   3.092   2.807  10.656  0.7880 -0.0161  0.2885
16234TIP3    H170193   3.053   2.723  10.633 -0.3235  1.1635 -2.5154
16234TIP3    H270194   3.018   2.867  10.662  1.8030  1.5654 -1.8390
16235TIP3   OH270195   3.206   5.933   2.400 -0.1671 -0.6751  0.4114
16235TIP3    H170196   3.116   5.903   2.385 -0.0409 -0.0905 -1.8930
16235TIP3    H270197   3.201   6.029   2.393  0.5072 -0.5865  1.0403
16236TIP3   OH270198   3.463   1.224  11.691  0.2733  0.5568 -0.3049
16236TIP3    H170199   3.491   1.312  11.717 -0.5031  0.8834 -0.5478
16236TIP3    H270200   3.405   1.196  11.761  1.2750 -0.1705  0.2612
16237TIP3   OH270201   0.582   4.349  16.880  0.4120 -0.0539 -0.4805
16237TIP3    H170202   0.591   4.285  16.950 -0.3314  0.1969 -0.1444
16237TIP3    H270203   0.519   4.310  16.819  0.1941  0.2201 -0.4335
16238TIP3   OH270204   3.319   4.239  14.279 -0.2420  0.1025  0.2229
16238TIP3    H170205   3.398   4.219  14.329  0.7825  1.2749 -0.8733
16238TIP3    H270206   3.259   4.276  14.344  0.2659 -0.3747  0.9838
16239TIP3   OH270207   5.057   5.702   5.851  0.1499  0.9828  0.1295
16239TIP3    H170208   5.138   5.713   5.900 -0.3028 -2.1226  1.8694
16239TIP3    H270209   4.990   5.745   5.905  0.3490  1.8795 -0.3298
16240TIP3   OH270210   0.773   0.143  15.019 -0.1260 -0.2887  0.2070
16240TIP3    H170211   0.856   0.110  14.985 -0.0467  0.9159 -0.8529
16240TIP3    H270212   0.748   0.212  14.958 -1.5365 -0.1210  0.9360
16241TIP3   OH270213   2.968   0.612  13.128  0.2022  0.0265  0.1867
16241TIP3    H170214   2.945   0.595  13.037 -1.8865  2.7515  0.0633
16241TIP3    H270215   2.884   0.606  13.175  1.2957 -1.7199  2.0607
16242TIP3   OH270216   0.469   5.244  17.116 -0.1970  0.4327 -0.1506
16242TIP3    H170217   0.533   5.294  17.167  1.1805  1.2780 -2.5548
16242TIP3    H270218   0.389   5.297  17.121  0.0563  0.7629  0.6435
16243TIP3   OH270219   3.100   4.999   0.343 -0.3582 -0.4202 -0.2310
16243TIP3    H170220   3.107   5.077   0.287 -0.7266  0.0737  0.3994
16243TIP3    H270221   3.172   4.943   0.314  0.4415  0.5223 -0.1199
16244TIP3   OH270222   3.191   3.757  11.140 -0.2805 -0.0530 -0.3741
16244TIP3    H170223   3.157   3.846  11.131  0.1024  0.7800  4.3022
16244TIP3    H270224   3.249   3.746  11.065 -1.4503  3.0111 -1.9108
16245TIP3   OH270225   0.282   2.824  14.217  0.6023 -0.7684  0.6549
16245TIP3    H170226   0.225   2.797  14.288 -1.7516  3.0913  0.5006
16245TIP3    H270227   0.333   2.897  14.253 -1.1014  1.7216 -1.5502
16246TIP3   OH270228   3.368   2.285  14.601  0.2869 -0.1172 -0.0067
16246TIP3    H170229   3.330   2.371  14.614 -0.0744 -0.4045  0.8996
16246TIP3    H270230   3.462   2.299  14.605  0.2497  0.3414 -0.6051
16247TIP3   OH270231   4.191   3.740  15.892  0.4313 -0.1729 -0.1676
16247TIP3    H170232   4.135   3.732  15.969  0.6421 -1.3886 -0.1260
16247TIP3    H270233   4.209   3.834  15.885 -0.0023  0.0056  0.9585
16248TIP3   OH270234   4.587   0.022  13.076 -0.7030  0.3184 -0.0193
16248TIP3    H170235   4.578   0.024  13.172 -2.8726  0.5494 -0.1768
16248TIP3    H270236   4.634   0.103  13.055 -0.2922  0.3135  0.8300
16249TIP3   OH270237   0.777   6.241  15.833  0.2419 -0.5652 -0.2917
16249TIP3    H170238   0.841   6.183  15.873 -0.3334 -0.8500  0.2333
16249TIP3    H270239   0.825   6.284  15.762  1.7080  1.0025  1.5113
16250TIP3   OH270240   3.685   5.035   1.375  0.3244 -0.4742  0.2434
16250TIP3    H170241   3.631   5.043   1.454  1.1241  1.0390  0.6880
16250TIP3    H270242   3.668   4.947   1.343 -2.3740 -0.0833  0.3544
16251TIP3   OH270243   0.231   0.721   5.778  0.2166  0.9234 -0.0953
16251TIP3    H170244   0.277   0.641   5.805  1.0407  1.2458 -0.4995
16251TIP3    H270245   0.169   0.691   5.712  0.3096  0.5735 -0.0319
16252TIP3   OH270246   6.666   4.547  15.298  0.2160  0.0809 -0.1911
16252TIP3    H170247   6.585   4.570  15.252  0.4880 -0.1656 -0.8043
16252TIP3    H270248   6.637   4.493  15.371 -0.2119  0.3746 -0.1359
16253TIP3   OH270249   2.769   2.940  16.013  0.3346 -0.3621  0.1852
16253TIP3    H170250   2.727   2.935  15.927 -0.5186 -0.4386  0.6001
16253TIP3    H270251   2.856   2.976  15.994 -0.1495  0.4443 -0.6056
16254TIP3   OH270252   1.713   3.950   0.021 -0.1738 -0.1929 -0.7993
16254TIP3    H170253   1.762   3.868   0.013  0.7347  0.2057  0.4648
16254TIP3    H270254   1.694   3.958   0.114 -1.6079  0.2837 -1.1017
16255TIP3   OH270255   3.052   5.961  11.162 -0.5411  0.1526  0.3188
16255TIP3    H170256   3.054   5.900  11.089 -0.0438 -1.7975  1.8861
16255TIP3    H270257   3.142   5.990  11.172 -0.3068 -0.7914  1.0902
16256TIP3   OH270258   0.912   0.872   2.596  0.4405  0.3648  0.0709
16256TIP3    H170259   0.851   0.940   2.567  1.2216  0.6339 -1.0063
16256TIP3    H270260   0.995   0.895   2.555  0.1668 -2.6156 -2.5458
16257TIP3   OH270261   2.447   2.601  10.470  0.1761 -0.4132  0.1361
16257TIP3    H170262   2.452   2.559  10.556  1.3093  0.1194  0.3524
16257TIP3    H270263   2.509   2.674  10.475 -1.1318  0.7762 -0.5165
16258TIP3   OH270264   4.322   2.028  11.036  0.0939 -0.0087 -0.3716
16258TIP3    H170265   4.272   1.993  10.963  0.0842  0.5501 -0.6353
16258TIP3    H270266   4.342   2.118  11.012  2.5890 -0.6300 -0.9913
16259TIP3   OH270267   6.226   4.860  17.005  0.0924 -0.4062  0.4993
16259TIP3    H170268   6.141   4.864  16.960 -0.7855  1.6898  2.1609
16259TIP3    H270269   6.204   4.868  17.098  2.0683 -1.1983  1.0864
16260TIP3   OH270270   2.442   4.492   3.957  0.5232  0.4824 -0.2359
16260TIP3    H170271   2.521   4.439   3.956 -1.1111 -2.1358 -0.0859
16260TIP3    H270272   2.447   4.541   4.040  0.0546 -2.9777  2.0447
16261TIP3   OH270273   3.061   6.065  17.071  0.3842 -0.4850  0.3438
16261TIP3    H170274   2.995   6.027  17.013 -0.3687  0.5459  0.4904
16261TIP3    H270275   3.072   6.001  17.141 -0.1686 -0.8541  0.0966
16262TIP3   OH270276   3.356   3.069   5.189  0.1132 -0.4440 -0.0595
16262TIP3    H170277   3.431   3.128   5.189 -0.3497  0.1616 -0.1542
16262TIP3    H270278   3.296   3.107   5.124  0.3956 -1.7969 -1.1668
16263TIP3   OH270279   4.994   0.727   2.123  0.1367 -0.1955 -0.3002
16263TIP3    H170280   5.048   0.796   2.163 -0.1774 -1.2058  2.0313
16263TIP3    H270281   4.910   0.769   2.106  0.1040  0.1262  0.6262
16264TIP3   OH270282   4.256   4.522  15.044 -0.3767  0.4677 -0.9957
16264TIP3    H170283   4.191   4.557  14.983 -1.5485 -0.5614 -0.3648
16264TIP3    H270284   4.205   4.483  15.114  0.9392  0.0830 -0.2199
16265TIP3   OH270285   0.567   5.258  16.455  0.2296 -0.5482 -0.0110
16265TIP3    H170286   0.532   5.190  16.398 -1.0376 -0.4531  0.6243
16265TIP3    H270287   0.609   5.211  16.527  0.4354 -0.6636 -0.2078
16266TIP3   OH270288   1.769   4.175  13.844 -0.1554 -0.1954 -0.6163
16266TIP3    H170289   1.717   4.249  13.876  1.1811  0.1953  0.7474
16266TIP3    H270290   1.836   4.215  13.788  0.2518 -0.4190 -0.2932
16267TIP3   OH270291   2.763   5.005  16.296  0.3893 -0.4757  0.3209
16267TIP3    H170292   2.697   5.071  16.319  2.2863  1.4705  0.4526
16267TIP3    H270293   2.751   4.992  16.201  0.9399  1.1952  0.0004
16268TIP3   OH270294   5.796   2.312   3.117  0.1279 -0.1423 -0.1274
16268TIP3    H170295   5.887   2.308   3.146  1.4556 -1.5981 -3.8636
16268TIP3    H270296   5.755   2.234   3.155  0.3133  0.6442  1.7621
16269TIP3   OH270297   3.697   3.956  12.367  0.2297  0.5927 -0.3005
16269TIP3    H170298   3.752   3.974  12.443 -0.0845  1.9215 -0.3542
16269TIP3    H270299   3.661   3.869  12.383  1.4991  0.1403  0.2317
16270TIP3   OH270300   6.026   2.794   2.499  0.2076 -0.4373  0.7365
16270TIP3    H170301   6.068   2.751   2.424 -0.4852 -1.4574  0.9188
16270TIP3    H270302   6.090   2.787   2.570  1.0397  0.8991  0.1597
16271TIP3   OH270303   4.399   1.659  14.323 -0.1382  0.1326 -0.3489
16271TIP3    H170304   4.431   1.577  14.361 -0.0577 -0.1641 -1.0502
16271TIP3    H270305   4.418   1.725  14.390  1.5759 -0.0937 -0.5652
16272TIP3   OH270306   3.632   4.198   5.608  0.0652  0.0116 -0.3709
16272TIP3    H170307   3.638   4.158   5.694  1.7640 -0.7479 -0.8135
16272TIP3    H270308   3.554   4.254   5.613  0.1649  0.0274  1.6586
16273TIP3   OH270309   1.306   1.573  11.639  0.4743 -0.5206  0.1110
16273TIP3    H170310   1.376   1.515  11.608  1.1303  1.2031 -1.8702
16273TIP3    H270311   1.311   1.649  11.581 -1.3379  0.8418  1.6335
16274TIP3   OH270312   2.181   6.090  13.661 -0.0461  0.7642 -0.2633
16274TIP3    H170313   2.232   6.130  13.732 -1.2656  0.6319  0.7194
16274TIP3    H270314   2.142   6.012  13.700 -0.2796  0.3665 -1.2543
16275TIP3   OH270315   3.888   1.476   3.752 -0.2486  0.5391 -0.3308
16275TIP3    H170316   3.886   1.571   3.739 -0.6419  0.6362  0.3890
16275TIP3    H270317   3.935   1.465   3.834 -0.1008  0.0978 -0.4746
16276TIP3   OH270318   5.852   0.421   0.036 -0.0534 -0.1490 -0.2651
16276TIP3    H170319   5.885   0.509   0.014  1.8521 -0.8959 -0.6331
16276TIP3    H270320   5.890   0.403   0.122  0.2326 -0.9040 -0.5417
16277TIP3   OH270321   0.933   3.078  14.296 -0.9792 -0.3176 -0.5390
16277TIP3    H170322   1.019   3.118  14.309 -1.1681 -0.0508 -0.1169
16277TIP3    H270323   0.873   3.131  14.347 -1.4453 -0.3344 -1.0542
16278TIP3   OH270324   2.631   4.864   4.193  0.6223 -0.3972 -0.4088
16278TIP3    H170325   2.655   4.956   4.190 -1.8435  0.3528  0.5392
16278TIP3    H270326   2.682   4.828   4.265  0.2508  0.6945  0.4228
16279TIP3   OH270327   3.332   6.010  11.093 -0.2284  0.3120  0.1004
16279TIP3    H170328   3.355   5.930  11.046  1.4898  0.7597  0.1313
16279TIP3    H270329   3.309   6.072  11.024  0.1661  0.3238 -0.0206
16280TIP3   OH270330   6.356   2.795  12.421 -0.2118  0.2551  0.2514
16280TIP3    H170331   6.417   2.725  12.444 -0.1555 -0.2819 -1.3980
16280TIP3    H270332   6.369   2.808  12.327 -0.5474  2.1884  0.4294
16281TIP3   OH270333   0.527   6.756   4.195  0.4034 -0.4420  0.0326
16281TIP3    H170334   0.541   6.849   4.179 -0.4592 -0.2950  0.1043
16281TIP3    H270335   0.495   6.721   4.112 -0.8293 -0.3437  0.4471
16282TIP3   OH270336   5.486   2.231   4.721  0.5357  1.0007 -0.3460
16282TIP3    H170337   5.400   2.232   4.679 -0.0492 -0.8232  0.6755
16282TIP3    H270338   5.467   2.231   4.815  1.5189 -1.1718 -0.0752
16283TIP3   OH270339   6.090   2.865   3.970  0.1640 -0.1805  0.0761
16283TIP3    H170340   6.121   2.900   4.053  0.9260  1.1733 -0.7359
16283TIP3    H270341   6.033   2.792   3.994  1.5141 -0.7499  1.7186
16284TIP3   OH270342   2.338   1.942   2.410 -0.1355  0.3030 -0.1144
16284TIP3    H170343   2.277   1.966   2.479  0.2376  0.3917  0.1852
16284TIP3    H270344   2.405   1.890   2.454 -0.6295 -0.8352 -0.6466
16285TIP3   OH270345   1.095   5.820  10.291 -0.0861 -0.3480  0.3302
16285TIP3    H170346   1.105   5.765  10.368  2.8001  0.1479  0.4409
16285TIP3    H270347   1.118   5.908  10.322 -2.1441  0.4867 -0.3979
16286TIP3   OH270348   0.047   0.627  16.593  0.3547 -0.5724 -0.1198
16286TIP3    H170349   0.042   0.554  16.655 -0.5274 -0.4554 -0.0396
16286TIP3    H270350   0.140   0.639  16.578  0.7912  0.7661  2.8443
16287TIP3   OH270351   2.415   4.327   0.829  0.4134  0.1416 -0.6073
16287TIP3    H170352   2.474   4.320   0.754  0.3511  0.6977 -0.7092
16287TIP3    H270353   2.369   4.243   0.831  1.1066 -0.2431 -0.6084
16288TIP3   OH270354   0.680   3.960   4.079  0.3491 -0.1218 -0.4358
16288TIP3    H170355   0.601   4.014   4.073  0.5893  0.2245 -0.5237
16288TIP3    H270356   0.731   4.000   4.150  0.6680 -0.0450 -0.7061
16289TIP3   OH270357   3.493   5.590   4.791  0.0310 -0.2398  0.0114
16289TIP3    H170358   3.492   5.495   4.782 -0.5589 -0.1922 -0.5743
16289TIP3    H270359   3.407   5.611   4.827  1.0819 -0.1162  2.6626
16290TIP3   OH270360   3.934   0.429   1.074  0.4061 -0.1914 -0.1896
16290TIP3    H170361   3.944   0.486   1.151 -0.5624 -0.9751  0.5434
16290TIP3    H270362   3.901   0.488   1.006 -1.0664  0.0822  0.6989
16291TIP3   OH270363   4.923   2.303   1.879  0.4926 -0.1604 -0.0347
16291TIP3    H170364   4.879   2.248   1.944 -2.4182 -0.4665 -2.1084
16291TIP3    H270365   4.885   2.390   1.892 -1.2241 -0.5153 -2.1244
16292TIP3   OH270366   4.197   0.783   6.809 -0.1622 -0.5477 -0.1239
16292TIP3    H170367   4.262   0.740   6.754  0.7610 -0.2171  0.6766
16292TIP3    H270368   4.166   0.715   6.869  1.8179 -0.0289  1.6202
16293TIP3   OH270369   4.946   1.404   0.205 -0.3330 -0.2094  0.0752
16293TIP3    H170370   4.995   1.326   0.179 -0.6164 -0.2869 -0.2428
16293TIP3    H270371   5.011   1.474   0.205 -0.3431 -0.1659 -1.0659
16294TIP3   OH270372   6.410   4.834  16.773 -0.3568 -0.1164  0.2152
16294TIP3    H170373   6.369   4.826  16.859 -1.7949 -0.1964 -0.4386
16294TIP3    H270374   6.418   4.929  16.759 -0.2559 -0.1006  0.3843
16295TIP3   OH270375   1.843   2.595   1.890 -0.1630 -0.2900  0.7662
16295TIP3    H170376   1.806   2.526   1.834 -2.8185  1.6113 -0.0717
16295TIP3    H270377   1.902   2.549   1.949 -0.8798 -3.0981 -0.5111
16296TIP3   OH270378   6.692   4.038  16.216 -0.0683  0.0258 -0.0879
16296TIP3    H170379   6.745   4.104  16.172 -1.2300  0.9345 -0.1643
16296TIP3    H270380   6.754   3.994  16.274  0.8405  0.8392 -0.3950
16297TIP3   OH270381   6.184   5.392   3.995  0.2639 -0.4645  0.3241
16297TIP3    H170382   6.152   5.375   4.083 -0.1003 -1.2588  0.0552
16297TIP3    H270383   6.120   5.349   3.938  1.1404 -1.0125 -0.2707
16298TIP3   OH270384   1.441   0.181  10.364 -0.4182  0.2806  0.3850
16298TIP3    H170385   1.363   0.161  10.417 -1.2742  0.4594 -0.7613
16298TIP3    H270386   1.425   0.269  10.331 -0.4921 -0.2931 -1.1656
16299TIP3   OH270387   2.334   2.762  12.072 -0.3211  0.2596  0.2276
16299TIP3    H170388   2.240   2.775  12.080 -0.5098 -0.4167 -0.6950
16299TIP3    H270389   2.364   2.834  12.016 -0.0313  1.3021  1.6524
16300TIP3   OH270390   6.675   3.549  17.112  0.6089  0.0328  0.1456
16300TIP3    H170391   6.684   3.529  17.019  0.0666  0.9839 -0.1341
16300TIP3    H270392   6.589   3.592  17.118 -0.1974 -1.6397  1.3785
16301TIP3   OH270393   4.726   1.157  15.533  0.1844  0.5382 -0.0403
16301TIP3    H170394   4.778   1.161  15.613 -0.0075 -0.4949  0.1456
16301TIP3    H270395   4.681   1.242  15.529 -0.9524  0.0780  1.7470
16302TIP3   OH270396   5.641   2.592   1.375 -0.0983  0.5513  0.3967
16302TIP3    H170397   5.713   2.604   1.313 -0.8239  2.2714 -0.1891
16302TIP3    H270398   5.673   2.527   1.437  0.8238 -0.9363 -1.5289
16303TIP3   OH270399   0.685   6.671   3.369  0.1665  0.4002  0.8002
16303TIP3    H170400   0.688   6.598   3.307 -1.1497 -1.7246  3.0925
16303TIP3    H270401   0.742   6.738   3.329 -1.2407 -0.4405 -3.0672
16304TIP3   OH270402   2.924   2.648  10.876 -0.1295  0.5852 -0.2264
16304TIP3    H170403   2.969   2.729  10.852  0.2214  0.2230 -0.8101
16304TIP3    H270404   2.861   2.634  10.805  0.7538 -0.3754 -0.8456
16305TIP3   OH270405   4.894   1.671  16.531  0.3615  0.0609 -0.0273
16305TIP3    H170406   4.884   1.677  16.626  1.7152 -0.1609  0.1504
16305TIP3    H270407   4.941   1.588  16.517  3.0995  1.5961 -0.5961
16306TIP3   OH270408   0.461   0.592   4.160 -0.0558 -0.0082 -0.5088
16306TIP3    H170409   0.519   0.607   4.086  0.3803 -0.5357 -0.2843
16306TIP3    H270410   0.440   0.679   4.193 -0.9923  0.2768 -1.8080
16307TIP3   OH270411   5.622   4.153   5.403  0.7174  0.1247 -0.3445
16307TIP3    H170412   5.573   4.131   5.482  0.9318  1.6887  0.2758
16307TIP3    H270413   5.709   4.178   5.436  0.0311  3.4827 -0.6773
16308TIP3   OH270414   0.854   4.401  13.291 -0.0440 -0.4209 -0.5504
16308TIP3    H170415   0.884   4.343  13.221  0.4931  0.1970 -0.8417
16308TIP3    H270416   0.903   4.373  13.368 -0.3904 -0.8855 -0.4951
16309TIP3   OH270417   4.826   0.145   2.446 -0.1257 -0.7800 -0.8775
16309TIP3    H170418   4.791   0.138   2.358 -1.0073  0.3171 -0.6272
16309TIP3    H270419   4.767   0.092   2.500  0.4225 -1.4651 -0.9271
16310TIP3   OH270420   4.822   6.735  12.376  0.0762 -0.3452  0.1139
16310TIP3    H170421   4.810   6.717  12.283 -0.6574 -0.2211  0.1799
16310TIP3    H270422   4.911   6.704  12.395  0.4507  0.1680 -0.7507
16311TIP3   OH270423   1.267   5.258  16.740  0.4306  0.2399  0.1945
16311TIP3    H170424   1.192   5.315  16.723 -0.3770 -1.0960 -0.9218
16311TIP3    H270425   1.329   5.313  16.787 -1.2788  1.3612  1.2307
16312TIP3   OH270426   5.401   0.908  15.892 -0.0799 -0.1459 -0.6327
16312TIP3    H170427   5.487   0.928  15.856  0.5616 -0.4504  0.6927
16312TIP3    H270428   5.405   0.937  15.983 -1.8318  1.0618 -0.8808
16313TIP3   OH270429   2.622   3.054   5.479  0.2471  0.1396 -0.5623
16313TIP3    H170430   2.566   2.986   5.441 -0.1731 -0.3627  0.8912
16313TIP3    H270431   2.691   3.007   5.525 -0.4459  0.6425  1.0611
16314TIP3   OH270432   4.319   3.548  14.459  0.3491  0.0736 -0.5276
16314TIP3    H170433   4.295   3.625  14.511  2.4740  1.2127 -1.1000
16314TIP3    H270434   4.323   3.477  14.523 -1.0640  0.5368  0.1207
16315TIP3   OH270435   0.903   6.138   6.881 -0.1813  0.0837  0.2124
16315TIP3    H170436   0.892   6.053   6.840 -0.9793  0.4585 -0.3835
16315TIP3    H270437   0.997   6.146   6.896  0.1854  0.0261 -1.7577
16316TIP3   OH270438   3.583   3.035   0.370 -0.1674  0.0882 -0.0885
16316TIP3    H170439   3.539   3.099   0.313 -0.9492 -1.0441 -0.7957
16316TIP3    H270440   3.536   3.042   0.453 -0.3149  0.3587 -0.1924
16317TIP3   OH270441   2.866   3.422   6.352 -0.3969  0.8394  0.0223
16317TIP3    H170442   2.925   3.347   6.347 -0.7312  0.6232 -1.1400
16317TIP3    H270443   2.780   3.385   6.332 -0.4966  1.5791 -1.0022
16318TIP3   OH270444   6.163   1.798   5.707  0.1983 -0.0414  0.0570
16318TIP3    H170445   6.206   1.713   5.710  1.8759  0.6698 -1.7655
16318TIP3    H270446   6.229   1.857   5.670 -1.4391  1.7227 -0.2062
16319TIP3   OH270447   2.555   0.900  11.569  0.6443  0.0561  0.7752
16319TIP3    H170448   2.572   0.992  11.549 -0.5670  0.4184  1.3044
16319TIP3    H270449   2.464   0.899  11.600  0.2239 -1.5058 -0.4255
16320TIP3   OH270450   3.770   5.640  15.715 -0.6871  0.2125  0.1577
16320TIP3    H170451   3.697   5.578  15.712 -0.6057  0.1245 -0.0389
16320TIP3    H270452   3.846   5.585  15.735 -0.0028 -0.3388 -3.2977
16321TIP3   OH270453   4.940   6.498   5.673  0.8611 -0.0241  0.3618
16321TIP3    H170454   5.005   6.478   5.606  1.2397  0.6994  0.5034
16321TIP3    H270455   4.904   6.413   5.697  1.3031 -0.3707 -0.1777
16322TIP3   OH270456   3.839   4.425   2.304  0.1994 -0.0853  0.3946
16322TIP3    H170457   3.855   4.348   2.249  2.5325 -0.2171  1.1186
16322TIP3    H270458   3.914   4.483   2.287 -0.4321  1.0797  1.4035
16323TIP3   OH270459   3.133   2.183  12.711 -0.0693  1.0008 -0.3343
16323TIP3    H170460   3.140   2.222  12.624  0.6470 -2.2128 -1.8300
16323TIP3    H270461   3.223   2.167  12.738 -0.3319 -1.7347 -0.8737
16324TIP3   OH270462   2.940   0.435  16.247  0.0880  0.0853  0.3288
16324TIP3    H170463   2.946   0.403  16.337 -0.3951 -0.0560  0.3111
16324TIP3    H270464   2.848   0.423  16.223  0.5539 -1.5735 -0.8093
16325TIP3   OH270465   3.277   4.658  11.155 -0.5407  0.7075 -0.1090
16325TIP3    H170466   3.344   4.694  11.097  0.3135  0.6032  0.7811
16325TIP3    H270467   3.214   4.616  11.097 -0.4434  1.8144 -1.0375
16326TIP3   OH270468   4.033   5.491   4.629  0.2903  0.8722 -0.4841
16326TIP3    H170469   3.971   5.420   4.641  0.1825  1.0367 -0.0863
16326TIP3    H270470   3.988   5.569   4.660 -0.1130  1.3603 -2.1632
16327TIP3   OH270471   0.614   4.501   3.273 -0.2944  0.2977 -0.3622
16327TIP3    H170472   0.568   4.584   3.284  0.2817  0.6323 -0.4397
16327TIP3    H270473   0.566   4.439   3.328  0.5092  1.1602  1.3936
16328TIP3   OH270474   2.995   2.780   4.717  0.6579 -0.5713  0.3050
16328TIP3    H170475   2.999   2.797   4.623 -2.2330 -0.7070  0.0704
16328TIP3    H270476   3.024   2.862   4.757  2.5572 -0.7284 -0.6342
16329TIP3   OH270477   0.291   1.567   1.618  0.1704 -0.5447 -0.0572
16329TIP3    H170478   0.366   1.553   1.560  0.2516 -0.3129 -0.0113
16329TIP3    H270479   0.267   1.659   1.605  0.3629 -0.4139  0.4797
16330TIP3   OH270480   5.835   5.581  12.238 -0.2884 -0.2486 -0.3434
16330TIP3    H170481   5.860   5.635  12.313 -0.0505  1.5778 -1.6523
16330TIP3    H270482   5.744   5.557  12.255 -0.0555 -0.3669  0.7960
16331TIP3   OH270483   1.818   4.862  16.628  0.1351 -0.0618 -0.3054
16331TIP3    H170484   1.788   4.771  16.636  1.1070 -0.3622  0.1465
16331TIP3    H270485   1.739   4.912  16.607 -1.4072 -0.3437  3.8299
16332TIP3   OH270486   2.995   0.318   1.523  0.5787  0.2006 -0.0178
16332TIP3    H170487   2.950   0.399   1.548 -2.1811 -1.4506  0.7785
16332TIP3    H270488   2.972   0.305   1.431  2.3805  1.1077 -0.6284
16333TIP3   OH270489   4.408   2.006   0.642  0.0992  0.2591  0.5214
16333TIP3    H170490   4.426   1.953   0.720  1.1567 -0.7671 -0.3928
16333TIP3    H270491   4.368   1.945   0.580  0.5929  0.7108 -0.2566
16334TIP3   OH270492   1.567   2.231  14.029  0.0394 -0.2231 -0.0621
16334TIP3    H170493   1.657   2.243  13.998 -0.3159 -0.5184 -1.2789
16334TIP3    H270494   1.560   2.137  14.044 -0.1311 -0.2319 -0.1951
16335TIP3   OH270495   5.050   3.410   2.345 -0.4679 -0.4726 -0.6490
16335TIP3    H170496   5.123   3.413   2.407 -0.6234 -1.2579 -0.4184
16335TIP3    H270497   4.984   3.468   2.382 -0.0578  0.0671 -0.7442
16336TIP3   OH270498   6.404   2.820  16.267 -0.4433 -0.4839 -0.5179
16336TIP3    H170499   6.336   2.826  16.334  0.0968 -1.1941  0.1346
16336TIP3    H270500   6.420   2.726  16.258 -1.0832 -0.4501 -2.2713
16337TIP3   OH270501   1.161   1.561  11.240 -0.3963 -0.2098 -0.0102
16337TIP3    H170502   1.248   1.556  11.200  0.9947  0.4180  2.6635
16337TIP3    H270503   1.151   1.478  11.287 -0.7522  0.1348  0.5461
16338TIP3   OH270504   3.882   3.688  15.782 -0.4584  0.4438 -0.0420
16338TIP3    H170505   3.882   3.770  15.832 -0.3867  1.5314 -1.7603
16338TIP3    H270506   3.962   3.692  15.729 -1.1312 -0.0987 -1.1380
16339TIP3   OH270507   5.939   1.609  12.555 -0.1146 -0.3671 -0.2707
16339TIP3    H170508   5.885   1.682  12.587 -0.8860 -0.9951 -0.1120
16339TIP3    H270509   6.015   1.652  12.516  0.4212  0.4757  1.5529
16340TIP3   OH270510   4.110   2.820   3.621 -0.2156  0.1473  0.1770
16340TIP3    H170511   4.160   2.842   3.543 -1.1500  1.9665  0.0577
16340TIP3    H270512   4.170   2.838   3.694  0.6513 -1.5377 -0.0657
16341TIP3   OH270513   4.433   2.976  14.922  0.3578  0.1154  0.5302
16341TIP3    H170514   4.511   2.990  14.976  0.9384  0.5296 -0.4093
16341TIP3    H270515   4.452   2.896  14.873 -0.4134 -0.5903  1.3412
16342TIP3   OH270516   5.992   5.052   0.213 -0.0099 -0.1719 -0.1400
16342TIP3    H170517   5.899   5.071   0.199  0.2205  0.8393 -0.3351
16342TIP3    H270518   6.013   5.095   0.296  0.1330 -0.9609  0.2445
16343TIP3   OH270519   1.929   4.644   3.304  0.3759  0.5313  0.8443
16343TIP3    H170520   1.863   4.574   3.308  0.3133  0.6369  2.5291
16343TIP3    H270521   2.013   4.598   3.299  0.2206  0.3941 -1.1684
16344TIP3   OH270522   1.494   3.594   2.359  0.2495  0.5010 -0.3117
16344TIP3    H170523   1.542   3.621   2.281  0.0605  0.5547 -0.4093
16344TIP3    H270524   1.512   3.500   2.367  0.2199  0.4835 -0.4539
16345TIP3   OH270525   6.360   5.764   6.201 -0.7259  0.2491 -0.3356
16345TIP3    H170526   6.302   5.706   6.152 -0.4425 -0.8586  0.6055
16345TIP3    H270527   6.314   5.779   6.284 -0.6780  1.1840 -0.4658
16346TIP3   OH270528   6.253   2.626  12.989  0.3666 -0.2023 -0.0892
16346TIP3    H170529   6.247   2.613  13.083 -1.6862 -2.6102 -0.4315
16346TIP3    H270530   6.172   2.671  12.966  0.4218 -0.4421 -0.7844
16347TIP3   OH270531   6.029   0.186   5.966  0.4718  0.0639  0.1940
16347TIP3    H170532   6.041   0.256   6.030 -1.5031  0.9139 -0.2870
16347TIP3    H270533   6.066   0.221   5.885 -1.9893  1.3362 -0.4743
16348TIP3   OH270534   2.489   4.288   1.365  0.9520  0.0304 -0.2062
16348TIP3    H170535   2.502   4.374   1.324  0.2020 -0.1305 -0.8138
16348TIP3    H270536   2.506   4.225   1.295  0.5101 -0.2792 -0.0435
16349TIP3   OH270537   1.112   1.322   0.125 -0.6899  0.1738 -0.5541
16349TIP3    H170538   1.175   1.263   0.083 -2.0555 -2.0523  0.3208
16349TIP3    H270539   1.166   1.385   0.173  0.8512 -0.5066 -1.3301
16350TIP3   OH270540   3.953   0.636  13.369  0.1317 -0.2052  0.8460
16350TIP3    H170541   4.042   0.667  13.380  0.4900 -0.3043 -1.3530
16350TIP3    H270542   3.951   0.599  13.281 -2.6746  2.0352 -0.2079
16351TIP3   OH270543   3.826   2.146  14.144  0.4903  0.4152  0.1381
16351TIP3    H170544   3.808   2.211  14.212  1.5068  1.0020 -0.1376
16351TIP3    H270545   3.799   2.188  14.062 -0.3323 -0.1285  0.1156
16352TIP3   OH270546   6.068   2.965  13.615  0.1301  0.3415 -0.0225
16352TIP3    H170547   6.008   3.040  13.606  0.1503  0.3720  0.0955
16352TIP3    H270548   6.118   2.965  13.534 -2.2961 -1.6744 -1.6931
16353TIP3   OH270549   1.686   0.698   2.213  0.1029  0.1664 -0.0228
16353TIP3    H170550   1.711   0.617   2.168  1.1160  0.9145 -0.8709
16353TIP3    H270551   1.604   0.677   2.257 -0.0612 -1.0947 -0.8761
16354TIP3   OH270552   5.966   0.760  16.853  0.1957 -0.3893  0.3093
16354TIP3    H170553   6.007   0.732  16.771  0.7000 -0.8947  0.7243
16354TIP3    H270554   5.959   0.855  16.845  3.3470  0.0098  1.0310
16355TIP3   OH270555   6.063   2.398   1.128 -0.1044  0.0458  0.1387
16355TIP3    H170556   6.145   2.349   1.120  0.4406  0.7550  1.2327
16355TIP3    H270557   6.072   2.448   1.208 -0.8236  1.6459 -0.7365
16356TIP3   OH270558   5.743   6.593   3.036 -0.8060 -0.2680 -0.0898
16356TIP3    H170559   5.663   6.631   3.001 -0.8716 -0.1563  0.1774
16356TIP3    H270560   5.778   6.660   3.095  0.1731  0.2199 -1.1788
16357TIP3   OH270561   2.326   1.240  15.797  0.2585  0.3429  0.4723
16357TIP3    H170562   2.335   1.312  15.858  1.1327  0.2277  0.4949
16357TIP3    H270563   2.416   1.218  15.772 -0.0649  0.2343 -0.6668
16358TIP3   OH270564   3.575   3.132   1.108 -0.8845  0.0221  0.1194
16358TIP3    H170565   3.531   3.208   1.147 -2.2148 -1.0104  0.7012
16358TIP3    H270566   3.588   3.071   1.180  0.1318 -0.3512 -0.3521
16359TIP3   OH270567   0.865   5.523  15.884 -0.4468 -0.0851  0.1489
16359TIP3    H170568   0.917   5.529  15.804 -0.2778 -2.7245 -0.0289
16359TIP3    H270569   0.775   5.537  15.856 -0.3429 -0.5946 -0.4672
16360TIP3   OH270570   0.903   4.204   6.623  0.3790  0.6392  0.0557
16360TIP3    H170571   0.827   4.227   6.678  0.1251 -2.1596  1.0414
16360TIP3    H270572   0.864   4.177   6.540  0.1915 -1.1748  0.6929
16361TIP3   OH270573   5.166   6.609   4.374 -0.3711 -0.1328  0.6816
16361TIP3    H170574   5.080   6.579   4.404 -0.7324 -0.6335 -0.7910
16361TIP3    H270575   5.166   6.592   4.280  0.8680  1.0303  0.4441
16362TIP3   OH270576   5.025   0.789   1.834  0.3741 -0.0269 -0.2933
16362TIP3    H170577   4.991   0.816   1.919 -3.2062  0.2176 -1.6299
16362TIP3    H270578   5.094   0.852   1.815  0.9983  0.1444  2.2100
16363TIP3   OH270579   4.346   2.934  15.805  0.4951 -1.3916  0.1907
16363TIP3    H170580   4.328   2.981  15.886  0.8595 -0.8284 -0.0536
16363TIP3    H270581   4.308   2.988  15.736  0.3097 -1.7986 -0.0327
16364TIP3   OH270582   1.382   6.581  12.467 -0.0533  0.2674  0.7680
16364TIP3    H170583   1.427   6.622  12.393  1.7009 -0.4965  1.3489
16364TIP3    H270584   1.356   6.654  12.523 -1.0319  0.8235 -0.3830
16365TIP3   OH270585   1.209   3.911  12.193 -0.5013 -0.5736 -0.2545
16365TIP3    H170586   1.202   3.916  12.288  2.3088 -0.1821  0.0293
16365TIP3    H270587   1.266   3.836  12.176 -1.2836 -0.8897 -1.6666
16366TIP3   OH270588   1.454   5.016  14.975 -0.0501 -0.7466 -0.2406
16366TIP3    H170589   1.434   4.927  15.003 -0.1956 -0.9689 -1.0427
16366TIP3    H270590   1.513   5.005  14.901  0.8071 -0.1491  0.3341
16367TIP3   OH270591   3.812   4.397  15.905 -0.4677  0.0153 -0.6990
16367TIP3    H170592   3.857   4.457  15.846 -1.8350  0.8404 -0.9408
16367TIP3    H270593   3.821   4.311  15.863  0.2782  0.2738 -1.0840
16368TIP3   OH270594   1.571   4.937  14.351 -0.1261 -0.1328  0.3369
16368TIP3    H170595   1.648   4.894  14.313  0.4076  0.3094  0.8699
16368TIP3    H270596   1.574   4.912  14.444 -0.4463  0.1359  0.4217
16369TIP3   OH270597   5.639   1.429   2.288 -0.4611  0.2556  0.0757
16369TIP3    H170598   5.618   1.431   2.195  1.5280 -2.7236 -0.6021
16369TIP3    H270599   5.728   1.463   2.293 -0.7685  0.9628  1.0090
16370TIP3   OH270600   6.022   3.556   5.338 -0.3099 -0.0250 -0.4607
16370TIP3    H170601   6.079   3.534   5.412 -0.5864 -1.1148 -0.5497
16370TIP3    H270602   6.059   3.507   5.264 -2.4824 -2.4724 -0.0756
16371TIP3   OH270603   0.583   5.019  12.310  0.4398  0.1812 -0.0094
16371TIP3    H170604   0.512   5.032  12.373  0.0825 -1.9653  0.1207
16371TIP3    H270605   0.540   5.024  12.224  0.4181  0.3452  0.0098
16372TIP3   OH270606   4.466   1.308  14.740  0.3611 -0.0801 -0.2533
16372TIP3    H170607   4.548   1.265  14.760  0.6998  1.1930  1.3506
16372TIP3    H270608   4.432   1.262  14.664  1.2320 -2.3855  0.6663
16373TIP3   OH270609   6.105   1.008  15.165 -0.1844  0.5424 -0.0188
16373TIP3    H170610   6.066   0.957  15.095 -1.5235  1.6940 -0.1422
16373TIP3    H270611   6.179   0.954  15.195 -0.9509 -0.9930 -0.7765
16374TIP3   OH270612   1.066   0.686   1.645 -0.4663 -0.0328  0.1224
16374TIP3    H170613   1.018   0.756   1.601 -1.4965 -0.1664  0.9787
16374TIP3    H270614   0.998   0.628   1.679  0.1941  0.5438  2.6629
16375TIP3   OH270615   4.845   1.231  13.263 -0.1942  0.2971  0.1218
16375TIP3    H170616   4.768   1.176  13.277 -0.0618  0.1296  0.1943
16375TIP3    H270617   4.811   1.320  13.264  0.1052  0.5085  3.9819
16376TIP3   OH270618   4.998   5.874   2.182  0.0912 -0.3087  0.3357
16376TIP3    H170619   4.937   5.801   2.177 -1.5103  0.8904  1.2819
16376TIP3    H270620   4.996   5.913   2.094 -0.4682 -0.3261  0.3370
16377TIP3   OH270621   1.058   6.701  15.373  0.0851 -0.2146 -0.0285
16377TIP3    H170622   1.007   6.694  15.293 -0.5334  0.5474  0.2777
16377TIP3    H270623   1.117   6.626  15.371  0.4379  0.0768 -1.4424
16378TIP3   OH270624   2.554   4.698   3.283  0.4449  0.5855  0.0438
16378TIP3    H170625   2.496   4.737   3.348 -0.8750 -1.4038  0.1384
16378TIP3    H270626   2.592   4.622   3.328  0.4972 -0.0807 -1.1034
16379TIP3   OH270627   4.298   1.565  16.096 -0.3811  0.2257 -0.3505
16379TIP3    H170628   4.267   1.539  16.010  0.1380 -2.4171  0.1759
16379TIP3    H270629   4.392   1.579  16.085 -0.3599  0.1414 -0.2843
16380TIP3   OH270630   3.254   0.050  11.252 -0.2850  0.0203 -0.1017
16380TIP3    H170631   3.177   0.089  11.211  0.3765  0.3038 -1.1038
16380TIP3    H270632   3.303   0.010  11.179  0.8847  0.4750  0.4123
16381TIP3   OH270633   0.700   4.209   2.437 -0.6192 -0.3284  0.2833
16381TIP3    H170634   0.752   4.180   2.512 -1.8226 -0.4827  1.0835
16381TIP3    H270635   0.689   4.130   2.384  0.0356 -0.2707  0.0495
16382TIP3   OH270636   5.645   4.746  15.197  0.6695  0.3746  0.0891
16382TIP3    H170637   5.639   4.651  15.201  3.1536  0.1839  1.5267
16382TIP3    H270638   5.598   4.770  15.117 -2.2743 -1.7521  0.9999
16383TIP3   OH270639   2.273   1.366  17.086 -0.8077 -0.1358  0.2566
16383TIP3    H170640   2.230   1.429  17.145 -0.2400  0.6514 -0.1403
16383TIP3    H270641   2.252   1.398  16.998 -1.4702 -1.1821  0.0203
16384TIP3   OH270642   4.660   2.671  11.076 -0.1779 -0.4572 -0.1239
16384TIP3    H170643   4.678   2.637  11.164  0.1068  0.3617  0.1405
16384TIP3    H270644   4.572   2.709  11.083  0.5615  1.2598  0.3282
16385TIP3   OH270645   6.770   1.055  16.797  0.3337  0.0852  0.4122
16385TIP3    H170646   6.761   1.091  16.709 -0.1532 -0.4759  0.2248
16385TIP3    H270647   6.858   1.080  16.825  0.6572 -0.1095 -0.4152
16386TIP3   OH270648   4.358   6.829   4.196 -0.1985 -0.5440  0.3512
16386TIP3    H170649   4.394   6.794   4.278  0.2162 -0.7261  0.0914
16386TIP3    H270650   4.263   6.822   4.208 -0.1464 -0.4676  0.8629
16387TIP3   OH270651   3.228   3.335  12.105  0.3027 -0.4224  0.0189
16387TIP3    H170652   3.297   3.362  12.166 -0.9786 -0.9556  1.7856
16387TIP3    H270653   3.273   3.282  12.039  1.7558  0.2878  0.4019
16388TIP3   OH270654   6.300   4.267  13.056 -0.4079 -0.3697 -0.3310
16388TIP3    H170655   6.359   4.238  12.987 -1.2459  1.6376 -2.0203
16388TIP3    H270656   6.307   4.363  13.055 -1.9426 -0.1885  0.9861
16389TIP3   OH270657   0.434   4.136  12.669  0.2204  0.4111 -0.0200
16389TIP3    H170658   0.458   4.190  12.594  1.4886 -1.3009 -0.9189
16389TIP3    H270659   0.395   4.197  12.731 -1.4675  1.7946 -2.2916
16390TIP3   OH270660   3.766   5.479   6.098 -0.8963  0.1569  0.0011
16390TIP3    H170661   3.768   5.564   6.143  1.0562 -0.0283  0.3167
16390TIP3    H270662   3.781   5.414   6.167  2.3912 -0.1113 -0.7919
16391TIP3   OH270663   5.237   0.652   0.566 -0.1675 -0.5518 -0.0993
16391TIP3    H170664   5.230   0.723   0.502 -1.5181 -1.6986 -1.2703
16391TIP3    H270665   5.326   0.619   0.555  0.2184  0.4343 -0.0826
16392TIP3   OH270666   1.825   5.887   6.250 -0.1890 -0.7772  0.8033
16392TIP3    H170667   1.823   5.921   6.340  2.0889  0.6961  0.3803
16392TIP3    H270668   1.910   5.843   6.244  0.3377  0.3987 -1.0101
16393TIP3   OH270669   6.066   5.312   1.799  0.8701 -0.7339 -0.7039
16393TIP3    H170670   6.042   5.344   1.886 -0.4079 -0.9657 -0.9417
16393TIP3    H270671   6.078   5.218   1.811 -0.6664 -0.9984 -1.0099
16394TIP3   OH270672   3.994   4.739  16.421 -0.0365  0.1022  0.3686
16394TIP3    H170673   4.014   4.648  16.400  2.1010  0.5195  0.3975
16394TIP3    H270674   4.068   4.769  16.473  0.0665  2.3143 -0.9106
16395TIP3   OH270675   4.674   1.085   2.224 -0.0487  0.1847 -0.0488
16395TIP3    H170676   4.630   1.164   2.192 -0.4171  0.3667  0.8824
16395TIP3    H270677   4.768   1.106   2.217 -0.1339  0.4359 -0.4552
16396TIP3   OH270678   6.445   4.896  13.127 -0.8657 -0.0686  0.1713
16396TIP3    H170679   6.350   4.890  13.126 -1.1414  2.8149  1.0223
16396TIP3    H270680   6.464   4.972  13.182  1.8437  0.6713 -1.5847
16397TIP3   OH270681   5.164   5.006  16.464 -0.3029 -0.1810 -0.0210
16397TIP3    H170682   5.216   5.060  16.404 -1.5094 -1.0649 -1.9965
16397TIP3    H270683   5.227   4.973  16.528  0.9500  1.3180 -0.4262
16398TIP3   OH270684   4.506   4.597  15.063 -0.1213 -0.3832  0.5606
16398TIP3    H170685   4.412   4.613  15.058 -0.1351 -0.5494  0.2607
16398TIP3    H270686   4.535   4.598  14.971 -0.0918 -1.9426  0.5303
16399TIP3   OH270687   6.000   3.352  13.873 -0.7788  0.3327  0.1712
16399TIP3    H170688   6.005   3.284  13.941  3.8965  1.9415  1.8369
16399TIP3    H270689   6.063   3.324  13.807 -1.0400  1.6041 -0.6401
16400TIP3   OH270690   1.345   4.369   4.337  0.1785  0.1287  0.6486
16400TIP3    H170691   1.308   4.451   4.304 -0.2311 -0.4452 -0.3534
16400TIP3    H270692   1.271   4.309   4.341  0.2773  0.0683  2.3198
16401TIP3   OH270693   6.327   0.155  16.226  0.8060 -0.5798 -0.4762
16401TIP3    H170694   6.300   0.066  16.247  0.9661 -0.5609 -0.1853
16401TIP3    H270695   6.403   0.171  16.282  0.7316 -0.2347 -0.4709
16402TIP3   OH270696   2.342   5.110   6.840 -0.1999  0.0870  0.4739
16402TIP3    H170697   2.280   5.178   6.811 -1.1111 -1.0033 -0.2112
16402TIP3    H270698   2.287   5.035   6.860  0.8917 -0.8408  0.0790
16403TIP3   OH270699   1.615   4.301  13.048  0.2424  0.1307  0.5046
16403TIP3    H170700   1.670   4.336  13.118  0.6209  0.1840  0.1843
16403TIP3    H270701   1.677   4.270  12.982 -0.1177  0.5374 -0.0345
16404TIP3   OH270702   1.687   1.810  15.574  0.3232 -0.3800  0.0429
16404TIP3    H170703   1.769   1.857  15.586  1.8854 -2.8053 -0.2279
16404TIP3    H270704   1.700   1.727  15.621 -2.2615 -0.5844  0.5547
16405TIP3   OH270705   0.493   5.369  13.672  0.1869  0.0410  0.2651
16405TIP3    H170706   0.415   5.318  13.692  0.2730 -1.0238 -1.8791
16405TIP3    H270707   0.563   5.328  13.723 -0.0568 -1.0099 -0.2209
16406TIP3   OH270708   0.053   1.765  15.450 -0.2322  0.3114 -0.1088
16406TIP3    H170709  -0.012   1.742  15.384  0.7381 -0.3320 -0.8641
16406TIP3    H270710   0.003   1.773  15.531 -1.1617 -0.8141 -0.5460
16407TIP3   OH270711   0.851   6.481   1.305 -0.0246 -0.2138 -0.6633
16407TIP3    H170712   0.796   6.414   1.265  1.3212 -0.7520 -1.7061
16407TIP3    H270713   0.817   6.490   1.394 -2.0468 -0.1830 -1.4042
16408TIP3   OH270714   0.819   1.117   1.903 -0.9599 -0.1179 -0.2176
16408TIP3    H170715   0.730   1.097   1.931 -0.5899 -0.1357  1.0107
16408TIP3    H270716   0.843   1.195   1.953  0.8489 -1.9677  2.0150
16409TIP3   OH270717   2.250   1.070   0.280 -0.0036 -0.0469  0.0140
16409TIP3    H170718   2.328   1.019   0.302  0.0175 -0.4209 -0.8891
16409TIP3    H270719   2.261   1.092   0.188 -2.1698 -2.2824 -0.8675
16410TIP3   OH270720   3.234   2.269   2.176  0.3785  0.0032 -0.0275
16410TIP3    H170721   3.234   2.356   2.135  0.0574  0.8156  1.6183
16410TIP3    H270722   3.289   2.216   2.119  1.4423  1.5610 -0.5259
16411TIP3   OH270723   2.523   5.613   5.021  0.2123 -0.1436  0.4699
16411TIP3    H170724   2.578   5.644   5.093 -0.3097 -0.0004  0.8098
16411TIP3    H270725   2.438   5.653   5.037  0.1710  0.1283 -0.3954
16412TIP3   OH270726   4.487   1.395   1.700  0.3704 -0.5116 -0.3492
16412TIP3    H170727   4.525   1.465   1.752 -0.7097  0.5117 -0.8718
16412TIP3    H270728   4.410   1.435   1.659  0.1729 -1.7849 -1.2945
16413TIP3   OH270729   1.957   0.992   3.811  0.2472 -0.8480 -0.2039
16413TIP3    H170730   1.882   1.017   3.756  1.0862 -0.3347 -1.1572
16413TIP3    H270731   2.033   1.030   3.766  0.8793  0.6047  1.9479
16414TIP3   OH270732   2.216   1.156  15.245 -0.0222  0.5449 -0.2934
16414TIP3    H170733   2.129   1.195  15.253 -0.9412 -1.0295 -1.9317
16414TIP3    H270734   2.260   1.180  15.326 -1.3833  2.7744 -0.1253
16415TIP3   OH270735   4.736   4.227   3.210  0.2954 -0.0841 -0.1155
16415TIP3    H170736   4.651   4.266   3.233  0.3409 -0.8072  1.4639
16415TIP3    H270737   4.722   4.133   3.223  1.6986 -0.1028  1.4833
16416TIP3   OH270738   6.667   1.852  13.185  0.4897 -0.6169  0.2074
16416TIP3    H170739   6.623   1.874  13.103 -2.2336 -1.1159  1.4450
16416TIP3    H270740   6.701   1.763  13.170  0.9500 -0.3042 -0.6983
16417TIP3   OH270741   1.931   2.717   3.105 -0.5926  0.1772  0.1212
16417TIP3    H170742   1.990   2.665   3.049 -1.2667 -0.5625  0.0853
16417TIP3    H270743   1.961   2.700   3.194 -1.3026 -0.9340  0.1692
16418TIP3   OH270744   6.723   6.761   0.374  0.2648 -0.6274 -0.6839
16418TIP3    H170745   6.806   6.804   0.355  1.0844 -2.1087 -0.5504
16418TIP3    H270746   6.698   6.719   0.291 -0.9992  0.8092 -1.0786
16419TIP3   OH270747   2.874   3.720  12.829 -0.0551 -0.3542 -0.7235
16419TIP3    H170748   2.961   3.745  12.798 -0.5515  2.1176 -0.3851
16419TIP3    H270749   2.835   3.670  12.757  1.0612 -0.0914 -1.5297
16420TIP3   OH270750   4.061   6.629   0.812 -0.4852 -0.3406 -0.5029
16420TIP3    H170751   4.084   6.709   0.860  1.1543 -0.6886 -0.6407
16420TIP3    H270752   3.966   6.624   0.818 -0.4447  0.3498  1.5511
16421TIP3   OH270753   2.854   5.859  13.750 -0.4652  0.5518  0.2530
16421TIP3    H170754   2.862   5.857  13.845  0.0100 -0.4562  0.2070
16421TIP3    H270755   2.798   5.784  13.729  1.4112 -0.7318 -0.4035
16422TIP3   OH270756   6.531   4.485  16.160 -0.0924 -0.2522  0.0344
16422TIP3    H170757   6.502   4.458  16.073  0.3336  0.2629 -0.2783
16422TIP3    H270758   6.465   4.548  16.188  0.0510 -0.0203 -0.1454
16423TIP3   OH270759   0.686   3.853   2.371  0.4202 -0.3052  0.0585
16423TIP3    H170760   0.739   3.789   2.324  0.8982  0.8866 -1.0579
16423TIP3    H270761   0.644   3.802   2.441  1.5004 -1.6463 -0.2315
16424TIP3   OH270762   5.458   2.995   3.602 -0.9090  0.3657  0.1458
16424TIP3    H170763   5.522   2.973   3.670 -1.1377 -1.9070 -0.3087
16424TIP3    H270764   5.410   3.070   3.638  0.4985  0.6691  1.4687
16425TIP3   OH270765   2.363   1.029   3.334 -0.2036 -0.2925 -0.1120
16425TIP3    H170766   2.340   0.953   3.388 -0.5745  1.0268  1.6502
16425TIP3    H270767   2.412   0.991   3.261  2.1390 -2.0468  2.1407
16426TIP3   OH270768   0.162   0.971  14.247  0.1469 -0.3114  0.3598
16426TIP3    H170769   0.195   1.031  14.314  1.7555  0.8622 -1.3624
16426TIP3    H270770   0.145   1.028  14.171 -0.7285 -1.7088 -0.5326
16427TIP3   OH270771   5.774   2.108   5.572  0.2728 -0.0781 -0.3089
16427TIP3    H170772   5.779   2.152   5.487  0.5236  0.6516  0.0723
16427TIP3    H270773   5.849   2.048   5.572 -0.6740 -1.3058 -1.2549
16428TIP3   OH270774   3.409   3.136  12.495 -0.3235  0.2926  0.1462
16428TIP3    H170775   3.446   3.070  12.554 -0.0079  0.3953  0.0628
16428TIP3    H270776   3.473   3.207  12.496 -0.4599  0.4179 -0.0966
16429TIP3   OH270777   0.598   1.008   5.034  0.5579  0.0152  0.1807
16429TIP3    H170778   0.628   1.072   5.098  2.6121  0.1326 -0.8374
16429TIP3    H270779   0.534   1.056   4.981 -0.7427  0.0789  1.7145
16430TIP3   OH270780   1.277   3.785   2.410  0.0867 -0.1388  0.5359
16430TIP3    H170781   1.363   3.744   2.402 -0.1588 -0.2588 -3.2440
16430TIP3    H270782   1.293   3.878   2.399 -0.1427 -0.0089  1.2543
16431TIP3   OH270783   6.450   6.801   3.367  0.4292  0.5679 -0.1760
16431TIP3    H170784   6.501   6.853   3.306  1.6657  1.3162  1.4361
16431TIP3    H270785   6.484   6.712   3.357  0.8834  0.7519 -0.3032
16432TIP3   OH270786   6.093   5.510   0.598 -0.2043 -0.1641 -0.5430
16432TIP3    H170787   6.073   5.549   0.683 -0.1915  0.7016 -0.9319
16432TIP3    H270788   6.018   5.452   0.580  0.4242 -1.4162  0.6669
16433TIP3   OH270789   5.294   1.796   2.453  0.2701 -0.5181 -0.0453
16433TIP3    H170790   5.310   1.794   2.548  0.3986  0.0885 -0.0457
16433TIP3    H270791   5.203   1.767   2.444 -0.3692  1.2011  0.4466
16434TIP3   OH270792   2.367   4.330  10.620 -0.4189  0.1122 -0.3756
16434TIP3    H170793   2.368   4.242  10.581 -0.9089 -0.2407  0.3976
16434TIP3    H270794   2.384   4.388  10.546  2.7792 -0.7655 -0.4584
16435TIP3   OH270795   1.414   5.051   1.623  0.0676  0.2081 -0.2284
16435TIP3    H170796   1.488   4.996   1.647 -1.4448 -1.8333  0.0939
16435TIP3    H270797   1.339   5.012   1.669 -1.1709  2.3711 -0.2700
16436TIP3   OH270798   5.248   5.003   4.670  0.2527 -0.5359  0.1043
16436TIP3    H170799   5.153   5.002   4.686  0.3306 -1.8978  0.5882
16436TIP3    H270800   5.273   5.094   4.687 -1.1639  0.2013 -1.4009
16437TIP3   OH270801   5.987   2.446   6.116  0.4715 -0.4372  0.4404
16437TIP3    H170802   5.987   2.484   6.204 -1.5521  1.7202 -0.3976
16437TIP3    H270803   6.078   2.419   6.102  1.3142  1.1312  2.3711
16438TIP3   OH270804   4.270   4.266   2.970  0.1150  0.4607 -0.3691
16438TIP3    H170805   4.360   4.269   2.938 -0.8730  1.8807 -3.3838
16438TIP3    H270806   4.274   4.210   3.047  3.2823 -0.9595 -1.3930
16439TIP3   OH270807   1.704   1.685  13.605  0.1634  0.2697  0.3073
16439TIP3    H170808   1.659   1.761  13.641  0.2882  1.1382 -1.2813
16439TIP3    H270809   1.695   1.695  13.510  1.6609 -0.8001  0.0244
16440TIP3   OH270810   4.696   5.856   4.839 -0.0138  0.1729 -0.1053
16440TIP3    H170811   4.723   5.930   4.894  0.8688  0.3257 -0.7250
16440TIP3    H270812   4.613   5.885   4.800 -1.5179 -0.5674  2.3367
16441TIP3   OH270813   0.403   4.515  15.130 -0.2177 -0.1624  0.7175
16441TIP3    H170814   0.481   4.556  15.094 -0.4092 -0.3104  0.1243
16441TIP3    H270815   0.427   4.424  15.144 -0.5872 -0.4565 -0.4431
16442TIP3   OH270816   6.250   1.819   0.792 -0.6112  0.4137  0.6536
16442TIP3    H170817   6.231   1.733   0.830  0.5480  0.4643  1.3883
16442TIP3    H270818   6.345   1.824   0.791 -0.6284  0.9422 -1.1119
16443TIP3   OH270819   0.399   1.560  12.017 -0.0377  0.6882  0.1121
16443TIP3    H170820   0.398   1.509  12.098  1.0685  0.3649 -0.0737
16443TIP3    H270821   0.351   1.640  12.039 -0.3014  0.3205  0.8984
16444TIP3   OH270822   4.895   6.331  11.344  0.0054 -0.3532  0.2033
16444TIP3    H170823   4.978   6.328  11.393  0.7867  0.0789 -1.0518
16444TIP3    H270824   4.834   6.374  11.405  0.5106 -1.2468  1.3835
16445TIP3   OH270825   5.541   1.554   0.389  0.3323 -0.2580 -0.0482
16445TIP3    H170826   5.482   1.624   0.419  0.2716  0.1473 -1.0806
16445TIP3    H270827   5.628   1.592   0.394  0.1855  0.4128 -1.9484
16446TIP3   OH270828   3.771   0.402   3.950 -0.0712  0.3312  0.4960
16446TIP3    H170829   3.757   0.380   3.858  0.6113  0.3284  0.3831
16446TIP3    H270830   3.684   0.418   3.985 -0.5301 -1.4954  0.3145
16447TIP3   OH270831   6.287   4.417   5.661 -0.3243  0.0966  0.5623
16447TIP3    H170832   6.321   4.375   5.739 -0.1134 -0.4069  0.2060
16447TIP3    H270833   6.321   4.506   5.664  2.4833 -0.8244 -0.6241
16448TIP3   OH270834   6.186   1.992   2.155 -0.5043  0.1569  0.5737
16448TIP3    H170835   6.125   1.923   2.182  1.0797 -1.5343  0.0061
16448TIP3    H270836   6.130   2.067   2.135 -2.1836 -0.4806  2.5471
16449TIP3   OH270837   5.953   2.283   5.132 -0.2194  0.6370  0.2073
16449TIP3    H170838   6.045   2.256   5.129  0.4089  2.6830 -0.6578
16449TIP3    H270839   5.920   2.267   5.043  0.2125  2.6930 -0.3723
16450TIP3   OH270840   6.294   1.093  11.499  0.3583 -0.0564 -0.7155
16450TIP3    H170841   6.365   1.153  11.477  1.2882 -1.5247 -1.8850
16450TIP3    H270842   6.255   1.069  11.415 -1.2102  0.3005 -0.1363
16451TIP3   OH270843   0.801   0.062  17.143  0.6798 -0.0530 -0.0099
16451TIP3    H170844   0.743   0.061  17.067 -0.1776  1.7521  0.5662
16451TIP3    H270845   0.870   0.124  17.120  1.0568 -0.3802  0.2339
16452TIP3   OH270846   0.865   4.027  12.610  0.0666 -0.1846  0.1578
16452TIP3    H170847   0.850   4.068  12.695  0.7105  0.0235  0.1722
16452TIP3    H270848   0.813   3.946  12.614 -0.8693  0.3997  0.2848
16453TIP3   OH270849   4.073   0.335   4.843  0.0680  0.0116  0.5861
16453TIP3    H170850   4.027   0.265   4.796 -0.5570  2.0993 -2.1845
16453TIP3    H270851   4.156   0.296   4.870  0.4806 -1.4208 -2.3409
16454TIP3   OH270852   2.240   5.563  12.571  0.0575  0.1070  0.5426
16454TIP3    H170853   2.240   5.468  12.557 -0.7426  0.1568  0.1368
16454TIP3    H270854   2.252   5.573  12.665 -0.2791 -0.4200  0.6496
16455TIP3   OH270855   5.628   4.774  13.357 -0.5547 -0.2032 -0.3346
16455TIP3    H170856   5.539   4.742  13.366 -0.6819  0.6958  2.9182
16455TIP3    H270857   5.619   4.869  13.353  0.2298 -0.1404 -0.9185
16456TIP3   OH270858   0.637   3.890   5.082 -0.2399  0.4646 -0.0438
16456TIP3    H170859   0.707   3.908   5.144  0.3203 -2.4577  0.3114
16456TIP3    H270860   0.562   3.867   5.137  0.2368 -2.0621 -0.3487
16457TIP3   OH270861   5.136   0.030  13.866 -0.2040  0.0407  0.1123
16457TIP3    H170862   5.077  -0.045  13.858  0.3517 -0.2783 -1.2685
16457TIP3    H270863   5.091   0.101  13.821 -0.2149  0.2162  0.4011
16458TIP3   OH270864   3.983   5.975  17.035 -0.3179  0.1816  0.2010
16458TIP3    H170865   3.887   5.979  17.037 -0.3842 -1.1131  0.7908
16458TIP3    H270866   4.008   5.962  17.127  0.5036  1.6111  0.2051
16459TIP3   OH270867   6.696   6.670  12.183  0.5931 -0.6153 -0.0741
16459TIP3    H170868   6.677   6.639  12.094 -2.3680  0.3070  0.1345
16459TIP3    H270869   6.692   6.765  12.176 -0.8495 -0.5553  1.2488
16460TIP3   OH270870   1.510   1.288   3.462 -0.1155 -0.4401 -0.0682
16460TIP3    H170871   1.587   1.345   3.459  0.7992 -1.6731 -0.7221
16460TIP3    H270872   1.438   1.347   3.485  1.1679  0.5653  1.6326
16461TIP3   OH270873   3.649   4.888   2.359 -0.4964  0.2478 -0.1663
16461TIP3    H170874   3.641   4.865   2.452  1.0206 -1.3641 -0.3718
16461TIP3    H270875   3.582   4.954   2.345 -1.8288 -0.5964  1.7198
16462TIP3   OH270876   1.076   2.006   0.267 -0.2079  0.2287  0.9412
16462TIP3    H170877   1.142   1.939   0.285 -1.9023 -2.8376 -2.6942
16462TIP3    H270878   1.124   2.078   0.226  1.3676  0.2358  2.6993
16463TIP3   OH270879   2.504   1.273  11.966 -0.1578 -0.5649 -0.9197
16463TIP3    H170880   2.538   1.276  11.877 -0.1248 -1.4540 -0.9396
16463TIP3    H270881   2.504   1.181  11.989  5.2391 -0.1753  2.0881
16464TIP3   OH270882   2.938   4.919  16.494  0.0529  0.8505  0.3726
16464TIP3    H170883   2.989   4.994  16.524  2.5923 -0.2169 -1.0293
16464TIP3    H270884   2.895   4.949  16.414 -0.4305  1.3493  0.8149
16465TIP3   OH270885   2.896   3.982  17.004  0.2189 -0.0934  0.6930
16465TIP3    H170886   2.924   4.043  16.934  0.8789 -1.4850 -0.3004
16465TIP3    H270887   2.870   4.040  17.076 -1.6520  1.4705 -1.0854
16466TIP3   OH270888   1.791   0.791   3.334  0.2581  0.2730 -0.2429
16466TIP3    H170889   1.787   0.881   3.300 -2.0453 -0.6653 -2.7512
16466TIP3    H270890   1.719   0.786   3.396  0.2597  0.0902 -0.2567
16467TIP3   OH270891   0.528   1.480   3.991 -0.1320 -0.8358 -0.3462
16467TIP3    H170892   0.605   1.437   3.953  0.5279  0.5167 -0.5883
16467TIP3    H270893   0.515   1.436   4.075  0.6286 -1.3776 -0.5019
16468TIP3   OH270894   6.614   3.020  15.828  0.4437 -0.1022  0.0831
16468TIP3    H170895   6.710   3.028  15.829  0.3588  1.2498  2.0143
16468TIP3    H270896   6.583   3.105  15.798 -0.1608  0.3934  1.9814
16469TIP3   OH270897   1.227   0.271   2.742  0.3282 -0.2422  0.1182
16469TIP3    H170898   1.316   0.274   2.778  0.0663 -0.4009  0.7936
16469TIP3    H270899   1.238   0.242   2.652  0.8592 -1.4228  0.5519
16470TIP3   OH270900   3.888   5.472  14.282 -0.3223  0.4491 -0.3948
16470TIP3    H170901   3.874   5.564  14.302 -3.3467  0.2539 -1.0501
16470TIP3    H270902   3.805   5.430  14.305  1.9507 -2.7728  3.0365
16471TIP3   OH270903   6.636   2.406  12.066 -0.4327  0.2606  0.3250
16471TIP3    H170904   6.681   2.410  12.150 -1.0571  2.3607  0.6206
16471TIP3    H270905   6.543   2.395  12.088 -0.5614  0.4433 -0.0999
16472TIP3   OH270906   3.275   5.450  15.059 -0.1784 -0.0575  0.4781
16472TIP3    H170907   3.353   5.396  15.070 -0.0625  0.1758  0.8158
16472TIP3    H270908   3.230   5.445  15.143 -1.2308 -1.2722 -0.1222
16473TIP3   OH270909   1.976   2.119  13.721  0.1937 -0.2834 -0.1868
16473TIP3    H170910   2.026   2.192  13.756  1.1668 -0.8922 -0.2719
16473TIP3    H270911   2.020   2.097  13.638  1.1804 -2.2423  0.7880
16474TIP3   OH270912   6.170   2.421  16.175  0.1948  0.2961 -0.0505
16474TIP3    H170913   6.158   2.372  16.093 -0.8705  0.4648 -0.0132
16474TIP3    H270914   6.122   2.503  16.161 -2.0021 -0.6133  1.5417
16475TIP3   OH270915   5.156   5.576  16.211 -0.1263 -0.5652 -0.3748
16475TIP3    H170916   5.127   5.635  16.142  0.9636  1.1921  0.5838
16475TIP3    H270917   5.088   5.510  16.217 -0.7250 -0.1967 -2.4307
16476TIP3   OH270918   0.035   0.097   1.410 -0.1688 -0.3703 -0.3489
16476TIP3    H170919   0.050   0.059   1.323 -0.6721 -1.6409  0.0989
16476TIP3    H270920   0.122   0.102   1.449  0.1784  1.0336 -1.2306
16477TIP3   OH270921   4.483   0.675   4.011 -0.1271  0.2268  0.3040
16477TIP3    H170922   4.398   0.655   3.972 -1.0263  0.4492  2.0702
16477TIP3    H270923   4.518   0.747   3.958 -1.6238  1.0012  0.3338
16478TIP3   OH270924   2.683   5.114   5.971 -0.1943 -0.3317  1.0070
16478TIP3    H170925   2.628   5.153   6.040 -1.1499  1.9969 -0.9342
16478TIP3    H270926   2.620   5.082   5.906  0.5811  2.4296 -1.2893
16479TIP3   OH270927   0.135   2.113   5.724  0.2082  0.2010 -0.1035
16479TIP3    H170928   0.144   2.027   5.764 -0.0760 -0.8682 -2.1777
16479TIP3    H270929   0.117   2.172   5.797  0.8271 -1.4122  1.4286
16480TIP3   OH270930   2.060   2.186   5.523  0.3828 -0.2778  0.1163
16480TIP3    H170931   2.090   2.267   5.481  1.8723 -0.9505 -0.2081
16480TIP3    H270932   2.042   2.211   5.613  1.3243  0.3325  0.1562
16481TIP3   OH270933   6.398   4.483  14.673  0.4131  0.4898 -0.3170
16481TIP3    H170934   6.477   4.522  14.711  0.4665 -0.4206  0.5526
16481TIP3    H270935   6.348   4.453  14.749  0.2364 -0.8503 -0.9351
16482TIP3   OH270936   3.313   1.945   4.512 -0.4657  0.5746  0.1214
16482TIP3    H170937   3.236   1.888   4.509 -1.0888  1.3465  0.9773
16482TIP3    H270938   3.341   1.953   4.420 -0.1793 -1.3136  0.0023
16483TIP3   OH270939   1.877   0.530   5.048  0.4566 -0.1639 -0.4035
16483TIP3    H170940   1.808   0.507   4.986 -1.0359  0.6739  0.8549
16483TIP3    H270941   1.885   0.625   5.040  0.9008 -0.1616  0.0307
16484TIP3   OH270942   4.940   3.589   2.699  0.1732  0.5264 -0.3008
16484TIP3    H170943   4.950   3.587   2.794 -0.9246  0.4353 -0.1788
16484TIP3    H270944   4.996   3.662   2.671 -0.3656  1.2837  0.5363
16485TIP3   OH270945   0.133   0.647   1.605  0.3009 -0.2565 -0.8271
16485TIP3    H170946   0.179   0.717   1.652  0.8778 -0.3182 -1.2951
16485TIP3    H270947   0.181   0.567   1.628  1.9969 -0.0388 -3.2103
16486TIP3   OH270948   3.175   4.809   6.093  0.2260 -0.4910 -1.0620
16486TIP3    H170949   3.195   4.848   6.178  0.4443 -1.8470 -0.4519
16486TIP3    H270950   3.142   4.881   6.040  1.2613  0.6432 -0.2326
16487TIP3   OH270951   4.150   5.767   3.037 -0.2268  0.6127  0.8541
16487TIP3    H170952   4.196   5.684   3.033 -0.0579  0.5736  2.6809
16487TIP3    H270953   4.210   5.827   3.081 -0.3824  1.7066 -0.3371
16488TIP3   OH270954   2.934   2.469   2.232 -0.3367 -0.0699  0.0257
16488TIP3    H170955   2.940   2.524   2.154 -0.2611  0.4440  0.3812
16488TIP3    H270956   2.866   2.511   2.285 -1.0761 -0.9718 -0.1911
16489TIP3   OH270957   5.147   0.240  13.100 -0.0722  0.3344 -0.0691
16489TIP3    H170958   5.065   0.190  13.093  0.3664 -1.0433  3.1336
16489TIP3    H270959   5.123   0.318  13.151 -0.0231  1.8372 -2.1724
16490TIP3   OH270960   6.117   2.741   1.014  0.1279  0.2079 -0.3555
16490TIP3    H170961   6.127   2.787   0.930  1.9705  0.6970  0.0842
16490TIP3    H270962   6.163   2.658   1.002 -0.7588 -0.3216 -0.2291
16491TIP3   OH270963   6.474   1.578  14.874 -0.3708  0.0138 -0.0480
16491TIP3    H170964   6.440   1.611  14.791 -0.7872  1.8644  0.8075
16491TIP3    H270965   6.565   1.608  14.876 -0.8023  1.3459  0.8158
16492TIP3   OH270966   2.471   5.496   0.898  0.2203  0.0090  0.2982
16492TIP3    H170967   2.467   5.410   0.856 -0.2595  1.0524 -1.8945
16492TIP3    H270968   2.382   5.512   0.928 -0.1726  0.5854 -1.1219
16493TIP3   OH270969   6.596   5.664   5.782 -0.1331  0.6615 -0.1328
16493TIP3    H170970   6.509   5.700   5.763  0.5076  2.7145  0.5334
16493TIP3    H270971   6.591   5.638   5.874 -0.2459  0.0990 -0.2946
16494TIP3   OH270972   5.029   1.547  12.009 -0.4993  0.0687  0.0492
16494TIP3    H170973   5.004   1.585  11.925 -0.6149  1.1096  0.5379
16494TIP3    H270974   5.121   1.523  11.998 -0.4851  0.2933 -0.3355
16495TIP3   OH270975   0.348   5.115  13.820 -0.1082  0.6089  0.0130
16495TIP3    H170976   0.375   5.026  13.843  0.9214  0.8313 -0.2661
16495TIP3    H270977   0.263   5.126  13.862 -0.7297 -0.8548 -0.7827
16496TIP3   OH270978   1.227   2.299   0.467  0.3648 -0.6176  0.3937
16496TIP3    H170979   1.236   2.267   0.377 -1.3159 -1.2336  0.3958
16496TIP3    H270980   1.143   2.347   0.466  1.9543  2.4277  0.8062
16497TIP3   OH270981   0.228   5.853   0.772 -0.0238 -0.5369 -0.4970
16497TIP3    H170982   0.145   5.823   0.810 -0.5238  2.0733  0.6839
16497TIP3    H270983   0.288   5.859   0.846  0.3629  0.2943 -0.8583
16498TIP3   OH270984   1.798   2.405   0.298  0.2882  0.6830  0.2454
16498TIP3    H170985   1.757   2.408   0.385  0.3119  3.5671  0.2739
16498TIP3    H270986   1.731   2.442   0.240  0.8798  0.3396 -0.6643
16499TIP3   OH270987   6.284   0.722  14.978 -0.0487 -0.4479  0.3415
16499TIP3    H170988   6.268   0.758  14.891 -0.4763  1.5523  1.1948
16499TIP3    H270989   6.210   0.753  15.031  0.1807 -1.6543  1.4247
16500TIP3   OH270990   1.923   0.492  14.543  0.0121  0.3007 -0.3409
16500TIP3    H170991   1.969   0.409  14.533 -0.9502 -0.1801 -1.0758
16500TIP3    H270992   1.965   0.551  14.480 -0.7546 -0.3205 -1.4684
16501TIP3   OH270993   4.118   3.426  10.871 -0.0322 -0.1609 -0.3686
16501TIP3    H170994   4.207   3.394  10.852  0.7617  1.2911  0.6895
16501TIP3    H270995   4.108   3.503  10.815 -0.7269 -0.4552 -0.6554
16502TIP3   OH270996   2.019   4.097  16.266 -0.2477 -0.5719  0.3426
16502TIP3    H170997   1.946   4.051  16.307 -1.3313  1.8410  1.3061
16502TIP3    H270998   1.978   4.153  16.200  0.7067  0.7552  0.8291
16503TIP3   OH270999   0.789   3.656  12.811  0.3025  0.7323 -0.4693
16503TIP3    H171000   0.820   3.680  12.898 -1.0022 -2.2481  0.9554
16503TIP3    H271001   0.712   3.712  12.797 -0.4366  0.1549  1.0434
16504TIP3   OH271002   6.161   1.602  16.092 -0.2724  0.0776 -0.0831
16504TIP3    H171003   6.206   1.593  16.176 -0.6906  0.2506  0.1628
16504TIP3    H271004   6.091   1.537  16.095  1.2531 -1.7424 -1.3580
16505TIP3   OH271005   6.579   1.221  13.986 -0.3816  0.3994 -0.2783
16505TIP3    H171006   6.532   1.305  13.991 -0.3891  0.4182 -0.6704
16505TIP3    H271007   6.657   1.241  13.935 -0.1723  0.2608 -0.0154
16506TIP3   OH271008   6.525   0.790  17.028  0.2397  0.1061 -0.1791
16506TIP3    H171009   6.576   0.849  17.084  0.2488 -0.6001  0.5839
16506TIP3    H271010   6.576   0.710  17.025 -0.1890 -0.1601 -0.4994
16507TIP3   OH271011   6.147   2.683   4.638 -0.3223  0.3476  0.6910
16507TIP3    H171012   6.195   2.631   4.573 -2.4685  1.4863 -2.0095
16507TIP3    H271013   6.125   2.621   4.707  0.8906 -1.2925 -0.3377
16508TIP3   OH271014   3.336   1.541  15.852  0.2949  0.5068  0.2722
16508TIP3    H171015   3.352   1.453  15.884 -1.7029  0.2707  0.7616
16508TIP3    H271016   3.292   1.586  15.925  0.0703  1.4743 -0.4336
16509TIP3   OH271017   5.346   6.715  13.230  0.4251 -0.1916  0.4524
16509TIP3    H171018   5.332   6.745  13.140  1.1027 -0.1715  0.3478
16509TIP3    H271019   5.307   6.628  13.233  0.2059 -0.1025  0.1994
16510TIP3   OH271020   2.604   4.893  10.893  0.3245  0.1009  0.0551
16510TIP3    H171021   2.557   4.854  10.968 -0.2224  0.9458  0.1687
16510TIP3    H271022   2.648   4.819  10.852  1.3090 -0.2786  1.6742
16511TIP3   OH271023   2.046   1.002   4.624 -0.3369 -0.3110  0.5876
16511TIP3    H171024   2.083   0.957   4.548 -0.5816 -0.4685  0.5615
16511TIP3    H271025   2.006   0.933   4.676 -0.8590 -0.1060  0.4631
16512TIP3   OH271026   3.423   3.894  12.875  0.1509 -0.5345 -0.3684
16512TIP3    H171027   3.508   3.900  12.831  0.1763 -0.0993 -0.2652
16512TIP3    H271028   3.446   3.882  12.968  0.1348 -3.9488 -0.6855
16513TIP3   OH271029   6.615   4.483  14.871 -0.2378  0.3333  0.0748
16513TIP3    H171030   6.575   4.549  14.927  0.7838  1.5207 -0.5506
16513TIP3    H271031   6.704   4.515  14.856  0.0744 -0.8666 -0.7675
16514TIP3   OH271032   0.317   1.029  16.653 -0.8388  0.2295 -0.0207
16514TIP3    H171033   0.326   0.941  16.690 -0.8299 -0.0764 -0.7454
16514TIP3    H271034   0.402   1.046  16.613 -1.7390 -0.6181 -2.4364
16515TIP3   OH271035   3.449   0.147   3.077  0.7814  0.4665  0.2187
16515TIP3    H171036   3.501   0.171   3.000 -0.3835  0.9796 -0.4282
16515TIP3    H271037   3.419   0.231   3.113  0.8157  0.2001  0.8860
16516TIP3   OH271038   2.569   4.604  15.518  0.4089 -0.8621  0.1054
16516TIP3    H171039   2.600   4.524  15.476  2.9510 -2.6133  4.6398
16516TIP3    H271040   2.649   4.656  15.530 -0.1954 -0.4016  2.4312
16517TIP3   OH271041   3.571   5.542   4.391  0.1559  0.3028 -0.2062
16517TIP3    H171042   3.606   5.466   4.346  2.4767  1.9934 -1.4161
16517TIP3    H271043   3.486   5.512   4.426  0.3856 -2.3978 -1.7216
16518TIP3   OH271044   0.148   0.096   3.526  0.7112  0.8827 -0.2272
16518TIP3    H171045   0.184   0.115   3.439  2.1291 -1.2798 -0.1772
16518TIP3    H271046   0.113   0.007   3.519 -0.7930  1.3375  0.9579
16519TIP3   OH271047   4.381   4.694  12.215  0.2610 -0.0857  0.7356
16519TIP3    H171048   4.306   4.751  12.201  0.8390  0.6508  0.5666
16519TIP3    H271049   4.405   4.708  12.306 -0.8939 -1.6881  1.3364
16520TIP3   OH271050   5.464   4.365  11.985 -0.3901  0.4151 -0.1587
16520TIP3    H171051   5.440   4.409  12.067 -0.5422 -0.6538  0.3838
16520TIP3    H271052   5.493   4.436  11.928  2.4024  0.9402  1.7306
16521TIP3   OH271053   5.486   5.433  16.465 -0.0203 -0.2263  0.0658
16521TIP3    H171054   5.500   5.496  16.395  1.0524  0.9865  1.2985
16521TIP3    H271055   5.449   5.357  16.422 -0.2366  0.8005 -1.6674
16522TIP3   OH271056   5.091   6.103  16.372 -0.2725 -0.1071 -0.3261
16522TIP3    H171057   5.111   6.162  16.445 -2.9669 -0.7391  1.0510
16522TIP3    H271058   5.035   6.035  16.410 -0.1248 -1.6070 -2.5890
16523TIP3   OH271059   1.333   4.353   1.231  0.4685 -0.5198  0.4800
16523TIP3    H171060   1.411   4.298   1.224  2.0725  1.6671  0.0055
16523TIP3    H271061   1.337   4.410   1.155 -0.3042  1.1925  1.6558
16524TIP3   OH271062   1.702   2.441  15.778  0.2824  0.1248  0.2291
16524TIP3    H171063   1.692   2.530  15.811 -0.5143  0.7650 -1.6114
16524TIP3    H271064   1.765   2.448  15.706  1.0896 -1.0137  0.7890
16525TIP3   OH271065   0.922   1.763   4.819 -0.6175 -0.4328  0.0363
16525TIP3    H171066   0.920   1.668   4.812 -3.4485 -0.6165  1.7322
16525TIP3    H271067   0.844   1.792   4.772  0.0842  1.0613 -0.2663
16526TIP3   OH271068   5.154   6.304  11.423  0.2562 -0.5133 -0.3268
16526TIP3    H171069   5.150   6.369  11.494  1.7101  0.8474 -1.4347
16526TIP3    H271070   5.139   6.220  11.467 -2.1205  0.5381  1.1056
16527TIP3   OH271071   2.050   5.675   3.885  0.1841  0.2167 -0.1602
16527TIP3    H171072   2.030   5.619   3.960  0.5381 -0.9708 -0.9218
16527TIP3    H271073   1.965   5.706   3.854 -0.1429 -0.9977 -0.5307
16528TIP3   OH271074   3.429   6.321   1.757  0.4546 -0.3895  0.7235
16528TIP3    H171075   3.431   6.227   1.741 -1.0581 -0.3959  0.3772
16528TIP3    H271076   3.353   6.352   1.707  0.7232  0.9610  1.1057
16529TIP3   OH271077   6.786   3.513   1.735 -0.1465 -0.0588  0.0938
16529TIP3    H171078   6.860   3.564   1.703  0.4496  0.1484  1.6912
16529TIP3    H271079   6.749   3.566   1.805  0.1698 -1.5299  1.4409
16530TIP3   OH271080   0.082   0.922   5.563  0.1476 -0.3890 -0.1943
16530TIP3    H171081   0.110   0.833   5.541  2.6964  0.1045  0.8070
16530TIP3    H271082   0.126   0.977   5.498  1.0166  0.3606  0.9938
16531TIP3   OH271083   5.644   3.710  13.707 -0.3361  0.6741  0.0371
16531TIP3    H171084   5.641   3.626  13.752  0.3212  0.4723 -0.2916
16531TIP3    H271085   5.621   3.774  13.775 -1.6099  0.1812  0.1065
16532TIP3   OH271086   3.876   1.227   1.471 -0.1219  0.4505  0.0534
16532TIP3    H171087   3.890   1.150   1.526  0.4511  1.6546  1.6615
16532TIP3    H271088   3.781   1.239   1.471 -0.0628  1.9926  3.1770
16533TIP3   OH271089   1.266   0.488  14.739 -0.2370 -0.2864  0.4394
16533TIP3    H171090   1.277   0.414  14.680  1.1737  0.3030 -0.0813
16533TIP3    H271091   1.226   0.451  14.817 -1.1106 -1.2797 -0.4427
16534TIP3   OH271092   1.337   2.889  15.406  0.1502 -0.2239 -0.1239
16534TIP3    H171093   1.406   2.870  15.468 -0.2465  0.2040  0.4560
16534TIP3    H271094   1.353   2.828  15.333  0.6775 -0.6510  0.3386
16535TIP3   OH271095   3.084   5.110  14.073 -0.0338  0.0109 -0.3052
16535TIP3    H171096   3.133   5.057  14.011  2.7555  3.3495 -1.3128
16535TIP3    H271097   3.039   5.175  14.019  0.3716  1.4362  0.9998
16536TIP3   OH271098   4.818   1.866  15.900 -0.1753 -0.2648 -0.4428
16536TIP3    H171099   4.724   1.863  15.919 -0.0844 -0.0973  0.0442
16536TIP3    H271100   4.826   1.829  15.812 -0.4588 -2.3206  0.3494
16537TIP3   OH271101   3.256   5.409   5.521 -0.0899  0.6479  0.0619
16537TIP3    H171102   3.246   5.341   5.455  2.3033  2.5704 -2.4930
16537TIP3    H271103   3.196   5.478   5.494  0.7574  1.3708 -0.0239
16538TIP3   OH271104   2.812   6.741   3.030 -0.2954  0.7479  0.6223
16538TIP3    H171105   2.828   6.787   3.113 -1.4146  0.3185  1.0994
16538TIP3    H271106   2.740   6.681   3.050  0.2596 -0.2631 -0.3399
16539TIP3   OH271107   1.529   1.645  12.797 -0.1973 -0.1008  0.4727
16539TIP3    H171108   1.550   1.723  12.848  0.8359 -0.9394  1.4010
16539TIP3    H271109   1.603   1.635  12.737 -1.0479  0.4561 -0.7039
16540TIP3   OH271110   0.672   5.054  13.594  0.1524 -0.4624 -0.1052
16540TIP3    H171111   0.748   5.096  13.554 -0.8434  0.6419 -0.9436
16540TIP3    H271112   0.643   4.990  13.530  0.1032 -0.5404 -0.0050
16541TIP3   OH271113   2.223   6.238   2.123 -0.0338 -0.0321  0.5220
16541TIP3    H171114   2.262   6.220   2.037  0.1050  2.4888 -0.0341
16541TIP3    H271115   2.130   6.252   2.105  0.1702  1.5954  0.5299
16542TIP3   OH271116   3.856   3.112  12.742 -0.3430 -0.3649 -0.4056
16542TIP3    H171117   3.790   3.162  12.790  0.9158  0.4951  0.4587
16542TIP3    H271118   3.926   3.096  12.804  0.7329 -0.3976 -1.5773
16543TIP3   OH271119   5.689   5.065  15.244 -0.3464  0.4505 -0.0558
16543TIP3    H171120   5.609   5.087  15.196 -2.1180 -0.4789  2.3069
16543TIP3    H271121   5.703   4.973  15.225 -0.2785  0.4163  0.1690
16544TIP3   OH271122   3.678   5.810  16.516 -0.3438  1.1113 -0.1142
16544TIP3    H171123   3.668   5.905  16.524  1.1615  1.5827 -2.7128
16544TIP3    H271124   3.760   5.791  16.561 -1.3082  0.7783  1.5772
16545TIP3   OH271125   3.988   0.128   0.271  0.2727 -0.5996 -0.1157
16545TIP3    H171126   4.030   0.060   0.218  3.6480  1.3302 -0.2370
16545TIP3    H271127   3.975   0.200   0.210 -2.3536 -0.7203  0.2245
16546TIP3   OH271128   2.213   1.583  16.828  0.0823 -0.3553 -0.5810
16546TIP3    H171129   2.217   1.515  16.761 -0.8145  0.5791 -1.6063
16546TIP3    H271130   2.155   1.650  16.792  0.1551  0.5089  0.8232
16547TIP3   OH271131   5.711   2.128   1.978 -0.0018  0.8206  0.0484
16547TIP3    H171132   5.635   2.165   2.022 -0.3972  2.3790 -1.7884
16547TIP3    H271133   5.782   2.135   2.041 -0.9953  0.9378  1.1826
16548TIP3   OH271134   5.870   3.149   1.802 -0.2644 -0.5977  0.2495
16548TIP3    H171135   5.938   3.181   1.860 -0.2074  0.0822 -0.1761
16548TIP3    H271136   5.838   3.227   1.757  0.5936 -1.2387 -1.5861
16549TIP3   OH271137   3.046   1.123  11.884 -0.1975 -0.1994 -0.5678
16549TIP3    H171138   2.957   1.147  11.860 -0.8630 -0.8750  1.0978
16549TIP3    H271139   3.048   1.028  11.879  0.2909 -0.2155 -0.1460
16550TIP3   OH271140   4.458   5.643   5.678  0.3739  0.5283  0.1853
16550TIP3    H171141   4.427   5.641   5.768  0.2855 -0.0958  0.1484
16550TIP3    H271142   4.540   5.692   5.681  1.6823 -1.5303  1.0386
16551TIP3   OH271143   2.954   6.281   3.553 -0.5328  0.1253 -0.3547
16551TIP3    H171144   2.913   6.209   3.602 -0.2939  1.0064  1.1994
16551TIP3    H271145   2.881   6.337   3.527 -0.5058  0.6302  0.6367
16552TIP3   OH271146   3.256   3.258  13.147 -0.4089  0.7152  0.4776
16552TIP3    H171147   3.334   3.204  13.137 -1.9286 -1.4957 -0.2040
16552TIP3    H271148   3.274   3.337  13.095  0.8131 -0.3836 -0.8351
16553TIP3   OH271149   6.470   6.477  10.868 -0.0326  0.2630 -0.1813
16553TIP3    H171150   6.540   6.411  10.870 -0.7053 -0.6079 -2.2586
16553TIP3    H271151   6.517   6.560  10.860  0.8204  0.1080  2.3136
16554TIP3   OH271152   0.825   5.695  16.871  0.5887  0.1785 -0.2205
16554TIP3    H171153   0.896   5.710  16.934  0.2965  1.1658 -0.1160
16554TIP3    H271154   0.749   5.674  16.926  0.4862  0.4123 -0.2727
16555TIP3   OH271155   1.742   1.131   0.977  0.1013  0.3489 -0.7373
16555TIP3    H171156   1.812   1.105   0.917  1.0277 -0.2797  0.5943
16555TIP3    H271157   1.752   1.075   1.053 -2.7011 -0.7244 -1.0267
16556TIP3   OH271158   0.752   3.541  11.712 -0.1304  0.4395 -0.3469
16556TIP3    H171159   0.753   3.476  11.642 -1.4781  1.2787 -1.1826
16556TIP3    H271160   0.736   3.491  11.792 -1.9714 -0.2068 -1.0793
16557TIP3   OH271161   3.507   1.226  13.475  0.4647 -0.1886  0.2724
16557TIP3    H171162   3.423   1.253  13.439  0.3041 -0.9317  0.0766
16557TIP3    H271163   3.520   1.137  13.443  0.9053 -0.4132  1.0430
16558TIP3   OH271164   4.830   2.918  14.572  0.1102  0.3380  0.2256
16558TIP3    H171165   4.776   2.855  14.618 -0.2314  0.8415  0.5250
16558TIP3    H271166   4.848   2.878  14.487 -1.1921  0.4031 -0.0934
16559TIP3   OH271167   6.361   6.803  15.947 -0.6746  0.4723  0.0454
16559TIP3    H171168   6.447   6.818  15.907 -1.1334  2.0128 -0.4118
16559TIP3    H271169   6.363   6.711  15.972  1.3010  0.5850  0.4893
16560TIP3   OH271170   4.036   4.214   0.332  0.0520  0.0805  0.9197
16560TIP3    H171171   4.009   4.297   0.293  2.0815  0.1842 -0.4079
16560TIP3    H271172   4.131   4.217   0.332  0.1585 -1.7714  1.9467
16561TIP3   OH271173   1.164   1.408  16.559 -0.6620  0.2112 -0.0310
16561TIP3    H171174   1.151   1.410  16.654 -0.4371 -2.2623  0.1226
16561TIP3    H271175   1.076   1.407  16.523 -0.7543  0.3868  0.1862
16562TIP3   OH271176   2.173   4.628   4.505 -0.3185  0.0376 -0.1275
16562TIP3    H171177   2.112   4.683   4.556  0.5788  0.7120  0.2442
16562TIP3    H271178   2.236   4.690   4.469 -0.3098 -0.5666 -1.1881
16563TIP3   OH271179   1.944   6.473   0.522 -0.0630  0.1089 -0.2715
16563TIP3    H171180   2.040   6.469   0.522 -0.0673 -0.6524 -1.7749
16563TIP3    H271181   1.921   6.489   0.614  1.4879  0.1793  0.1419
16564TIP3   OH271182   4.541   1.780   0.053 -0.1707 -0.0334  0.2392
16564TIP3    H171183   4.583   1.701   0.084 -1.1841 -0.7294 -0.1191
16564TIP3    H271184   4.569   1.788  -0.038  2.1535  1.5681  1.0085
16565TIP3   OH271185   4.739   2.560   4.830  0.1648 -0.1150 -0.6297
16565TIP3    H171186   4.721   2.513   4.748  1.1573 -1.8601  0.0960
16565TIP3    H271187   4.816   2.517   4.865  0.4317  1.3662  0.6791
16566TIP3   OH271188   5.276   2.587   5.724  0.4822  0.0557  0.7302
16566TIP3    H171189   5.240   2.605   5.637  0.6137 -1.0993  0.4227
16566TIP3    H271190   5.366   2.560   5.707  0.8678  0.9214  1.3288
16567TIP3   OH271191   6.704   6.827   1.910 -0.1114  0.6209 -0.3014
16567TIP3    H171192   6.634   6.847   1.972 -0.0224  1.2079 -0.3865
16567TIP3    H271193   6.770   6.782   1.963 -0.0763  1.0327  0.0160
16568TIP3   OH271194   3.417   5.991   5.630 -0.0403  0.1300 -0.2105
16568TIP3    H171195   3.392   6.034   5.548 -1.3187 -1.8999 -0.9805
16568TIP3    H271196   3.512   5.994   5.632  0.1095 -0.9602 -2.5168
16569TIP3   OH271197   4.878   4.393  14.412 -0.4391  0.1825  0.1446
16569TIP3    H171198   4.891   4.347  14.495 -0.2887  0.2978  0.1852
16569TIP3    H271199   4.800   4.352  14.374 -1.2033  0.9097  0.8804
16570TIP3   OH271200   6.250   5.211   2.503  0.9245 -0.1738  0.3820
16570TIP3    H171201   6.160   5.240   2.485  1.3784 -0.3761 -2.8934
16570TIP3    H271202   6.239   5.127   2.549 -0.4622  1.0832  2.4814
16571TIP3   OH271203   5.921   0.202   2.525 -0.8854 -0.5447  0.3018
16571TIP3    H171204   5.828   0.218   2.538 -0.7430  1.2460 -0.5735
16571TIP3    H271205   5.931   0.195   2.430  0.0006  0.3559  0.3092
16572TIP3   OH271206   2.712   4.874   3.918  0.1506 -0.1435 -0.8338
16572TIP3    H171207   2.779   4.807   3.908  0.9763  0.2436  1.5277
16572TIP3    H271208   2.670   4.853   4.002 -1.2468  0.8764 -1.2465
16573TIP3   OH271209   5.843   1.090   1.804 -0.7177 -0.3968  0.3764
16573TIP3    H171210   5.829   1.125   1.892 -3.5703 -0.7425  0.1395
16573TIP3    H271211   5.895   1.011   1.818  0.2457  0.4135  1.5574
16574TIP3   OH271212   3.322   4.777   1.625  0.0407  0.3191  0.3758
16574TIP3    H171213   3.241   4.764   1.577 -0.9536 -1.7353  2.3784
16574TIP3    H271214   3.377   4.703   1.598 -0.3567 -0.5926  1.9476
16575TIP3   OH271215   3.636   3.365  11.063  0.0206 -0.2860 -0.5662
16575TIP3    H171216   3.715   3.365  11.010  0.1868  0.9320 -0.3304
16575TIP3    H271217   3.607   3.456  11.065 -2.6093 -0.9679 -2.4308
16576TIP3   OH271218   2.388   2.319   4.765  0.2704 -0.5991 -0.3964
16576TIP3    H171219   2.427   2.399   4.800  2.1468 -1.5907 -0.0539
16576TIP3    H271220   2.424   2.312   4.677  0.1496 -1.0808 -0.4078
16577TIP3   OH271221   1.622   3.518  11.471  0.2342 -0.4019 -0.0054
16577TIP3    H171222   1.543   3.469  11.496 -0.3975  0.8415  0.5833
16577TIP3    H271223   1.693   3.454  11.476 -0.8836 -1.8965 -1.8493
16578TIP3   OH271224   3.032   6.643  11.721 -0.0611 -0.1071 -0.2890
16578TIP3    H171225   2.946   6.611  11.692 -0.6625  1.7067 -0.6429
16578TIP3    H271226   3.094   6.600  11.662 -0.5549 -2.3932  0.7401
16579TIP3   OH271227   4.819   4.162   6.072  0.5389 -0.1034 -0.2042
16579TIP3    H171228   4.911   4.168   6.049  0.4007 -1.6921 -1.3944
16579TIP3    H271229   4.816   4.098   6.143  0.2730 -0.8209 -0.8534
16580TIP3   OH271230   6.500   3.779   0.056 -1.1527 -0.4678 -0.2593
16580TIP3    H171231   6.546   3.856   0.024 -0.4283  0.0784  1.8920
16580TIP3    H271232   6.418   3.813   0.092 -0.2420 -0.4234  1.9264
16581TIP3   OH271233   5.249   5.798   2.225 -0.3304 -0.1781 -0.6116
16581TIP3    H171234   5.158   5.824   2.209 -0.9770 -2.4638 -1.0356
16581TIP3    H271235   5.287   5.787   2.138 -0.6092 -2.1472 -0.5412
16582TIP3   OH271236   3.698   5.806  16.890  0.0696 -0.1680  0.0434
16582TIP3    H171237   3.703   5.853  16.807 -0.0079  0.1098  0.1959
16582TIP3    H271238   3.778   5.753  16.892 -0.7939 -1.5949 -1.0603
16583TIP3   OH271239   2.237   2.614  13.958  0.2322  0.3662 -0.0963
16583TIP3    H171240   2.189   2.670  14.018  1.3527  0.0471  1.1303
16583TIP3    H271241   2.286   2.553  14.014  0.5860 -0.5553 -1.3383
16584TIP3   OH271242   1.073   6.607  12.490 -0.2858  0.4532  0.0516
16584TIP3    H171243   1.005   6.583  12.426 -1.1202 -0.3718  1.1912
16584TIP3    H271244   1.061   6.544  12.561  1.9891  0.0217  0.1003
16585TIP3   OH271245   3.506   2.792   3.889 -0.6565  0.4361 -0.2654
16585TIP3    H171246   3.514   2.748   3.974  0.6274  3.4829  1.3204
16585TIP3    H271247   3.593   2.784   3.850 -0.8819  0.2139 -0.7416
16586TIP3   OH271248   6.746   2.644  11.375  0.2841  0.3025 -0.0687
16586TIP3    H171249   6.718   2.563  11.333  1.8613 -1.2181  1.6178
16586TIP3    H271250   6.665   2.683  11.409 -0.4737 -0.6916 -0.6828
16587TIP3   OH271251   2.662   4.957  16.572  0.1887  0.2167 -0.2586
16587TIP3    H171252   2.644   4.965  16.665 -1.1544  1.5548 -0.5704
16587TIP3    H271253   2.751   4.923  16.566 -0.0082 -0.7015  1.4870
16588TIP3   OH271254   2.334   2.914   0.071  0.2363 -0.2554 -0.4387
16588TIP3    H171255   2.297   2.996   0.037  0.4002 -0.0857 -0.2043
16588TIP3    H271256   2.258   2.864   0.099  0.2039  0.2558  0.4057
16589TIP3   OH271257   2.183   1.080   5.113 -0.3742  0.5972 -0.2904
16589TIP3    H171258   2.220   1.166   5.133  0.6024  0.1601 -0.1628
16589TIP3    H271259   2.218   1.058   5.027  0.9580 -0.4891  0.4747
16590TIP3   OH271260   3.586   3.177   6.307  0.2820 -0.1292  0.4735
16590TIP3    H171261   3.551   3.097   6.347 -1.4915 -0.1513 -1.0272
16590TIP3    H271262   3.531   3.192   6.230  0.6823  2.4553  0.6144
16591TIP3   OH271263   3.565   1.716  10.871  0.0278  0.1205  0.3286
16591TIP3    H171264   3.500   1.758  10.928  0.0906  1.5460 -0.6195
16591TIP3    H271265   3.516   1.645  10.829 -0.8040  0.8589  0.0119
16592TIP3   OH271266   5.279   0.327   3.459  0.0908 -0.3712  0.5060
16592TIP3    H171267   5.231   0.364   3.532 -0.7873 -1.6305  0.5955
16592TIP3    H271268   5.254   0.234   3.458 -1.5268 -0.0422 -2.5634
16593TIP3   OH271269   1.453   0.589   4.449 -0.2061 -0.0643  0.4962
16593TIP3    H171270   1.504   0.577   4.530 -0.4571 -1.5328  0.4632
16593TIP3    H271271   1.402   0.508   4.441 -1.1379  0.5999 -0.4658
16594TIP3   OH271272   5.712   4.011  16.730  0.0689 -0.6956  0.2228
16594TIP3    H171273   5.800   4.003  16.694  0.4906 -3.9231  1.6089
16594TIP3    H271274   5.695   4.105  16.732  2.3611 -0.0926 -2.5641
16595TIP3   OH271275   5.193   0.525   5.160  0.3365 -0.2814 -0.0064
16595TIP3    H171276   5.219   0.519   5.069 -0.2706 -1.1969 -0.1347
16595TIP3    H271277   5.101   0.497   5.161  0.2933 -0.1498  0.8612
16596TIP3   OH271278   2.105   6.851   0.796  0.0211 -0.2154  0.3364
16596TIP3    H171279   2.114   6.826   0.704  1.2362 -0.1196  0.4057
16596TIP3    H271280   2.174   6.916   0.810 -0.9973  0.7695  0.9915
16597TIP3   OH271281   4.959   6.027   1.474 -0.2946 -0.7474  0.4311
16597TIP3    H171282   4.871   5.990   1.481 -0.4519 -0.5394 -0.3126
16597TIP3    H271283   4.994   6.026   1.563 -0.8627 -1.2927  0.6464
16598TIP3   OH271284   0.934   5.832   0.786 -0.3047  0.5466  0.3203
16598TIP3    H171285   0.866   5.887   0.825 -0.8746  0.2088 -0.1921
16598TIP3    H271286   0.917   5.745   0.821 -2.2583 -0.2887 -2.3603
16599TIP3   OH271287   0.962   1.751  14.858 -0.0095  0.7404 -0.1044
16599TIP3    H171288   1.047   1.738  14.816 -1.6160  2.1967 -4.3514
16599TIP3    H271289   0.965   1.840  14.893  0.2352  0.7514 -0.1511
16600TIP3   OH271290   0.983   4.468  13.642  0.4708 -0.1286  0.6622
16600TIP3    H171291   1.030   4.479  13.725  2.2526 -1.5479 -0.0894
16600TIP3    H271292   1.001   4.377  13.616 -0.5011  0.1165 -0.9981
16601TIP3   OH271293   0.583   4.194   5.140 -0.2915 -0.4508  0.1179
16601TIP3    H171294   0.567   4.202   5.234  0.5481 -1.8696  0.4098
16601TIP3    H271295   0.668   4.152   5.133 -0.4655 -0.6365 -1.2869
16602TIP3   OH271296   6.100   1.623  14.458  0.1728 -1.0116  0.6095
16602TIP3    H171297   6.118   1.546  14.512 -0.8068 -0.5667  1.5984
16602TIP3    H271298   6.006   1.620  14.443 -0.4475  1.6649  3.3217
16603TIP3   OH271299   2.812   2.385   4.342  0.0520  0.0154  0.6051
16603TIP3    H171300   2.831   2.361   4.433 -0.0451 -1.9991  0.1399
16603TIP3    H271301   2.796   2.302   4.298  0.0285  0.9550 -1.2610
16604TIP3   OH271302   5.065   1.978   2.116  0.7537  0.0916  0.3452
16604TIP3    H171303   5.132   1.910   2.125  1.4647  0.8441  0.9283
16604TIP3    H271304   5.094   2.049   2.174  0.4549  1.2322 -0.8397
16605TIP3   OH271305   6.185   6.375   1.052 -0.0515 -0.3682  0.3879
16605TIP3    H171306   6.185   6.279   1.047  0.6870 -0.5042  2.2259
16605TIP3    H271307   6.278   6.399   1.049 -0.2689  0.5465 -2.7592
16606TIP3   OH271308   0.992   3.102   2.659 -0.7215  0.3480  0.4024
16606TIP3    H171309   0.947   3.106   2.575  1.5445  0.6900 -0.8535
16606TIP3    H271310   1.010   3.009   2.672 -0.9356  0.3127  0.4609
16607TIP3   OH271311   2.677   0.703   3.088 -0.0739  0.1163  0.1352
16607TIP3    H171312   2.769   0.700   3.113 -0.1419 -0.4177  0.3389
16607TIP3    H271313   2.641   0.620   3.119 -0.6851  0.4370  0.3001
16608TIP3   OH271314   4.357   0.995   1.585 -0.2504 -0.5696  0.1326
16608TIP3    H171315   4.407   1.026   1.661  0.7680 -1.0764 -0.3114
16608TIP3    H271316   4.313   1.073   1.553  0.5563 -0.0213  0.3211
16609TIP3   OH271317   5.589   5.087  14.919 -0.3979  0.4350  0.0143
16609TIP3    H171318   5.659   5.024  14.936 -1.7800 -0.7632  1.6250
16609TIP3    H271319   5.510   5.033  14.909 -1.2628  1.7892 -0.8926
16610TIP3   OH271320   6.100   0.099   4.089 -0.6324 -0.2865  0.3332
16610TIP3    H171321   6.119   0.153   4.166  1.4410  0.1696 -0.4396
16610TIP3    H271322   6.121   0.010   4.116 -0.9802 -0.2854  0.6190
16611TIP3   OH271323   0.346   2.461  15.008  0.0843  0.7018 -0.2046
16611TIP3    H171324   0.286   2.518  15.056 -1.7677 -1.0598 -0.2617
16611TIP3    H271325   0.348   2.497  14.919 -1.6042  0.3733 -0.4195
16612TIP3   OH271326   2.903   0.519  14.307  0.1846  0.6732 -0.0164
16612TIP3    H171327   2.902   0.452  14.376 -0.5490 -0.3813 -1.0224
16612TIP3    H271328   2.875   0.599  14.353 -0.2034  0.0183  0.9419
16613TIP3   OH271329   3.046   2.746  16.160  0.4873 -0.0934 -0.0784
16613TIP3    H171330   3.038   2.660  16.119 -0.4149  0.0499 -0.2252
16613TIP3    H271331   2.956   2.780  16.161  0.9869  1.3357 -1.1032
16614TIP3   OH271332   1.857   0.477   3.473  0.4241  0.1772 -0.2799
16614TIP3    H171333   1.851   0.400   3.529  1.0384  0.5668  0.3275
16614TIP3    H271334   1.794   0.460   3.403 -1.0365  0.0913  1.0041
16615TIP3   OH271335   2.202   4.107  16.463  0.1160  0.1873  0.1376
16615TIP3    H171336   2.128   4.168  16.467 -0.0951 -0.0108 -0.5976
16615TIP3    H271337   2.185   4.054  16.386  0.9212 -0.0053  0.0860
16616TIP3   OH271338   3.945   3.791   3.995 -0.5004  0.2842  0.4163
16616TIP3    H171339   3.936   3.836   3.911 -0.8271  1.2855  0.9694
16616TIP3    H271340   3.958   3.699   3.971  0.6223  0.7018 -0.7648
16617TIP3   OH271341   0.535   4.427  12.467 -0.0371  0.1462  0.1463
16617TIP3    H171342   0.604   4.418  12.533  1.7824 -0.1629 -1.6920
16617TIP3    H271343   0.484   4.503  12.495  2.5371  1.9248  0.3415
16618TIP3   OH271344   6.514   1.572   1.361 -0.4417 -0.4539 -0.8801
16618TIP3    H171345   6.540   1.526   1.281 -1.6584  0.0868 -1.6104
16618TIP3    H271346   6.424   1.600   1.344 -0.8165 -0.5753  0.7994
16619TIP3   OH271347   4.591   5.455  14.307 -0.5351 -0.1417 -0.0307
16619TIP3    H171348   4.664   5.474  14.367 -0.5205 -1.8373  0.5384
16619TIP3    H271349   4.630   5.400  14.239 -1.6172 -2.8725  1.3948
16620TIP3   OH271350   0.950   5.993   4.875  0.1892 -0.1557 -0.9971
16620TIP3    H171351   0.996   6.070   4.841  1.0450  0.7769  1.9549
16620TIP3    H271352   0.859   6.022   4.885  0.4992  0.5401  0.0600
16621TIP3   OH271353   6.736   2.132   0.304 -0.2840 -0.2283  0.9750
16621TIP3    H171354   6.781   2.186   0.369  0.2640  1.6544 -0.8638
16621TIP3    H271355   6.804   2.105   0.243 -0.7523 -2.1272  1.2210
16622TIP3   OH271356   4.024   4.492   0.886 -0.0905  0.4913  0.0649
16622TIP3    H171357   3.944   4.462   0.931 -0.2225  0.1476 -0.3989
16622TIP3    H271358   4.041   4.426   0.820  0.1927  0.9228 -0.2995
16623TIP3   OH271359   4.772   3.896  10.636  0.6563 -0.4006  0.3483
16623TIP3    H171360   4.761   3.801  10.633  1.0838 -0.4459  0.0652
16623TIP3    H271361   4.684   3.931  10.623  0.4816 -0.7577  0.5608
16624TIP3   OH271362   6.670   3.217  13.431 -0.2912  0.2761 -0.1137
16624TIP3    H171363   6.678   3.226  13.336  0.6833 -1.4009 -0.2358
16624TIP3    H271364   6.604   3.149  13.444  1.4039 -1.3835  0.2781
16625TIP3   OH271365   6.823   6.633  12.706 -0.0085  0.2055  0.1295
16625TIP3    H171366   6.868   6.698  12.761  1.1444 -0.1101 -0.4156
16625TIP3    H271367   6.786   6.685  12.634  2.4827  0.1078 -1.3192
16626TIP3   OH271368   6.539   6.822   2.526  0.4295  0.0015 -0.0849
16626TIP3    H171369   6.512   6.913   2.515 -0.3229 -0.4041 -1.9694
16626TIP3    H271370   6.467   6.781   2.575  0.4676  0.2676  0.1946
16627TIP3   OH271371   6.023   6.664  11.018 -0.3577 -1.2344  0.1056
16627TIP3    H171372   5.972   6.735  10.979  0.2404 -0.2857  1.0105
16627TIP3    H271373   5.983   6.650  11.104  0.9592 -0.3996  0.8740
16628TIP3   OH271374   0.768   0.168   2.465 -0.3012  0.6611 -0.3011
16628TIP3    H171375   0.739   0.171   2.556 -0.3498  0.8426 -0.3214
16628TIP3    H271376   0.716   0.098   2.425  1.2563 -0.9192  0.3297
16629TIP3   OH271377   6.359   6.110  12.375 -0.1377  0.2853 -0.1949
16629TIP3    H171378   6.295   6.155  12.320 -2.7572 -1.3459  1.3260
16629TIP3    H271379   6.368   6.166  12.452 -0.5813  0.0161  0.0587
16630TIP3   OH271380   0.447   5.272  11.576 -0.3388 -0.2136 -0.0347
16630TIP3    H171381   0.459   5.181  11.548  0.5234 -0.3167  0.6008
16630TIP3    H271382   0.503   5.322  11.517 -1.0852 -0.0517 -0.6098
16631TIP3   OH271383   0.704   2.318   4.158  0.0578  0.7329 -0.6172
16631TIP3    H171384   0.692   2.366   4.076 -0.2910 -0.6633 -1.4283
16631TIP3    H271385   0.695   2.383   4.227 -0.8994  1.7266 -1.6476
16632TIP3   OH271386   3.688   3.899   2.330 -0.2457  0.0105  0.1441
16632TIP3    H171387   3.719   3.810   2.346  0.6365 -0.2484 -2.5290
16632TIP3    H271388   3.768   3.952   2.325 -0.7273  0.8581  1.0261
16633TIP3   OH271389   4.293   3.598  16.139 -0.3664 -0.4711 -0.4979
16633TIP3    H171390   4.219   3.657  16.155 -0.6132 -0.6274 -1.0559
16633TIP3    H271391   4.266   3.545  16.064  0.1647 -0.7780 -0.4781
16634TIP3   OH271392   4.875   2.720   1.114  0.4528  0.1831  0.2455
16634TIP3    H171393   4.858   2.794   1.056 -0.1253 -0.5658 -0.5636
16634TIP3    H271394   4.954   2.679   1.079 -0.5090 -0.9229 -0.7299
16635TIP3   OH271395   3.769   5.821  12.523 -0.7850 -0.7514  0.1745
16635TIP3    H171396   3.808   5.737  12.546 -2.1281 -1.7616 -1.0014
16635TIP3    H271397   3.679   5.800  12.499 -1.8042  1.3270  1.8202
16636TIP3   OH271398   5.482   5.994   2.071  0.1243 -0.1014  0.3503
16636TIP3    H171399   5.518   6.083   2.078 -1.8277  0.7599  0.2455
16636TIP3    H271400   5.508   5.965   1.983 -1.8415  1.6900 -0.9374
16637TIP3   OH271401   2.423   6.837  14.173  0.3015 -0.6716  0.1649
16637TIP3    H171402   2.383   6.922  14.190  1.3262 -0.4460  1.6451
16637TIP3    H271403   2.517   6.854  14.176  0.5305 -1.9424  0.9945
16638TIP3   OH271404   6.083   6.052  16.348 -0.0402 -0.1281  0.2865
16638TIP3    H171405   6.032   6.116  16.398 -1.4201  0.0799 -1.3097
16638TIP3    H271406   6.039   6.047  16.263  2.2317 -0.4469 -0.9532
16639TIP3   OH271407   6.443   3.106   5.321 -0.2844 -0.3210  0.1193
16639TIP3    H171408   6.401   3.029   5.359 -0.1472 -0.8854 -0.8381
16639TIP3    H271409   6.516   3.071   5.269  0.7113  0.5631  0.8676
16640TIP3   OH271410   4.077   6.592  12.044 -0.0076  0.4436 -0.6930
16640TIP3    H171411   4.116   6.505  12.055  1.6784  1.1897 -0.4991
16640TIP3    H271412   4.002   6.592  12.103 -0.7275 -1.2527 -1.5295
16641TIP3   OH271413   2.626   1.875   4.318 -0.2557  0.4907  0.0313
16641TIP3    H171414   2.581   1.858   4.236 -0.0405 -0.0645  0.0279
16641TIP3    H271415   2.565   1.845   4.386  0.9494 -2.4130 -0.0140
16642TIP3   OH271416   2.865   1.874   6.231 -0.2255  0.5919  0.1728
16642TIP3    H171417   2.793   1.836   6.181 -1.1597 -0.0463  1.8972
16642TIP3    H271418   2.825   1.898   6.315  1.5005  0.5310  1.0455
16643TIP3   OH271419   3.167   2.557   5.203  0.8129 -0.1956  0.2363
16643TIP3    H171420   3.149   2.647   5.178  1.7392  0.3617  1.4951
16643TIP3    H271421   3.110   2.540   5.277 -0.4094 -1.1532 -0.8742
16644TIP3   OH271422   5.282   0.328  16.605  0.0105 -0.0005  0.6356
16644TIP3    H171423   5.370   0.311  16.637 -0.2284 -0.9887  0.8021
16644TIP3    H271424   5.295   0.376  16.523  0.8225 -2.7041 -0.9255
16645TIP3   OH271425   0.873   2.702   3.893 -0.6472  0.0938  0.3728
16645TIP3    H171426   0.899   2.793   3.879 -0.0607 -0.0350  0.5806
16645TIP3    H271427   0.779   2.706   3.912 -0.8810  0.5333 -0.8153
16646TIP3   OH271428   4.862   0.977   3.941  0.2819 -0.3859  0.0155
16646TIP3    H171429   4.896   1.056   3.983  0.4737 -0.6425  0.3459
16646TIP3    H271430   4.784   0.955   3.991  0.6336 -0.8184  0.3798
16647TIP3   OH271431   4.296   6.142   4.630 -0.2041 -0.1841  0.8781
16647TIP3    H171432   4.279   6.144   4.724  0.2560 -0.0624  0.9613
16647TIP3    H271433   4.268   6.228   4.599 -1.9551 -0.8142  0.6090
16648TIP3   OH271434   1.767   5.710   3.830 -0.4254 -0.2217 -0.0299
16648TIP3    H171435   1.695   5.665   3.787 -1.1160  0.5918  0.2353
16648TIP3    H271436   1.760   5.801   3.799  1.2704 -0.3808 -1.0061
16649TIP3   OH271437   5.359   3.118  11.347 -0.1397 -0.0812 -0.1319
16649TIP3    H171438   5.349   3.185  11.279  1.6503  0.8330  0.4564
16649TIP3    H271439   5.296   3.050  11.322 -1.0290  1.1756 -1.5141
16650TIP3   OH271440   4.006   1.377  11.084  0.5358  0.7009  0.3833
16650TIP3    H171441   3.987   1.308  11.147  1.1235  0.9981  0.8955
16650TIP3    H271442   3.929   1.380  11.028  1.1647 -1.5421 -0.7269
16651TIP3   OH271443   5.185   5.506  15.719 -0.2084 -0.3435  0.4403
16651TIP3    H171444   5.180   5.429  15.663 -0.4019  0.5847 -0.8559
16651TIP3    H271445   5.230   5.572  15.666 -2.0389  1.1601  0.6569
16652TIP3   OH271446   5.934   5.109   0.492  0.5546 -0.6595  0.6919
16652TIP3    H171447   5.929   5.203   0.509  0.7144 -0.5542  0.1675
16652TIP3    H271448   5.860   5.072   0.541 -0.5063 -0.0720 -0.4005
16653TIP3   OH271449   4.048   3.301  15.541 -0.4573  0.4768 -0.3316
16653TIP3    H171450   4.022   3.326  15.629 -0.7374 -0.9358  0.0166
16653TIP3    H271451   4.074   3.383  15.499 -2.5654  1.5147  0.2939
16654TIP3   OH271452   1.074   5.335  12.151  0.1541 -0.3772 -0.0761
16654TIP3    H171453   0.995   5.286  12.128  0.3342 -0.7355  0.0603
16654TIP3    H271454   1.055   5.425  12.124 -0.3228 -0.4471  0.0160
16655TIP3   OH271455   2.228   0.915  15.456 -0.4043 -0.0091 -0.1633
16655TIP3    H171456   2.153   0.939  15.509  0.2215  1.1998  0.2060
16655TIP3    H271457   2.278   0.996  15.446  0.3546 -0.5811 -1.2009
16656TIP3   OH271458   6.801   1.119  15.582 -0.1548  0.5834  0.4825
16656TIP3    H171459   6.758   1.046  15.625 -0.3216  1.3592  1.6848
16656TIP3    H271460   6.858   1.156  15.649  0.6640  0.9790 -0.3943
16657TIP3   OH271461   1.031   4.340   3.523  0.0260 -0.1692  0.6762
16657TIP3    H171462   1.068   4.404   3.584  0.1528  0.2041  0.2170
16657TIP3    H271463   0.994   4.393   3.452  1.6767 -0.6437 -0.6010
16658TIP3   OH271464   6.012   6.409  12.094 -0.5567 -0.5576  0.3595
16658TIP3    H171465   6.002   6.500  12.067 -2.8209 -1.0809 -0.8466
16658TIP3    H271466   5.922   6.380  12.113 -0.3837 -3.3750 -2.2904
16659TIP3   OH271467   5.634   0.286   4.054 -0.4421  0.0032  0.0505
16659TIP3    H171468   5.660   0.200   4.087 -0.8707  1.1588  3.9259
16659TIP3    H271469   5.558   0.269   3.998  1.1859 -2.3011 -1.6400
16660TIP3   OH271470   2.466   1.427  10.818 -1.2414  0.4311 -0.1274
16660TIP3    H171471   2.543   1.412  10.763  0.5717  0.0378  2.3743
16660TIP3    H271472   2.418   1.497  10.773 -0.8668 -1.0475 -3.1125
16661TIP3   OH271473   5.984   6.211   3.294 -0.0877 -0.2404  0.0295
16661TIP3    H171474   5.947   6.284   3.245 -0.1718  0.6646  1.3633
16661TIP3    H271475   6.045   6.253   3.355  1.9812 -1.5475 -1.0413
16662TIP3   OH271476   0.433   3.221   2.942 -0.1738 -0.1372  0.0117
16662TIP3    H171477   0.498   3.160   2.909 -0.5354 -0.9036  0.6944
16662TIP3    H271478   0.406   3.185   3.026 -0.6953  0.7426  0.2381
16663TIP3   OH271479   2.034   2.837  15.944  0.3350  0.3965  0.2075
16663TIP3    H171480   2.084   2.807  16.020 -0.8180  2.7140  1.9901
16663TIP3    H271481   2.063   2.927  15.930  0.1278  0.1893 -1.8011
16664TIP3   OH271482   4.657   1.575   4.308 -0.9945 -0.4870  0.3362
16664TIP3    H171483   4.623   1.648   4.359 -1.6820 -0.8310  0.3798
16664TIP3    H271484   4.614   1.583   4.223 -1.1586 -0.9032  0.3768
16665TIP3   OH271485   5.371   0.089  13.640  0.1928  0.1068  0.1415
16665TIP3    H171486   5.336   0.096  13.551 -2.4979  0.0653  1.0890
16665TIP3    H271487   5.323   0.155  13.690  3.2132  1.6813  1.2106
16666TIP3   OH271488   4.969   1.878   3.581  0.7115 -0.0201  0.5699
16666TIP3    H171489   5.031   1.878   3.508  0.6999 -0.6964  0.5502
16666TIP3    H271490   4.980   1.964   3.622 -0.5111  1.0741 -1.2553
16667TIP3   OH271491   2.087   6.050   3.868 -0.3174  0.0701  0.0576
16667TIP3    H171492   2.124   6.112   3.931  0.1662 -1.0121  0.8615
16667TIP3    H271493   2.116   6.083   3.783  0.5193  0.5580  0.5167
16668TIP3   OH271494   5.012   1.808   4.347 -0.4329  0.4052 -0.1320
16668TIP3    H171495   4.964   1.829   4.267 -0.1764 -0.2846 -0.4737
16668TIP3    H271496   5.039   1.893   4.381 -1.1470  0.7516 -0.3966
16669TIP3   OH271497   2.919   1.000   3.506  1.0280 -0.3318 -0.3009
16669TIP3    H171498   3.013   1.013   3.496  1.0703  0.3527  0.8875
16669TIP3    H271499   2.895   1.049   3.584  0.0715 -2.2823  0.7151
16670TIP3   OH271500   5.104   2.800  14.132  0.2032  0.1994  0.2559
16670TIP3    H171501   5.149   2.876  14.095 -0.0588  0.0722 -0.3464
16670TIP3    H271502   5.158   2.726  14.107 -0.0477  0.0985  0.0029
16671TIP3   OH271503   2.080   4.074  14.997  0.2357 -0.1121  0.1633
16671TIP3    H171504   2.086   3.979  15.000  1.6537 -0.0456  0.1982
16671TIP3    H271505   2.164   4.105  15.032 -0.3745  1.1602  0.5828
16672TIP3   OH271506   0.094   4.597   2.689  0.4390  0.5615 -0.5941
16672TIP3    H171507   0.136   4.674   2.650 -0.8516  1.3295 -0.5202
16672TIP3    H271508   0.076   4.623   2.779 -0.0237  0.1767 -0.5715
16673TIP3   OH271509   0.527   1.363   2.410 -0.5606 -0.6111 -0.1047
16673TIP3    H171510   0.598   1.346   2.472  1.1651 -0.4833 -1.9122
16673TIP3    H271511   0.500   1.276   2.381  0.3488 -0.6376 -0.9392
16674TIP3   OH271512   0.402   3.574  16.886  0.4100  0.0119 -0.5322
16674TIP3    H171513   0.467   3.509  16.912 -0.0795  0.0572  0.9244
16674TIP3    H271514   0.358   3.597  16.968  0.5654  2.1867 -1.0217
16675TIP3   OH271515   4.091   2.727   0.273 -0.1298 -0.5038 -0.3560
16675TIP3    H171516   4.068   2.646   0.229  1.4638 -0.8132 -0.7025
16675TIP3    H271517   4.172   2.707   0.320 -0.9841  0.2181  1.5703
16676TIP3   OH271518   2.237   5.111   2.773  0.1679 -0.6493  0.3223
16676TIP3    H171519   2.331   5.103   2.793  0.2325 -0.7215 -0.0131
16676TIP3    H271520   2.228   5.076   2.685 -0.3915 -1.8923  0.8607
16677TIP3   OH271521   5.581   4.311   1.072 -0.7136  0.4191 -0.1203
16677TIP3    H171522   5.511   4.308   1.138  0.5531  0.7768  1.3018
16677TIP3    H271523   5.639   4.238   1.095  0.2437  1.1205 -0.2523
16678TIP3   OH271524   1.643   0.029   0.110  0.0798 -0.3446 -0.1415
16678TIP3    H171525   1.729   0.068   0.100 -0.9897  2.0374 -0.8867
16678TIP3    H271526   1.608   0.023   0.021 -0.1936 -2.2232  0.0435
16679TIP3   OH271527   3.824   0.542   3.448 -0.0961  0.0193  0.0264
16679TIP3    H171528   3.868   0.543   3.363  0.8177  0.6971  0.4931
16679TIP3    H271529   3.823   0.633   3.476 -0.2373 -0.2194  0.8234
16680TIP3   OH271530   0.453   3.471   1.496 -0.4530  0.0578 -0.0494
16680TIP3    H171531   0.437   3.382   1.464 -1.1202 -0.4284  1.4843
16680TIP3    H271532   0.366   3.504   1.518 -0.2069  1.1039 -0.5990
16681TIP3   OH271533   0.467   3.706  15.230  0.1805 -0.5304 -0.7875
16681TIP3    H171534   0.495   3.619  15.260 -3.9898 -2.6978 -2.3011
16681TIP3    H271535   0.511   3.718  15.146  0.9539 -1.0573 -0.4717
16682TIP3   OH271536   0.582   1.666  15.029  0.4791 -0.2578 -0.3785
16682TIP3    H171537   0.544   1.679  15.116 -0.2019 -1.1876 -0.5274
16682TIP3    H271538   0.518   1.703  14.969  0.1235 -1.1942 -0.5886
16683TIP3   OH271539   1.788   2.955   5.567 -0.4680  0.5836 -0.6798
16683TIP3    H171540   1.713   2.908   5.530 -1.0870  1.4958 -0.6137
16683TIP3    H271541   1.845   2.970   5.491 -0.7378  0.6006 -0.8844
16684TIP3   OH271542   0.434   1.821  11.592 -0.2970 -0.1590 -0.5537
16684TIP3    H171543   0.398   1.733  11.605  1.1881 -0.6006  0.7852
16684TIP3    H271544   0.429   1.862  11.678  1.8628 -0.0563 -0.4356
16685TIP3   OH271545   6.447   3.614  12.665 -0.3498 -0.6019  0.3145
16685TIP3    H171546   6.364   3.572  12.643 -0.4447 -0.8005  1.0278
16685TIP3    H271547   6.426   3.674  12.737 -0.0060 -0.1395  0.0348
16686TIP3   OH271548   4.272   5.254   5.250  0.2530  0.8087 -0.7827
16686TIP3    H171549   4.259   5.298   5.166 -1.6839  1.4927 -0.1712
16686TIP3    H271550   4.366   5.264   5.268  0.7285  0.5799 -2.8671
16687TIP3   OH271551   1.960   1.833  12.460  0.5686 -0.2616  0.2358
16687TIP3    H171552   2.011   1.897  12.409 -1.1514  0.9061 -0.1281
16687TIP3    H271553   1.880   1.880  12.483 -1.0090 -2.4419 -0.4714
16688TIP3   OH271554   1.096   1.398  16.813 -0.2003  0.1248 -0.7941
16688TIP3    H171555   1.035   1.370  16.882 -0.7838 -0.2078 -1.4284
16688TIP3    H271556   1.102   1.493  16.824 -2.0395  0.3946 -1.6333
16689TIP3   OH271557   5.196   0.220  10.441 -0.1919  0.1623 -0.3413
16689TIP3    H171558   5.122   0.165  10.413 -1.0956  1.1753  0.0002
16689TIP3    H271559   5.273   0.173  10.409 -1.0044 -0.6002 -1.2831
16690TIP3   OH271560   1.836   3.023   2.847 -0.2140  0.1018  0.2337
16690TIP3    H171561   1.886   3.021   2.766  1.3121 -0.2716  1.1361
16690TIP3    H271562   1.765   2.961   2.833  0.2335 -0.2233 -0.6798
16691TIP3   OH271563   1.315   3.664  15.726 -1.1739  0.2518 -0.6080
16691TIP3    H171564   1.303   3.739  15.668  0.8015  1.9909  1.0675
16691TIP3    H271565   1.226   3.631  15.741 -1.9051  0.9104 -3.0280
16692TIP3   OH271566   2.208   4.442  11.312 -0.0688 -0.4334 -0.0950
16692TIP3    H171567   2.145   4.505  11.347  0.7366 -0.2237  1.0282
16692TIP3    H271568   2.174   4.357  11.339  1.5845 -0.2111  3.1889
16693TIP3   OH271569   1.658   3.070   5.773 -0.1895  0.1367 -0.1229
16693TIP3    H171570   1.727   3.034   5.717  0.5043  0.8549  0.2583
16693TIP3    H271571   1.586   3.089   5.712  0.2825  0.2279 -0.6615
16694TIP3   OH271572   2.798   0.031   5.660 -0.3323 -0.4296  0.2385
16694TIP3    H171573   2.883   0.065   5.688  0.6379 -1.0656 -1.7996
16694TIP3    H271574   2.796  -0.058   5.695 -0.6442 -0.0647  1.1834
16695TIP3   OH271575   0.702   2.978  12.169  0.0817  0.0412 -0.4584
16695TIP3    H171576   0.646   2.937  12.235  3.2242 -2.9617  0.6468
16695TIP3    H271577   0.735   3.057  12.211 -0.7144  0.0757  0.1296
16696TIP3   OH271578   0.091   6.531   0.697  0.4601  0.0470 -0.2899
16696TIP3    H171579   0.001   6.549   0.670 -0.1813 -1.7924  0.4668
16696TIP3    H271580   0.142   6.600   0.655 -1.1554  0.5204 -1.6284
16697TIP3   OH271581   3.979   2.494   2.411  0.5253 -0.3498 -0.2863
16697TIP3    H171582   3.954   2.505   2.503  0.3801 -2.0101 -0.1070
16697TIP3    H271583   3.900   2.519   2.363 -0.0029 -1.1675  0.1202
16698TIP3   OH271584   2.561   5.457  15.463  0.0768  0.1360  0.0724
16698TIP3    H171585   2.596   5.403  15.392 -0.6151  1.3524 -1.2437
16698TIP3    H271586   2.638   5.481  15.515  0.6019 -0.7116 -0.2817
16699TIP3   OH271587   5.250   5.528  17.122 -1.3334 -0.1612  0.0564
16699TIP3    H171588   5.330   5.486  17.153 -1.6562 -0.7506  0.1177
16699TIP3    H271589   5.192   5.455  17.099 -1.7136  0.2581 -0.3484
16700TIP3   OH271590   5.462   3.843   1.047 -0.3794 -0.6586 -0.5346
16700TIP3    H171591   5.394   3.782   1.075 -0.4322 -1.0940 -1.5566
16700TIP3    H271592   5.486   3.890   1.126  1.8896 -4.1223  1.1101
16701TIP3   OH271593   0.058   0.405  16.738 -0.1078  0.3881 -0.2156
16701TIP3    H171594   0.147   0.382  16.711  0.3611  1.5870  0.2482
16701TIP3    H271595   0.032   0.334  16.796  0.9880  0.5694  0.5393
16702TIP3   OH271596   1.002   1.686   1.931  0.1000 -0.0119  0.0984
16702TIP3    H171597   0.999   1.663   2.024 -0.1337 -0.1675  0.0541
16702TIP3    H271598   0.989   1.602   1.886 -2.3187  0.3962 -0.0643
16703TIP3   OH271599   6.171   6.376   6.724  0.0569  0.1051  0.2043
16703TIP3    H171600   6.244   6.331   6.767  0.7429 -1.6754 -2.5850
16703TIP3    H271601   6.168   6.340   6.636 -1.4262  3.3270 -1.2550
16704TIP3   OH271602   4.281   0.296   4.371 -0.4586  0.3597 -0.6525
16704TIP3    H171603   4.204   0.263   4.325  0.0915 -0.0136 -1.3246
16704TIP3    H271604   4.354   0.278   4.312  0.7627 -2.9407  1.5357
16705TIP3   OH271605   5.563   5.367  16.187 -0.0789  0.0021 -0.1014
16705TIP3    H171606   5.638   5.421  16.163 -0.4835  0.4650 -0.3463
16705TIP3    H271607   5.504   5.372  16.111 -0.6981  0.2714  0.3841
16706TIP3   OH271608   2.815   1.789  11.615 -0.3738 -1.0187 -0.1130
16706TIP3    H171609   2.783   1.716  11.668  1.4010 -1.6518  0.1375
16706TIP3    H271610   2.881   1.751  11.557 -1.2007 -0.0555 -1.7793
16707TIP3   OH271611   5.073   0.008   4.221 -0.1762  0.6707  0.2364
16707TIP3    H171612   5.166   0.030   4.224 -0.2506  0.9929  0.2196
16707TIP3    H271613   5.050  -0.008   4.313  0.2815 -1.0630  0.0713
16708TIP3   OH271614   4.781   2.179  14.787  0.4048 -0.0138  0.4227
16708TIP3    H171615   4.735   2.255  14.753  0.7145 -1.0888 -2.7395
16708TIP3    H271616   4.714   2.129  14.834 -1.0403 -0.2054 -1.7275
16709TIP3   OH271617   6.440   5.075  15.252  0.0250  0.1210  0.4147
16709TIP3    H171618   6.447   5.066  15.157 -2.0086 -1.5133  0.3373
16709TIP3    H271619   6.390   5.156  15.265 -1.3120 -0.5880 -0.0539
16710TIP3   OH271620   6.730   4.373  15.890 -0.1058  0.6115 -0.0186
16710TIP3    H171621   6.749   4.463  15.917 -1.1748  1.1907 -1.0988
16710TIP3    H271622   6.640   4.357  15.919  0.4973 -0.6009  1.3209
16711TIP3   OH271623   5.859   5.007   5.621 -0.7504  0.3352  0.3831
16711TIP3    H171624   5.914   4.984   5.546 -1.2458  0.6656 -0.0864
16711TIP3    H271625   5.884   5.097   5.642 -2.7708  1.3848 -1.3631
16712TIP3   OH271626   0.511   4.350   2.605  0.2266  0.0864  0.0361
16712TIP3    H171627   0.553   4.355   2.691 -0.8541 -0.3757  0.6128
16712TIP3    H271628   0.580   4.321   2.546  1.0617  0.6876  0.6913
16713TIP3   OH271629   3.094   4.246   1.795  0.8607  0.1468 -0.2144
16713TIP3    H171630   3.173   4.236   1.848  1.9243  3.6116 -0.8871
16713TIP3    H271631   3.036   4.300   1.849 -0.6423 -1.4019 -0.2005
16714TIP3   OH271632   4.583   2.218  13.669 -0.6037  0.1692  0.8045
16714TIP3    H171633   4.667   2.231  13.713 -0.3376 -1.6467  0.9239
16714TIP3    H271634   4.583   2.125  13.645 -2.3522  0.2580  0.3167
16715TIP3   OH271635   5.698   1.987   5.231 -0.1940  0.0850 -0.5181
16715TIP3    H171636   5.698   2.078   5.259 -0.7685 -0.0337 -0.1230
16715TIP3    H271637   5.637   1.943   5.290  0.7878 -0.7488 -0.0740
16716TIP3   OH271638   2.455   2.799   4.698  0.6094  0.2119  0.4904
16716TIP3    H171639   2.456   2.816   4.604 -1.0556 -1.1425  0.1901
16716TIP3    H271640   2.518   2.728   4.710  0.8766  0.4351  0.4197
16717TIP3   OH271641   2.469   0.239   2.050  0.0936  0.3824 -0.3160
16717TIP3    H171642   2.518   0.309   2.092 -1.7425  0.8456  1.2265
16717TIP3    H271643   2.404   0.284   1.997 -0.7431 -0.1228  0.2440
16718TIP3   OH271644   3.040   4.239  13.943 -0.5477  0.4553  0.3513
16718TIP3    H171645   3.064   4.199  13.860  0.5309  0.7849  0.4885
16718TIP3    H271646   3.115   4.295  13.965 -0.2542 -0.6055  2.1740
16719TIP3   OH271647   6.724   2.943   2.520  0.2114  0.4358 -0.0836
16719TIP3    H171648   6.795   3.005   2.539 -0.5900  1.2490  0.3260
16719TIP3    H271649   6.754   2.860   2.558  0.7300  0.8936  0.5317
16720TIP3   OH271650   3.567   3.851  16.104  0.6274  0.0536  0.2298
16720TIP3    H171651   3.632   3.781  16.094  0.8165  0.3106 -0.3309
16720TIP3    H271652   3.548   3.880  16.015  0.3701  0.5610  0.4446
16721TIP3   OH271653   1.226   0.748   5.199  0.1151 -0.3600  0.4090
16721TIP3    H171654   1.148   0.792   5.231  0.5012  0.7203 -0.1044
16721TIP3    H271655   1.228   0.767   5.105  1.0232 -0.3158  0.4227
16722TIP3   OH271656   4.719   1.453  11.553 -0.0061  0.2147  0.2103
16722TIP3    H171657   4.708   1.426  11.644  1.2558  2.7163  1.2268
16722TIP3    H271658   4.788   1.396  11.519  0.3513  0.0309  1.2095
16723TIP3   OH271659   0.123   1.268   5.593  0.0069  0.4291  0.4034
16723TIP3    H171660   0.100   1.181   5.623 -1.1915 -0.0467 -1.6617
16723TIP3    H271661   0.041   1.318   5.597 -0.1500  0.4273 -1.5646
16724TIP3   OH271662   4.685   1.384  11.826  0.0527 -0.1711 -0.0884
16724TIP3    H171663   4.650   1.467  11.857 -0.9406  0.2441 -2.1325
16724TIP3    H271664   4.622   1.318  11.856  0.3479 -0.0852  0.7356
16725TIP3   OH271665   6.647   4.878  15.299  0.8796 -0.7043 -0.0334
16725TIP3    H171666   6.576   4.825  15.262  1.3280  0.7518 -3.2918
16725TIP3    H271667   6.610   4.965  15.309  1.6120 -0.4220  0.3020
16726TIP3   OH271668   0.469   1.783   2.542  0.1528  0.2034  0.7237
16726TIP3    H171669   0.442   1.859   2.593 -1.9943 -0.5419  0.8281
16726TIP3    H271670   0.427   1.709   2.586  0.6959 -0.8150 -0.4204
16727TIP3   OH271671   6.529   3.031   5.981  0.7686  0.2113  0.1454
16727TIP3    H171672   6.619   3.003   6.001 -0.2535 -2.4257  1.7224
16727TIP3    H271673   6.502   3.080   6.059 -0.0456 -1.5965  1.0710
16728TIP3   OH271674   4.406   5.893  12.209 -0.6640 -0.7821  0.2739
16728TIP3    H171675   4.350   5.940  12.147 -0.1861 -0.3979  0.1194
16728TIP3    H271676   4.347   5.837  12.259 -1.1046 -0.7991 -0.2664
16729TIP3   OH271677   2.169   6.030  14.598 -0.2685 -0.0334  0.0154
16729TIP3    H171678   2.099   5.976  14.559 -0.7507 -0.0068  0.8270
16729TIP3    H271679   2.145   6.120  14.574 -0.4698 -0.0321  0.2164
16730TIP3   OH271680   0.695   6.524   3.143 -0.5490 -0.1835 -0.0723
16730TIP3    H171681   0.754   6.517   3.068 -2.5044  0.6442 -1.7912
16730TIP3    H271682   0.687   6.434   3.176  0.8667 -0.4588 -0.4176
16731TIP3   OH271683   1.623   6.365  12.201 -0.4282  0.4088  0.2956
16731TIP3    H171684   1.647   6.339  12.290  0.0352  0.4719  0.1905
16731TIP3    H271685   1.539   6.321  12.185 -0.0530 -0.3614  0.4178
16732TIP3   OH271686   2.445   0.797   4.845  0.0821  0.4829 -0.6844
16732TIP3    H171687   2.538   0.801   4.824 -0.3543  0.0704 -2.9661
16732TIP3    H271688   2.431   0.708   4.876  0.2430  0.1270 -1.5948
16733TIP3   OH271689   2.245   6.647  10.157  0.2615 -0.5114  1.1281
16733TIP3    H171690   2.255   6.553  10.169 -0.0436 -0.4281  2.0706
16733TIP3    H271691   2.331   6.684  10.177  1.1885 -0.7775 -1.7898
16734TIP3   OH271692   0.403   4.990   3.017 -0.2510 -0.8485 -0.2825
16734TIP3    H171693   0.330   4.932   3.037  0.7915 -1.9737  0.3789
16734TIP3    H271694   0.427   4.969   2.927  0.4186 -1.8140  0.1036
16735TIP3   OH271695   3.075   6.219  11.307  0.2390  1.0437 -0.5555
16735TIP3    H171696   3.163   6.234  11.273 -0.5088  0.9236 -2.6891
16735TIP3    H271697   3.016   6.254  11.240 -1.3713  1.1393  0.8151
16736TIP3   OH271698   6.048   1.025  13.091  0.3708  0.4085 -1.1694
16736TIP3    H171699   5.996   0.977  13.026 -2.3999 -0.0629  1.2347
16736TIP3    H271700   6.071   1.107  13.047 -3.2827  1.0884 -2.1056
16737TIP3   OH271701   1.592   0.049  11.354  0.1095  0.3734  0.0132
16737TIP3    H171702   1.549   0.130  11.324  0.3300  0.9302  1.1410
16737TIP3    H271703   1.520  -0.009  11.379 -0.0794 -0.0895 -1.4917
16738TIP3   OH271704   1.131   6.565  13.751 -0.0430  0.5562  0.2305
16738TIP3    H171705   1.114   6.484  13.799  0.1224  0.4759  0.1540
16738TIP3    H271706   1.136   6.538  13.659  0.5594  0.5653  0.2582
16739TIP3   OH271707   5.173   5.081  16.781  0.0590  0.1111  0.5905
16739TIP3    H171708   5.209   5.094  16.869 -0.8529  2.2491  0.7200
16739TIP3    H271709   5.175   5.168  16.742 -0.7891 -0.5620 -1.0252
16740TIP3   OH271710   0.972   1.172  10.873 -0.4088 -0.3840  0.4360
16740TIP3    H171711   1.035   1.113  10.830 -0.9141 -1.0223  0.5496
16740TIP3    H271712   1.015   1.197  10.955  0.5733  0.8529 -0.4176
16741TIP3   OH271713   3.902   5.526  16.296  0.1086  0.2683 -0.0380
16741TIP3    H171714   3.882   5.527  16.203 -2.3208  1.3919  0.4195
16741TIP3    H271715   3.830   5.475  16.335  1.3448 -0.6019  1.1991
16742TIP3   OH271716   3.741   3.120   2.508 -0.3417  0.2501 -0.2155
16742TIP3    H171717   3.772   3.151   2.422 -0.3960 -1.0090 -0.7122
16742TIP3    H271718   3.762   3.191   2.568  1.2990  0.4413 -0.9708
16743TIP3   OH271719   6.576   4.970  14.968 -0.2194 -0.1148  0.1552
16743TIP3    H171720   6.634   4.939  14.899 -1.4529 -0.0432 -0.9557
16743TIP3    H271721   6.542   4.890  15.008  0.0125 -0.1622  0.2578
16744TIP3   OH271722   4.257   3.096  10.013  0.2206  0.0093 -0.5312
16744TIP3    H171723   4.257   3.147  10.094 -0.8713 -2.5510  1.2470
16744TIP3    H271724   4.168   3.061  10.006 -0.1168  1.1692 -3.6301
16745TIP3   OH271725   2.173   5.512   4.910  0.0760 -0.2418  0.2151
16745TIP3    H171726   2.243   5.519   4.975  0.8408 -1.4412 -0.4452
16745TIP3    H271727   2.152   5.603   4.887  0.9583  0.1438  0.8889
16746TIP3   OH271728   0.961   5.336   4.736 -0.4163  0.0783 -0.2825
16746TIP3    H171729   1.014   5.410   4.709  0.8464 -0.9163 -0.6233
16746TIP3    H271730   0.994   5.262   4.685  0.9722 -1.5462  2.7147
16747TIP3   OH271731   0.714   2.267   2.794 -0.3367  0.5760 -0.1097
16747TIP3    H171732   0.706   2.174   2.770  2.3188 -0.0910  1.2052
16747TIP3    H271733   0.626   2.302   2.782 -1.2182 -1.8533 -1.6362
16748TIP3   OH271734   4.857   2.381  16.612  0.2189  0.5456  0.6767
16748TIP3    H171735   4.886   2.468  16.585  3.4842 -0.6547 -0.2803
16748TIP3    H271736   4.911   2.321  16.560 -1.0066 -2.0564  2.1895
16749TIP3   OH271737   6.616   5.759   0.524 -0.0755 -0.4246  0.1048
16749TIP3    H171738   6.604   5.820   0.597 -0.0811  1.6268 -1.5227
16749TIP3    H271739   6.533   5.764   0.475  0.7334  0.0129 -1.2755
16750TIP3   OH271740   2.949   6.652   4.275 -0.1528  0.0739  0.2737
16750TIP3    H171741   2.931   6.567   4.233 -0.6438  0.8537 -1.1495
16750TIP3    H271742   3.004   6.630   4.350 -0.2796 -1.5077 -0.0582
16751TIP3   OH271743   5.161   1.406   0.655  0.3467 -0.6046  0.2187
16751TIP3    H171744   5.087   1.394   0.716 -0.0456 -1.3099 -0.3753
16751TIP3    H271745   5.195   1.493   0.675 -1.9860  0.6610 -0.9082
16752TIP3   OH271746   5.101   1.587   3.580  0.3343 -0.1782  0.1028
16752TIP3    H171747   5.097   1.618   3.671  1.6376 -2.0982  0.8741
16752TIP3    H271748   5.036   1.518   3.574 -0.4286  0.5866 -0.7333
16753TIP3   OH271749   3.358   1.379   4.789  0.0184 -0.3041 -0.1802
16753TIP3    H171750   3.435   1.426   4.759  1.0045 -2.6109 -1.4958
16753TIP3    H271751   3.372   1.288   4.762 -1.5699 -1.5234  2.5651
16754TIP3   OH271752   5.361   3.224  11.599 -0.0728 -0.1675 -0.4922
16754TIP3    H171753   5.453   3.225  11.623  0.2494  0.8533 -1.6460
16754TIP3    H271754   5.361   3.202  11.505 -0.9741  0.1489 -0.5763
16755TIP3   OH271755   0.807   3.836   5.302 -0.0983 -0.2728 -0.6821
16755TIP3    H171756   0.873   3.771   5.279  0.5153  0.6758 -1.6919
16755TIP3    H271757   0.768   3.804   5.384  2.1826 -0.4438  0.3944
16756TIP3   OH271758   1.367   4.218  14.382  0.1203 -0.2640 -0.2627
16756TIP3    H171759   1.283   4.182  14.353  0.4004  0.7604 -2.5405
16756TIP3    H271760   1.420   4.141  14.404 -1.2512 -0.9379  0.8789
16757TIP3   OH271761   1.854   1.522   5.271 -0.2750 -0.3326  0.0365
16757TIP3    H171762   1.764   1.492   5.281 -0.7773  1.3486  1.0054
16757TIP3    H271763   1.846   1.614   5.246  1.1399  0.2524  1.5323
16758TIP3   OH271764   6.776   2.988  11.576 -0.8360  0.0505  0.5724
16758TIP3    H171765   6.785   2.985  11.481  0.2872  0.4081  0.6557
16758TIP3    H271766   6.700   2.932  11.594  1.6105 -3.9089 -0.1637
16759TIP3   OH271767   5.196   2.027  15.461 -0.7390  0.8146  0.3653
16759TIP3    H171768   5.208   1.942  15.419 -1.6678  0.3824  0.9351
16759TIP3    H271769   5.283   2.051  15.493 -0.0547  1.0513 -1.5613
16760TIP3   OH271770   3.873   2.506  12.676 -0.3938  0.1764 -0.4526
16760TIP3    H171771   3.960   2.528  12.643  0.1780  0.4942  1.1512
16760TIP3    H271772   3.844   2.434  12.620  1.3472 -0.6323 -0.3955
16761TIP3   OH271773   6.821   4.765  12.812  0.7391  0.2950  0.4537
16761TIP3    H171774   6.729   4.787  12.830 -0.5763 -1.2021 -3.4915
16761TIP3    H271775   6.843   4.700  12.879 -1.6951 -0.5859  0.5030
16762TIP3   OH271776   1.735   0.883   6.210 -0.5799  0.0734 -0.4874
16762TIP3    H171777   1.731   0.945   6.282 -0.2529  0.3314 -0.6907
16762TIP3    H271778   1.821   0.898   6.170 -1.1888  0.6994 -1.6060
16763TIP3   OH271779   3.443   0.245  14.000  0.2478  0.0277 -0.1764
16763TIP3    H171780   3.356   0.250  13.960  0.8376  0.2109 -1.4927
16763TIP3    H271781   3.459   0.333  14.034  0.5028  0.3981 -1.2288
16764TIP3   OH271782   5.106   4.161   6.085  1.0932  0.0882  0.5719
16764TIP3    H171783   5.184   4.207   6.052  0.1034  0.8324 -0.8782
16764TIP3    H271784   5.132   4.070   6.091  1.1035 -0.3631 -3.5704
16765TIP3   OH271785   0.650   6.112  11.234 -0.5673 -0.0570  0.4565
16765TIP3    H171786   0.593   6.185  11.211 -0.1274 -0.3402 -1.7838
16765TIP3    H271787   0.720   6.114  11.168 -0.3407 -2.2433  0.5430
16766TIP3   OH271788   6.572   2.320   4.497  0.0146  0.3673  0.1788
16766TIP3    H171789   6.659   2.295   4.530  0.5299 -0.9557 -2.0145
16766TIP3    H271790   6.590   2.382   4.426 -0.8294  0.1820 -0.2119
16767TIP3   OH271791   2.234   2.337  13.124  0.1776  0.0348 -0.0369
16767TIP3    H171792   2.234   2.250  13.082 -1.1215 -1.2304  2.3780
16767TIP3    H271793   2.185   2.392  13.063  0.2050 -1.1535 -1.2014
16768TIP3   OH271794   6.272   6.473  11.355 -0.2025  0.0281  0.1386
16768TIP3    H171795   6.269   6.567  11.371 -0.9528  0.1934 -0.8249
16768TIP3    H271796   6.218   6.435  11.424 -1.5719  0.5106 -0.6272
16769TIP3   OH271797   6.576   2.287  14.848  0.7031 -0.2773  0.2577
16769TIP3    H171798   6.627   2.363  14.878  2.3061 -1.4066  0.5467
16769TIP3    H271799   6.498   2.325  14.808  2.0752  1.5972 -0.8299
16770TIP3   OH271800   4.673   3.317  13.784 -0.0766 -0.0342 -0.2104
16770TIP3    H171801   4.698   3.409  13.781  0.8146 -0.2873 -0.9457
16770TIP3    H271802   4.733   3.279  13.849  0.3777 -0.3205 -0.7860
16771TIP3   OH271803   0.308   5.966   3.271 -0.0339  0.6002  0.2870
16771TIP3    H171804   0.226   6.014   3.282  0.1676  0.4168  3.3781
16771TIP3    H271805   0.369   6.007   3.332  1.0941 -1.5195  0.6837
16772TIP3   OH271806   2.851   4.629   1.650 -0.2077  0.4660  0.3555
16772TIP3    H171807   2.841   4.535   1.635  0.3820  0.5041 -0.3144
16772TIP3    H271808   2.763   4.665   1.639 -0.2839  0.1075 -0.2348
16773TIP3   OH271809   6.823   3.663   4.568  0.0574 -0.0270 -0.3723
16773TIP3    H171810   6.888   3.601   4.536  0.0862 -1.3776  2.0842
16773TIP3    H271811   6.753   3.609   4.604 -0.1465  1.3125  1.3999
16774TIP3   OH271812   3.352   2.918   4.834  0.2782  0.0901 -0.2711
16774TIP3    H171813   3.405   2.848   4.873  0.3781  0.6750  0.6755
16774TIP3    H271814   3.335   2.888   4.745  2.8936  0.2574 -0.8993
16775TIP3   OH271815   2.888   3.817   2.452 -0.4712  0.3935  0.1461
16775TIP3    H171816   2.801   3.856   2.450 -0.6333  0.0303  0.0389
16775TIP3    H271817   2.942   3.882   2.498 -1.2700 -0.3369  2.2486
16776TIP3   OH271818   5.522   0.525   0.752 -0.4184 -0.2484  0.0438
16776TIP3    H171819   5.566   0.525   0.667  0.5100  0.7811  0.5106
16776TIP3    H271820   5.561   0.598   0.799  0.1359 -1.6754  1.9075
16777TIP3   OH271821   6.603   5.957   4.504  0.5994 -0.2773  0.1100
16777TIP3    H171822   6.599   6.000   4.419 -0.8623 -1.6161 -0.5505
16777TIP3    H271823   6.654   6.017   4.559  0.8143  1.0341 -1.4447
16778TIP3   OH271824   6.355   3.778  11.806  0.2725 -0.2189 -0.6853
16778TIP3    H171825   6.370   3.873  11.814  0.3535 -0.1604 -1.4212
16778TIP3    H271826   6.271   3.771  11.761 -0.1876 -0.5173  0.1958
16779TIP3   OH271827   6.206   6.277  13.892 -0.5064 -0.4373 -0.0126
16779TIP3    H171828   6.294   6.245  13.910 -0.0747  0.8249  0.2795
16779TIP3    H271829   6.156   6.258  13.972 -0.5669 -1.3466 -0.2610
16780TIP3   OH271830   0.401   1.192   1.775  0.2657 -0.0973  0.3311
16780TIP3    H171831   0.448   1.275   1.781  0.8583 -0.3201 -0.9821
16780TIP3    H271832   0.318   1.214   1.732  0.4287 -0.1891 -0.0295
16781TIP3   OH271833   1.386   3.603  13.302  0.3425  0.2227 -0.1526
16781TIP3    H171834   1.475   3.636  13.311  2.0103 -3.2904 -1.9832
16781TIP3    H271835   1.390   3.512  13.331 -2.8366  0.0539  0.1850
16782TIP3   OH271836   4.089   6.712  13.534  0.2092 -0.0077  0.0688
16782TIP3    H171837   4.095   6.719  13.629 -0.4140  1.0485  0.0472
16782TIP3    H271838   4.180   6.704  13.504  0.4898  0.7953  0.6847
16783TIP3   OH271839   3.904   6.260  15.895 -0.3747 -0.5196 -0.1902
16783TIP3    H171840   3.882   6.342  15.850 -1.1398 -1.5039 -1.6410
16783TIP3    H271841   3.993   6.239  15.865  0.6004  0.6893  1.6158
16784TIP3   OH271842   0.139   4.490  13.922 -0.1755 -0.0101 -0.1608
16784TIP3    H171843   0.070   4.424  13.928 -0.6307  0.4197 -0.5486
16784TIP3    H271844   0.121   4.550  13.995  0.9529 -0.9664  0.9330
16785TIP3   OH271845   2.074   3.449   1.119  0.1467 -0.2651  0.0077
16785TIP3    H171846   2.147   3.431   1.178 -0.3722 -0.3409  0.6353
16785TIP3    H271847   2.000   3.399   1.156 -0.5664  0.8619  0.1521
16786TIP3   OH271848   6.396   4.747  14.767  0.6040 -0.3120 -0.0113
16786TIP3    H171849   6.337   4.683  14.727  1.2677 -0.7589 -0.2993
16786TIP3    H271850   6.359   4.764  14.853 -1.2001  1.1246 -1.0071
16787TIP3   OH271851   2.669   2.917  14.245 -0.0573  0.7492  0.0794
16787TIP3    H171852   2.656   2.877  14.159  0.4592 -0.3818  0.5162
16787TIP3    H271853   2.607   2.872  14.303  1.1210 -0.0494  0.7550
16788TIP3   OH271854   3.610   1.338   1.492  0.2210 -0.4493 -0.5340
16788TIP3    H171855   3.592   1.362   1.401  0.1129  0.1893 -0.3523
16788TIP3    H271856   3.533   1.289   1.520  0.1470 -0.4382 -0.7196
16789TIP3   OH271857   0.214   0.135   4.832 -0.3277 -0.0410  0.5771
16789TIP3    H171858   0.229   0.223   4.797 -1.8673 -0.1508 -0.4677
16789TIP3    H271859   0.269   0.131   4.911 -0.1231  1.8022  0.5787
16790TIP3   OH271860   1.483   0.607   3.936  0.0358 -0.6882  0.4187
16790TIP3    H171861   1.456   0.574   4.022  0.5101  2.0097  1.7046
16790TIP3    H271862   1.485   0.529   3.880 -1.7128 -2.3187  2.4526
16791TIP3   OH271863   4.911   2.786  12.564 -0.2012  0.4376  0.6495
16791TIP3    H171864   4.861   2.751  12.490  0.5084  0.1971  0.2697
16791TIP3    H271865   4.845   2.807  12.630 -0.7845 -0.0349  0.2296
16792TIP3   OH271866   6.099   2.368   6.683 -0.5463 -0.6011  0.4680
16792TIP3    H171867   6.154   2.422   6.740 -0.0777  1.5408 -1.8308
16792TIP3    H271868   6.152   2.291   6.663  0.3618 -0.0676  0.7820
16793TIP3   OH271869   3.938   1.686  15.890  0.2809 -0.6462 -0.6766
16793TIP3    H171870   3.874   1.690  15.819 -0.6733 -0.0087  0.2039
16793TIP3    H271871   4.013   1.639  15.851 -0.3997 -0.7334 -1.9479
16794TIP3   OH271872   4.219   0.702   5.461  0.1632 -0.0128  0.4906
16794TIP3    H171873   4.167   0.695   5.541  0.6845 -1.2060  0.7461
16794TIP3    H271874   4.301   0.742   5.489  0.2699 -0.2532  0.5311
16795TIP3   OH271875   5.296   6.411  14.261  0.1783  0.4784  0.1567
16795TIP3    H171876   5.212   6.366  14.270  0.9891 -1.4907 -1.3688
16795TIP3    H271877   5.296   6.476  14.332 -2.6019  0.5600  0.1845
16796TIP3   OH271878   2.512   1.889  16.629 -0.1592  0.2341  0.1060
16796TIP3    H171879   2.607   1.890  16.616 -0.1913 -0.1167 -0.1873
16796TIP3    H271880   2.495   1.803  16.669 -0.2037  0.8182  1.4067
16797TIP3   OH271881   4.686   5.463   0.254  0.4003 -0.2430  0.1602
16797TIP3    H171882   4.684   5.391   0.316 -0.5149 -1.0210 -0.7324
16797TIP3    H271883   4.667   5.422   0.169  1.2563  0.8362 -0.5890
16798TIP3   OH271884   0.649   2.516   0.738  0.2083  0.4141 -0.4331
16798TIP3    H171885   0.664   2.539   0.646  0.5883  0.0555 -0.4628
16798TIP3    H271886   0.737   2.512   0.777 -0.0069  2.3600  0.4028
16799TIP3   OH271887   5.435   1.190   4.399  0.6308  0.0393  0.3593
16799TIP3    H171888   5.345   1.173   4.427 -0.1254  0.7444 -1.4581
16799TIP3    H271889   5.459   1.272   4.443  0.5454 -0.3499  1.1488
16800TIP3   OH271890   4.377   1.816  13.310 -0.4587  0.0063  0.0612
16800TIP3    H171891   4.443   1.858  13.255 -0.6614  0.4945  0.1849
16800TIP3    H271892   4.427   1.767  13.375 -0.1905  1.5763  1.0861
16801TIP3   OH271893   3.880   2.759  11.809  0.0358 -0.2700  0.2324
16801TIP3    H171894   3.945   2.783  11.743  0.5855 -0.0481  0.8468
16801TIP3    H271895   3.898   2.668  11.829 -2.0034 -1.2798 -2.0445
16802TIP3   OH271896   5.006   2.109   4.752  0.4686  0.3114  0.0038
16802TIP3    H171897   5.043   2.034   4.799 -0.4347 -1.0430 -1.3226
16802TIP3    H271898   4.927   2.132   4.800 -0.2877 -0.8679 -0.6293
16803TIP3   OH271899   0.637   6.482  11.467 -0.2646  0.1544  0.2481
16803TIP3    H171900   0.721   6.522  11.449 -0.2125  0.1896  0.5619
16803TIP3    H271901   0.658   6.407  11.523 -0.3149 -0.5613 -0.6793
16804TIP3   OH271902   0.354   1.564  10.864  0.4461  0.3688  0.4610
16804TIP3    H171903   0.305   1.565  10.782 -1.3003  1.9758  1.4573
16804TIP3    H271904   0.439   1.601  10.841 -0.0708  0.9613 -0.5958
16805TIP3   OH271905   0.629   4.724   4.243  0.4552  0.1793 -0.3786
16805TIP3    H171906   0.685   4.761   4.175  1.1738 -1.1885 -0.5764
16805TIP3    H271907   0.677   4.739   4.324 -1.1189  3.2201  0.1201
16806TIP3   OH271908   0.424   2.402  16.860 -0.1664  0.3101  0.6718
16806TIP3    H171909   0.519   2.398  16.872 -0.2669 -1.1145  1.2493
16806TIP3    H271910   0.400   2.491  16.884  1.0580  0.7868  0.1892
16807TIP3   OH271911   5.960   5.774  11.850  0.2684  0.0847  0.2925
16807TIP3    H171912   5.994   5.776  11.939  2.0000 -0.6855 -0.3126
16807TIP3    H271913   5.906   5.695  11.848 -0.0863  0.3074  0.7474
16808TIP3   OH271914   0.357   4.380   1.451 -0.0202  0.2024  0.4622
16808TIP3    H171915   0.446   4.411   1.439  0.3504 -0.4313  1.4287
16808TIP3    H271916   0.341   4.391   1.545 -1.2247  1.0112  0.1780
16809TIP3   OH271917   2.009   2.627   0.418  0.1696 -0.0720  0.2167
16809TIP3    H171918   2.024   2.595   0.328 -0.2197  1.6816 -0.5069
16809TIP3    H271919   1.985   2.549   0.467 -1.5606 -0.8054 -1.6591
16810TIP3   OH271920   5.461   2.235   1.822 -0.7383  0.1316  0.2270
16810TIP3    H171921   5.484   2.145   1.800 -0.7026  0.1924  0.0191
16810TIP3    H271922   5.432   2.230   1.913  0.5890  0.1440  0.6688
16811TIP3   OH271923   3.410   0.467  12.288  0.2442 -0.4980  0.0158
16811TIP3    H171924   3.444   0.505  12.207 -1.8959  0.1569 -0.6399
16811TIP3    H271925   3.418   0.373  12.277 -0.1306 -0.4182 -1.0341
16812TIP3   OH271926   5.051   5.347  13.205  0.1301  0.1020  0.4911
16812TIP3    H171927   5.107   5.410  13.159  0.0339 -0.4987 -0.4884
16812TIP3    H271928   4.986   5.401  13.250  1.1171  0.7794  1.1507
16813TIP3   OH271929   3.236   1.578   0.976 -0.3221  0.1885 -0.3378
16813TIP3    H171930   3.166   1.629   1.018 -1.1124 -1.0426 -0.0937
16813TIP3    H271931   3.317   1.623   1.001 -0.8475  0.1916  1.5456
16814TIP3   OH271932   3.847   6.497   3.799 -0.0465  0.2424 -0.0863
16814TIP3    H171933   3.831   6.538   3.884 -0.7980 -0.0240 -0.0905
16814TIP3    H271934   3.761   6.498   3.756  0.9545  3.9151 -2.4652
16815TIP3   OH271935   2.894   2.415  14.263 -0.3949 -0.4963  0.0808
16815TIP3    H171936   2.877   2.393  14.172  0.3181 -0.3909 -0.0873
16815TIP3    H271937   2.906   2.331  14.307 -0.7264 -0.5462  0.0777
16816TIP3   OH271938   2.173   0.798   0.926 -0.4642 -0.0561 -0.4507
16816TIP3    H171939   2.238   0.727   0.925 -0.5929 -0.2389  1.2667
16816TIP3    H271940   2.198   0.854   0.852  0.9506 -0.7344 -0.5289
16817TIP3   OH271941   4.737   5.172   0.306 -0.6525 -0.3316  1.2114
16817TIP3    H171942   4.700   5.084   0.316  0.2427 -0.7046  1.4167
16817TIP3    H271943   4.820   5.158   0.260 -0.5332  0.4139  1.1804
16818TIP3   OH271944   1.371   6.388   1.919 -0.4676  0.3409 -0.9588
16818TIP3    H171945   1.408   6.465   1.962 -0.6217  1.3463 -2.5567
16818TIP3    H271946   1.282   6.414   1.894 -0.3844 -0.2010 -1.8799
16819TIP3   OH271947   3.847   3.890   0.892  0.0030  0.3363  0.0651
16819TIP3    H171948   3.801   3.919   0.813  1.1690 -0.8257 -1.0757
16819TIP3    H271949   3.935   3.925   0.883 -0.3341  1.8622  1.8558
16820TIP3   OH271950   4.135   2.179   5.402  0.4031  0.4157  0.3072
16820TIP3    H171951   4.115   2.087   5.422  0.3003  0.5102  0.6331
16820TIP3    H271952   4.054   2.212   5.363  0.3543  0.4380  0.4264
16821TIP3   OH271953   0.162   4.458  16.399  0.1902 -0.6035  0.1091
16821TIP3    H171954   0.234   4.397  16.417 -1.1486 -1.6285  2.5472
16821TIP3    H271955   0.130   4.482  16.486 -1.8783  0.4653 -0.8983
16822TIP3   OH271956   3.842   0.043   1.479  0.2486 -0.4697  0.3528
16822TIP3    H171957   3.788   0.050   1.400 -1.9355  0.4679  1.8352
16822TIP3    H271958   3.853   0.134   1.508 -0.9752 -0.8987  2.3444
16823TIP3   OH271959   3.443   3.601   1.156  0.6434  0.2139 -0.4580
16823TIP3    H171960   3.420   3.570   1.243 -0.2128 -0.5606 -0.9452
16823TIP3    H271961   3.517   3.545   1.130 -1.8964 -2.7636 -1.9892
16824TIP3   OH271962   3.911   1.762   2.798 -0.2084  0.0184  0.0976
16824TIP3    H171963   3.821   1.743   2.825 -0.7325  0.0828 -1.5054
16824TIP3    H271964   3.902   1.809   2.715  1.3244 -1.4760 -0.9880
16825TIP3   OH271965   5.005   3.370  15.188 -0.0221 -0.6008  0.1874
16825TIP3    H171966   5.059   3.446  15.207 -1.1059  0.5453 -1.1194
16825TIP3    H271967   5.013   3.315  15.266  1.9530  0.1209  0.5601
16826TIP3   OH271968   0.705   2.383  13.542  0.0537 -0.3510  0.3854
16826TIP3    H171969   0.630   2.373  13.483  0.9659 -1.3470 -0.6685
16826TIP3    H271970   0.668   2.417  13.623 -1.2072  1.4011 -0.8444
16827TIP3   OH271971   0.812   4.073   0.229  0.2691 -0.2327 -0.3609
16827TIP3    H171972   0.853   3.987   0.236 -1.6631 -1.2916 -1.0806
16827TIP3    H271973   0.741   4.070   0.294 -0.1138  0.6279 -0.7258
16828TIP3   OH271974   5.994   5.167   4.088 -0.2752 -0.6052  0.4696
16828TIP3    H171975   6.019   5.089   4.038  2.2794  0.8582 -0.7562
16828TIP3    H271976   6.035   5.155   4.174  1.6270  0.0722 -0.2864
16829TIP3   OH271977   5.137   6.517   3.349  0.3758 -0.0569  0.2844
16829TIP3    H171978   5.189   6.499   3.271  1.2902  0.6438  0.7014
16829TIP3    H271979   5.075   6.585   3.322  0.2917 -0.2375  0.0202
16830TIP3   OH271980   3.183   1.566   0.195 -0.5007 -0.0970  0.3634
16830TIP3    H171981   3.131   1.646   0.190 -0.4777 -0.1047 -0.0103
16830TIP3    H271982   3.157   1.525   0.278 -2.6519 -1.1609 -0.7541
16831TIP3   OH271983   0.739   2.355  14.767 -0.4481 -0.8593  0.0363
16831TIP3    H171984   0.828   2.335  14.737 -1.6495 -2.1137 -3.1510
16831TIP3    H271985   0.731   2.309  14.850  1.5435 -1.6505 -0.1520
16832TIP3   OH271986   0.932   2.357  12.136 -0.5493  0.3844 -0.0917
16832TIP3    H171987   0.919   2.383  12.227 -1.0109 -1.1535  0.3241
16832TIP3    H271988   0.945   2.262  12.140 -1.0840  0.2092 -1.6686
16833TIP3   OH271989   6.331   5.334   3.660 -0.6057  0.2632  0.2264
16833TIP3    H171990   6.412   5.356   3.614 -0.3542 -0.7468  0.1692
16833TIP3    H271991   6.360   5.290   3.740 -1.0570  1.5615  1.1511
16834TIP3   OH271992   5.590   3.091  15.762 -0.2411 -0.2088 -0.2843
16834TIP3    H171993   5.552   3.071  15.676 -1.5224 -0.6348  0.3668
16834TIP3    H271994   5.516   3.091  15.822  0.7033 -0.3966  0.9166
16835TIP3   OH271995   2.975   3.530  13.545 -0.9712 -0.1523 -0.4519
16835TIP3    H171996   3.063   3.539  13.582 -1.0893  0.2683 -0.2700
16835TIP3    H271997   2.989   3.533  13.450 -0.7657 -0.3006 -0.4276
16836TIP3   OH271998   6.380   6.743  11.413  0.2679  0.2245 -0.0988
16836TIP3    H171999   6.418   6.826  11.382  1.3153 -0.1942  0.0285
16836TIP3    H272000   6.455   6.685  11.424 -0.1750  0.0033  2.1668
16837TIP3   OH272001   5.238   0.768   4.201  0.6734  0.0329 -0.5912
16837TIP3    H172002   5.145   0.770   4.177 -0.6396 -1.7331  3.4261
16837TIP3    H272003   5.259   0.860   4.219 -1.4187  0.1737  1.6335
16838TIP3   OH272004   1.939   4.598  15.102  0.4937  0.1995  0.3257
16838TIP3    H172005   1.969   4.689  15.111  0.8170  0.1448 -0.1457
16838TIP3    H272006   1.910   4.573  15.189  0.3750  0.7680  0.4511
16839TIP3   OH272007   2.220   1.139  16.216  0.7588 -0.3318 -0.2051
16839TIP3    H172008   2.130   1.172  16.209  0.7792 -0.4511 -1.0732
16839TIP3    H272009   2.238   1.139  16.310 -0.4081 -0.9964  0.0373
16840TIP3   OH272010   1.280   2.351  15.915  0.0222 -0.4587 -0.3983
16840TIP3    H172011   1.242   2.302  15.843 -0.5815 -1.0561  0.3055
16840TIP3    H272012   1.223   2.427  15.925  0.9078  0.3745 -1.4322
16841TIP3   OH272013   2.647   6.303  12.712 -0.1202  0.3226 -0.0566
16841TIP3    H172014   2.564   6.349  12.713 -1.3446 -1.7067 -0.9386
16841TIP3    H272015   2.639   6.242  12.638  1.2783 -1.4209  1.1571
16842TIP3   OH272016   3.636   4.448  14.047 -0.1994 -0.1066 -0.1428
16842TIP3    H172017   3.670   4.407  14.127 -1.8811 -0.3461  0.5071
16842TIP3    H272018   3.675   4.398  13.976 -1.9156 -2.7365  0.6143
16843TIP3   OH272019   0.462   0.169  14.825 -0.7388 -0.1516 -0.0509
16843TIP3    H172020   0.480   0.230  14.754 -0.4117 -0.4218 -0.2088
16843TIP3    H272021   0.467   0.221  14.905  0.3625 -0.1223 -0.1218
16844TIP3   OH272022   0.524   2.834   6.342  0.5006  0.0115 -0.1694
16844TIP3    H172023   0.513   2.915   6.291  0.3195  1.6448  2.2691
16844TIP3    H272024   0.508   2.764   6.279 -2.6004  1.8908 -1.7496
16845TIP3   OH272025   0.387   6.404   3.894  0.4866 -0.7934 -0.0254
16845TIP3    H172026   0.478   6.434   3.892  0.2089  0.1769  0.9070
16845TIP3    H272027   0.389   6.318   3.851  1.7256 -0.5086 -0.5913
16846TIP3   OH272028   2.413   6.592   2.416  0.1120 -0.1015 -0.2900
16846TIP3    H172029   2.501   6.582   2.382  0.3635 -0.1032  0.3526
16846TIP3    H272030   2.405   6.685   2.436 -0.0140 -0.1098 -0.2968
16847TIP3   OH272031   1.847   3.711   0.048 -0.2596 -0.4317 -0.0236
16847TIP3    H172032   1.917   3.673  -0.005  1.2581  1.8513  0.1828
16847TIP3    H272033   1.882   3.713   0.137 -0.1888  1.4718 -0.0463
16848TIP3   OH272034   1.234   6.069  11.105  0.6167 -0.2635  0.3883
16848TIP3    H172035   1.142   6.047  11.092  0.8951 -0.6164 -1.2474
16848TIP3    H272036   1.278   5.984  11.112  0.9439 -0.1157  0.1371
16849TIP3   OH272037   3.350   3.041   5.706  0.5939  0.0554  0.2571
16849TIP3    H172038   3.283   3.039   5.774  0.8509  1.0916  0.5673
16849TIP3    H272039   3.382   2.951   5.700 -0.9216 -0.4952 -0.0095
16850TIP3   OH272040   2.753   6.006  12.850  0.3547  0.5347  0.1434
16850TIP3    H172041   2.754   6.101  12.835  1.6301  0.6988  1.0894
16850TIP3    H272042   2.780   5.968  12.766  1.8043  1.1297  0.3198
16851TIP3   OH272043   6.395   2.592  11.947 -0.0243 -0.0384 -0.3567
16851TIP3    H172044   6.422   2.578  12.038 -1.8555  1.8146  0.5635
16851TIP3    H272045   6.300   2.604  11.953 -0.1842  0.0396 -2.5490
16852TIP3   OH272046   2.232   1.491   0.390 -0.7259  0.4490  0.2849
16852TIP3    H172047   2.248   1.427   0.460  1.3095 -0.1160 -0.6300
16852TIP3    H272048   2.186   1.441   0.323 -1.4144  0.6240  0.6205
16853TIP3   OH272049   6.601   2.993  10.654  0.2957 -0.4757  0.3419
16853TIP3    H172050   6.576   3.037  10.735  0.4730 -1.1532  0.7733
16853TIP3    H272051   6.687   3.028  10.633 -0.6950  1.4445 -0.8445
16854TIP3   OH272052   6.451   6.004  14.174 -0.2676  0.1489 -0.2286
16854TIP3    H172053   6.525   6.006  14.235 -0.4509  2.6221  0.0157
16854TIP3    H272054   6.435   5.911  14.159  1.1039 -0.5075  1.8884
16855TIP3   OH272055   5.887   0.713  16.220  0.1175 -0.1303  0.3429
16855TIP3    H172056   5.941   0.789  16.199 -0.2985  0.3971  1.1613
16855TIP3    H272057   5.944   0.656  16.272  0.5672 -0.5992 -0.6320
16856TIP3   OH272058   0.090   5.100  12.762  0.5664  0.2199  0.0470
16856TIP3    H172059   0.168   5.071  12.810  0.4571 -3.1578 -1.5443
16856TIP3    H272060   0.019   5.094  12.826  1.2156  1.0285  0.8654
16857TIP3   OH272061   6.203   6.082   4.213  0.3508 -0.1466 -0.1568
16857TIP3    H172062   6.208   6.028   4.134 -3.4717  0.6431 -1.1567
16857TIP3    H272063   6.238   6.167   4.187  0.4912 -0.3208 -0.5394
16858TIP3   OH272064   2.120   3.100   1.769 -0.0873 -0.3325  0.6024
16858TIP3    H172065   2.088   3.014   1.798 -1.0023 -0.5347 -0.9083
16858TIP3    H272066   2.158   3.083   1.683  0.4551  0.6508  0.6335
16859TIP3   OH272067   3.877   0.282  11.838 -0.4024 -0.4580  0.0785
16859TIP3    H172068   3.962   0.316  11.866 -1.2351  2.3190 -0.4609
16859TIP3    H272069   3.882   0.188  11.857  3.1694 -0.6577 -0.9582
16860TIP3   OH272070   2.483   4.504  13.366 -0.8564  0.0567  0.4015
16860TIP3    H172071   2.477   4.442  13.294 -1.9257 -0.2308  0.7145
16860TIP3    H272072   2.392   4.530  13.383 -0.4766  1.3611  0.5856
16861TIP3   OH272073   3.016   4.953   1.205  0.2218  0.3804  0.8120
16861TIP3    H172074   2.930   4.972   1.167 -0.0834 -1.0901  0.7208
16861TIP3    H272075   3.009   4.982   1.296 -0.5772 -0.3013  0.9738
16862TIP3   OH272076   1.381   0.295  13.787 -0.5606  0.4986 -0.1055
16862TIP3    H172077   1.451   0.251  13.836 -2.1145 -1.5108  0.4550
16862TIP3    H272078   1.413   0.384  13.773  2.7208 -0.7354 -1.1952
16863TIP3   OH272079   6.050   6.259   1.613  0.4696 -0.0104 -0.2100
16863TIP3    H172080   6.088   6.178   1.648 -1.1828 -0.8215 -0.2090
16863TIP3    H272081   6.119   6.324   1.624  1.1431 -0.9682  1.5967
16864TIP3   OH272082   2.487   5.059   1.807  0.4992 -0.1638  0.1681
16864TIP3    H172083   2.521   4.979   1.846 -1.7593 -0.7604  1.0460
16864TIP3    H272084   2.563   5.117   1.801  2.6493 -2.9805 -2.3253
16865TIP3   OH272085   1.383   2.057  12.232  0.0339  0.1803 -0.1660
16865TIP3    H172086   1.359   2.020  12.147  0.0243  0.3343 -0.2304
16865TIP3    H272087   1.381   2.151  12.218  1.8747  0.1948 -0.5097
16866TIP3   OH272088   0.111   6.817   4.031  0.1921  0.2700 -0.2882
16866TIP3    H172089   0.136   6.900   3.990 -0.2505  0.4048 -0.2816
16866TIP3    H272090   0.110   6.835   4.125 -1.6454  0.7372 -0.3752
16867TIP3   OH272091   0.368   4.329   1.892  0.4709 -0.0136  0.3916
16867TIP3    H172092   0.378   4.267   1.965 -3.0260  0.1799  1.2124
16867TIP3    H272093   0.433   4.397   1.909  0.7140 -0.7077  2.5564
16868TIP3   OH272094   2.993   2.551   5.414 -0.5177  0.2853  0.5280
16868TIP3    H172095   2.910   2.511   5.441  0.0655 -0.3848  1.3804
16868TIP3    H272096   2.970   2.641   5.391 -1.8891 -0.5331 -1.5957
16869TIP3   OH272097   6.848   6.053   4.625  0.3298 -0.4822 -0.1555
16869TIP3    H172098   6.910   6.043   4.553 -0.1847  2.6887 -1.2179
16869TIP3    H272099   6.885   6.001   4.696  2.6160 -1.0951 -1.6831
16870TIP3   OH272100   5.430   3.882   5.080 -0.5737 -0.6446  0.2759
16870TIP3    H172101   5.445   3.939   5.005  1.4070 -2.0491 -0.4847
16870TIP3    H272102   5.368   3.817   5.048 -0.7106 -0.5033  0.2546
16871TIP3   OH272103   4.708   3.901  15.434 -0.3210  0.6191 -0.6917
16871TIP3    H172104   4.776   3.849  15.476 -1.3125  0.6239  1.0350
16871TIP3    H272105   4.709   3.984  15.482 -1.8176  0.4461 -0.3179
16872TIP3   OH272106   3.585   6.542   3.684 -0.0522  0.2584  0.6836
16872TIP3    H172107   3.580   6.495   3.601  0.8483 -0.9292  1.2815
16872TIP3    H272108   3.584   6.635   3.659  2.0701 -0.0477 -0.8080
16873TIP3   OH272109   6.809   6.119  16.033 -0.5654 -0.2227  0.1055
16873TIP3    H172110   6.898   6.085  16.041 -0.2234  0.8309  1.0192
16873TIP3    H272111   6.810   6.169  15.952  0.0782  0.8564  0.7434
16874TIP3   OH272112   2.586   2.028   3.049 -0.3342 -0.2533  0.0464
16874TIP3    H172113   2.498   2.040   3.012 -0.0288  0.7648 -0.3954
16874TIP3    H272114   2.607   1.937   3.031 -0.5356 -0.0064 -1.5922
16875TIP3   OH272115   5.798   1.189   5.282 -0.0119 -0.3805 -0.1155
16875TIP3    H172116   5.860   1.230   5.220  0.4525  0.0403  0.6103
16875TIP3    H272117   5.785   1.256   5.349  0.3147 -1.2111  0.7914
16876TIP3   OH272118   0.711   5.252   1.425 -0.5943 -0.1203  0.1325
16876TIP3    H172119   0.722   5.176   1.482 -3.6888 -1.5934 -0.9930
16876TIP3    H272120   0.654   5.311   1.475  0.7584  0.9408  0.4830
16877TIP3   OH272121   3.333   3.248  16.276  0.2898 -0.9057 -0.0441
16877TIP3    H172122   3.390   3.321  16.297 -0.3092 -0.6288  0.6644
16877TIP3    H272123   3.383   3.170  16.300  0.2301 -0.6521  0.9275
16878TIP3   OH272124   3.222   3.189  12.784 -0.2084 -0.2947  0.4577
16878TIP3    H172125   3.258   3.276  12.770 -0.7435 -0.2546 -0.7171
16878TIP3    H272126   3.299   3.131  12.784 -0.0177 -0.0650 -0.7866
16879TIP3   OH272127   5.471   1.339   5.476 -0.0512 -0.1164 -0.9674
16879TIP3    H172128   5.555   1.382   5.492  0.6044 -1.5310 -0.4485
16879TIP3    H272129   5.406   1.402   5.509  0.9167  0.1402  0.5921
16880TIP3   OH272130   5.595   1.566  12.148  0.3959 -0.2755 -0.3766
16880TIP3    H172131   5.640   1.543  12.229  2.0935 -1.5292 -1.6055
16880TIP3    H272132   5.502   1.561  12.170  0.8165 -1.1613  1.3534
16881TIP3   OH272133   1.273   0.070   1.577 -0.2081 -0.1564  0.0639
16881TIP3    H172134   1.355   0.102   1.540  0.4379 -1.0961  0.6618
16881TIP3    H272135   1.278  -0.025   1.571 -2.2726 -0.2411 -2.0509
16882TIP3   OH272136   1.346   2.144  15.394  0.0212 -0.3109  0.3717
16882TIP3    H172137   1.253   2.164  15.389  0.3314  0.8509 -2.8064
16882TIP3    H272138   1.351   2.050  15.378 -0.6444 -0.7562  2.4578
16883TIP3   OH272139   4.073   6.529  15.988  0.0017  0.1322  0.1915
16883TIP3    H172140   4.040   6.454  16.037 -0.0504 -0.0357 -0.1007
16883TIP3    H272141   4.166   6.510  15.976 -0.0648 -0.0083 -0.1048
16884TIP3   OH272142   2.425   3.895  16.473 -0.0309 -0.7445  0.4537
16884TIP3    H172143   2.493   3.954  16.505 -1.5313  0.3111  1.8235
16884TIP3    H272144   2.370   3.949  16.416 -0.4917 -1.2472  0.4025
16885TIP3   OH272145   4.793   2.095  16.192  0.3608 -0.5451  0.3064
16885TIP3    H172146   4.864   2.067  16.133 -0.4996 -0.0715 -1.0097
16885TIP3    H272147   4.745   2.160  16.141  1.1403  1.9387  2.5199
16886TIP3   OH272148   3.674   3.146  15.116 -0.2341 -0.2558  0.1886
16886TIP3    H172149   3.762   3.124  15.086  0.6582  3.4463 -0.4938
16886TIP3    H272150   3.679   3.138  15.211  1.0566  0.3310  0.2046
16887TIP3   OH272151   2.859   5.002   2.538 -0.1104  0.3414  0.0130
16887TIP3    H172152   2.921   5.037   2.474 -0.0891  0.1778 -0.0570
16887TIP3    H272153   2.802   4.944   2.487  1.3459 -1.6216  0.5084
16888TIP3   OH272154   5.370   2.708   3.423  0.7381 -0.1265  0.1269
16888TIP3    H172155   5.372   2.702   3.328  0.1218  1.6792 -0.0390
16888TIP3    H272156   5.357   2.801   3.441  2.3401 -0.2168  2.0173
16889TIP3   OH272157   1.361   0.698  11.740  0.2970 -0.3964 -0.8639
16889TIP3    H172158   1.454   0.714  11.725  0.0133  0.3265 -1.9371
16889TIP3    H272159   1.330   0.660  11.658 -0.0629 -2.0418 -0.0078
16890TIP3   OH272160   4.933   5.338  15.615  0.0610 -0.1993  0.0148
16890TIP3    H172161   4.882   5.384  15.681  0.5015 -0.1141  0.3033
16890TIP3    H272162   4.982   5.272  15.665 -0.9338 -1.3275 -0.4482
16891TIP3   OH272163   4.508   2.406  13.015 -0.4037  0.1680  0.1254
16891TIP3    H172164   4.443   2.351  12.971 -0.2506  1.3924 -1.7467
16891TIP3    H272165   4.589   2.356  13.009 -0.4178  0.2515 -0.8899
16892TIP3   OH272166   2.152   6.824   2.133  0.9175 -0.1137 -0.3147
16892TIP3    H172167   2.144   6.750   2.193 -0.5386 -1.0083 -1.5304
16892TIP3    H272168   2.246   6.839   2.126  1.2964 -2.2061 -0.4300
16893TIP3   OH272169   6.096   5.770   5.306 -0.5860 -0.2779 -0.2679
16893TIP3    H172170   6.097   5.675   5.317 -0.4176 -0.1310  1.3453
16893TIP3    H272171   6.010   5.797   5.338 -0.1295  0.2141  0.5952
16894TIP3   OH272172   6.490   0.099   0.389  0.1489  0.2067 -0.0510
16894TIP3    H172173   6.453   0.088   0.476 -1.1865 -1.1678 -0.7358
16894TIP3    H272174   6.571   0.049   0.390 -0.0901 -0.1768  0.2816
16895TIP3   OH272175   3.599   6.794   3.576 -0.0806  0.1943  0.2221
16895TIP3    H172176   3.635   6.768   3.491 -0.8523  0.4787 -0.1995
16895TIP3    H272177   3.519   6.842   3.555 -0.8079 -0.5647  1.1429
16896TIP3   OH272178   5.850   3.532  12.186  0.3023  0.4227 -0.4924
16896TIP3    H172179   5.906   3.472  12.236  1.0101  1.2485 -0.2769
16896TIP3    H272180   5.906   3.607  12.166 -0.4978  0.9120 -0.9725
16897TIP3   OH272181   3.821   3.427   0.022 -0.5220 -0.2109  0.1983
16897TIP3    H172182   3.891   3.365   0.041 -0.6227  0.1143  1.7219
16897TIP3    H272183   3.865   3.498  -0.025 -0.2758 -1.0437 -0.8909
16898TIP3   OH272184   1.679   4.586   3.034 -0.1763 -0.5059 -0.0041
16898TIP3    H172185   1.755   4.641   3.014  1.4823 -1.4709  2.9212
16898TIP3    H272186   1.660   4.540   2.953  1.3901  0.9130 -1.2445
16899TIP3   OH272187   4.081   4.752  16.085  0.1232 -0.3438  0.2512
16899TIP3    H172188   4.064   4.837  16.127 -2.9277 -1.9031  2.5063
16899TIP3    H272189   4.001   4.731  16.038  1.1733 -1.6286 -1.0875
16900TIP3   OH272190   2.985   1.957   4.028 -0.3088 -0.1603 -0.2657
16900TIP3    H172191   2.903   1.976   3.982 -1.2116 -0.2486  1.2176
16900TIP3    H272192   3.037   2.038   4.019 -1.4730  0.7231  0.5852
16901TIP3   OH272193   5.488   3.601  14.659 -0.7488 -0.1117  0.3478
16901TIP3    H172194   5.516   3.638  14.575  0.4099  1.1397  1.2576
16901TIP3    H272195   5.533   3.516  14.663  1.9696  1.2560  1.1537
16902TIP3   OH272196   0.552   6.023   3.425  0.4471  0.2230  0.3462
16902TIP3    H172197   0.636   6.012   3.469  0.7429 -0.4890 -0.3743
16902TIP3    H272198   0.494   6.058   3.493  1.1453  0.0783  1.0336
16903TIP3   OH272199   2.812   4.507   5.118 -0.2885  0.1276  0.1923
16903TIP3    H172200   2.893   4.554   5.133  0.9554 -2.3343  1.8458
16903TIP3    H272201   2.839   4.424   5.078 -2.1165 -0.2661 -0.3501
16904TIP3   OH272202   0.329   0.640  12.682 -0.9163 -0.2002 -0.7468
16904TIP3    H172203   0.260   0.644  12.747 -0.6937  0.6243 -0.5529
16904TIP3    H272204   0.400   0.591  12.724  0.4848  2.9343  0.8805
16905TIP3   OH272205   1.943   3.896   2.787 -0.1021 -0.7023  0.2086
16905TIP3    H172206   1.897   3.920   2.868 -1.0055 -1.6348  0.0016
16905TIP3    H272207   1.887   3.829   2.747 -0.6897  1.0795 -2.1939
16906TIP3   OH272208   0.900   0.033  11.729 -0.3522  0.1034  0.1398
16906TIP3    H172209   0.839   0.076  11.789 -0.4070  0.7181 -0.3463
16906TIP3    H272210   0.865   0.051  11.642 -1.4114 -2.4659 -0.0736
16907TIP3   OH272211   2.935   4.206  11.485  0.1601  0.0581  0.4449
16907TIP3    H172212   2.878   4.144  11.532  1.6564 -1.3017  0.5388
16907TIP3    H272213   2.938   4.172  11.396  0.7206  0.1985  0.4112
16908TIP3   OH272214   2.619   6.469   0.302  0.1197 -0.0957  0.0045
16908TIP3    H172215   2.687   6.477   0.236 -0.9293 -0.3235 -1.1309
16908TIP3    H272216   2.537   6.460   0.253 -1.0576  2.3807  1.2954
16909TIP3   OH272217   1.121   0.987  15.577 -0.1150  0.4083 -0.1935
16909TIP3    H172218   1.213   0.984  15.603 -0.3936  0.4107  0.8148
16909TIP3    H272219   1.086   1.065  15.619 -0.7439  0.0258  0.0109
16910TIP3   OH272220   4.912   1.418   1.086  0.0834  0.1267 -0.8812
16910TIP3    H172221   5.000   1.398   1.115 -0.0504  0.5547 -0.1795
16910TIP3    H272222   4.856   1.399   1.161 -0.4619 -0.3980 -1.3985
16911TIP3   OH272223   4.884   1.580   1.666  0.2988 -0.5518  0.0124
16911TIP3    H172224   4.935   1.653   1.702 -1.3964  0.3298  0.7010
16911TIP3    H272225   4.934   1.502   1.693  0.3397  0.1794  2.3333
16912TIP3   OH272226   5.378   5.030   0.978  0.7132 -0.2649 -0.3440
16912TIP3    H172227   5.356   5.048   1.069 -2.4985  0.5342 -1.1571
16912TIP3    H272228   5.381   5.117   0.937 -1.1749 -0.7125 -1.5764
16913TIP3   OH272229   2.515   6.380  12.257 -0.5232 -0.3384 -0.3993
16913TIP3    H172230   2.429   6.353  12.289 -1.1316  1.6567 -0.1644
16913TIP3    H272231   2.512   6.476  12.259  1.7973 -0.2038 -0.1558
16914TIP3   OH272232   5.191   5.259   3.207  0.0101  0.5631 -0.6570
16914TIP3    H172233   5.124   5.262   3.275  0.0842 -0.2609 -0.5428
16914TIP3    H272234   5.238   5.177   3.223  1.2591  1.2738 -0.5265
16915TIP3   OH272235   6.687   2.581  14.954  1.2522 -0.3809 -0.2137
16915TIP3    H172236   6.752   2.578  14.884  2.6900  0.7621  1.0150
16915TIP3    H272237   6.623   2.646  14.924  1.8585  0.1045 -0.4831
16916TIP3   OH272238   5.692   0.697   5.220  0.6442 -0.5015 -0.5866
16916TIP3    H172239   5.726   0.775   5.264 -2.6754  0.4990  0.5193
16916TIP3    H272240   5.706   0.626   5.284 -0.9118  0.2593  0.6735
16917TIP3   OH272241   1.988   1.771   4.979  0.1868 -0.2113 -0.3296
16917TIP3    H172242   2.067   1.733   5.016  2.1366  1.0843 -2.8297
16917TIP3    H272243   1.965   1.713   4.906  3.0078  2.7160 -3.9741
16918TIP3   OH272244   4.324   1.223   5.183  0.6702 -0.1921  0.3851
16918TIP3    H172245   4.302   1.191   5.096  0.6563 -0.7180  0.5789
16918TIP3    H272246   4.258   1.291   5.201  1.2005  0.5525 -0.3662
16919TIP3   OH272247   5.908   1.737  16.158  0.1357  0.1346  0.5824
16919TIP3    H172248   5.988   1.693  16.184  0.0844 -0.7060 -0.5959
16919TIP3    H272249   5.920   1.828  16.185  0.5555 -0.4205  2.3914
16920TIP3   OH272250   6.101   3.147  16.742 -0.3909 -0.5160 -0.3125
16920TIP3    H172251   6.050   3.099  16.677 -0.5857 -0.2390 -0.3653
16920TIP3    H272252   6.049   3.141  16.822 -0.6927  0.0869 -0.4587
16921TIP3   OH272253   5.732   3.469  14.787  0.3281 -0.1868 -0.3414
16921TIP3    H172254   5.761   3.541  14.843 -0.1653  0.0006 -0.3250
16921TIP3    H272255   5.709   3.399  14.848 -0.8387  0.2450 -0.2642
16922TIP3   OH272256   1.404   3.694   6.182 -0.1380  0.4330 -0.1535
16922TIP3    H172257   1.489   3.732   6.206 -0.2184  0.0754  0.7092
16922TIP3    H272258   1.398   3.614   6.233  0.2403 -1.0559 -2.3088
16923TIP3   OH272259   1.763   0.148   1.220 -0.1371 -0.2659 -0.4020
16923TIP3    H172260   1.794   0.072   1.170 -1.2944 -1.1957  0.2526
16923TIP3    H272261   1.839   0.206   1.224  1.8208 -2.7076  1.6749
16924TIP3   OH272262   1.473   6.586  14.633 -0.2775  0.3291 -0.7429
16924TIP3    H172263   1.479   6.501  14.676 -0.0767  1.2368  1.1238
16924TIP3    H272264   1.396   6.580  14.577 -0.5817 -0.8934 -0.2135
16925TIP3   OH272265   5.838   1.995  13.323 -0.5172 -0.2268  0.0610
16925TIP3    H172266   5.932   1.996  13.303 -0.7955 -0.4098 -1.3557
16925TIP3    H272267   5.828   1.922  13.385  0.2707 -0.2007  0.2319
16926TIP3   OH272268   4.117   0.637   5.788 -0.9223 -0.2629  0.0619
16926TIP3    H172269   4.086   0.700   5.722  0.3539 -0.6537 -0.9590
16926TIP3    H272270   4.175   0.688   5.844  0.2260 -0.5190 -0.8523
16927TIP3   OH272271   3.341   5.659  12.223 -0.1550  0.0089 -0.2982
16927TIP3    H172272   3.422   5.644  12.174  0.3189 -1.3149  0.8361
16927TIP3    H272273   3.370   5.668  12.314 -1.1155  1.4789 -0.1065
16928TIP3   OH272274   2.073   6.396   2.410 -0.3879 -0.3964 -0.1351
16928TIP3    H172275   2.121   6.378   2.492 -0.7515  2.8974  0.9880
16928TIP3    H272276   1.982   6.404   2.437 -0.9561 -1.9844 -1.4334
16929TIP3   OH272277   6.680   4.726  12.187  0.0499 -0.3817 -0.3711
16929TIP3    H172278   6.719   4.692  12.268  0.3211 -0.0557 -0.3586
16929TIP3    H272279   6.685   4.654  12.126  1.8367  0.0168 -0.7480
16930TIP3   OH272280   1.451   3.693   0.348  0.1598  0.4493 -0.3540
16930TIP3    H172281   1.441   3.723   0.438 -0.1356  0.0911 -0.2688
16930TIP3    H272282   1.514   3.621   0.353 -2.5472 -2.0507  0.1016
16931TIP3   OH272283   4.923   1.328   2.385 -0.1181 -0.0579 -0.0397
16931TIP3    H172284   4.893   1.401   2.330 -0.2064 -0.7657 -0.9437
16931TIP3    H272285   4.979   1.370   2.451  0.7958  0.7070 -1.2532
16932TIP3   OH272286   2.133   4.682   0.648  0.2836  0.0368 -0.3343
16932TIP3    H172287   2.144   4.654   0.739  1.1370 -1.2074 -0.7926
16932TIP3    H272288   2.182   4.618   0.597 -0.4098  0.5533 -1.7074
16933TIP3   OH272289   5.371   2.668  16.600 -0.6126 -0.2014  0.3256
16933TIP3    H172290   5.371   2.735  16.669  0.9548 -0.5188  0.6842
16933TIP3    H272291   5.379   2.586  16.648 -3.0077 -0.7520 -0.0841
16934TIP3   OH272292   6.116   3.926  12.506  0.0778 -0.2122  0.4764
16934TIP3    H172293   6.032   3.886  12.527  0.2613 -1.2998 -0.7303
16934TIP3    H272294   6.179   3.854  12.513  0.7894  0.4025  0.5645
16935TIP3   OH272295   6.855   1.933  12.415 -0.7838  0.1469  0.1762
16935TIP3    H172296   6.930   1.897  12.367 -2.0952 -0.6828 -1.3740
16935TIP3    H272297   6.790   1.951  12.347 -1.7641  1.4947  1.3974
16936TIP3   OH272298   6.028   3.481   0.110 -0.2656  0.1471 -0.2128
16936TIP3    H172299   5.940   3.491   0.075 -1.0449 -0.8005  1.3824
16936TIP3    H272300   6.072   3.563   0.087 -1.4786  0.5371 -1.2377
16937TIP3   OH272301   1.994   6.296  10.624  0.6831 -0.3990 -0.1321
16937TIP3    H172302   2.040   6.278  10.706  0.9374 -2.4947 -0.6505
16937TIP3    H272303   1.908   6.256  10.635  0.1740  0.5945 -0.3748
16938TIP3   OH272304   4.055   4.687  17.125 -0.2393 -0.0465 -0.0653
16938TIP3    H172305   4.032   4.764  17.177 -0.5602  0.5531 -1.0635
16938TIP3    H272306   3.971   4.645  17.105 -0.0366 -0.9374  0.8632
16939TIP3   OH272307   1.782   5.659   5.189 -0.0321 -0.6403 -0.1677
16939TIP3    H172308   1.694   5.644   5.153  0.4538 -0.3086 -1.5802
16939TIP3    H272309   1.814   5.735   5.141  0.9515 -0.6455  0.4716
16940TIP3   OH272310   5.847   2.309  12.160  0.2289 -0.2731 -0.0027
16940TIP3    H172311   5.862   2.403  12.149  1.3471 -0.0633  2.6873
16940TIP3    H272312   5.762   2.303  12.203  0.4219 -0.4534  0.3574
16941TIP3   OH272313   0.518   4.687  17.036  0.3249 -0.3678  0.1766
16941TIP3    H172314   0.477   4.661  16.954 -1.3688 -1.0213  1.1635
16941TIP3    H272315   0.486   4.776  17.052  1.1979  0.0183 -0.1964
16942TIP3   OH272316   6.482   4.114   0.710  0.0532  0.0820  0.5566
16942TIP3    H172317   6.563   4.063   0.717 -1.3735 -2.4991 -0.1612
16942TIP3    H272318   6.448   4.117   0.800  0.4896  0.3742  0.7141
16943TIP3   OH272319   5.496   1.437   3.249  0.1232 -0.1600 -0.2397
16943TIP3    H172320   5.439   1.396   3.315 -0.3514  1.0404  0.1284
16943TIP3    H272321   5.449   1.516   3.223  1.6075  0.8772  0.0851
16944TIP3   OH272322   4.627   0.352   1.482  0.2881 -0.2887 -0.1906
16944TIP3    H172323   4.669   0.308   1.409  1.5061 -0.2342  0.4551
16944TIP3    H272324   4.665   0.312   1.560  0.6055  1.1288  0.4139
16945TIP3   OH272325   0.776   1.349  13.388  0.2772 -0.2148  0.9772
16945TIP3    H172326   0.684   1.369  13.370  0.2872 -1.1914 -0.4184
16945TIP3    H272327   0.825   1.407  13.330  0.4615 -0.8900  0.4425
16946TIP3   OH272328   6.085   0.320  12.321  0.3728  0.3952 -0.7170
16946TIP3    H172329   6.034   0.241  12.304  0.1688  0.5232 -0.7094
16946TIP3    H272330   6.136   0.334  12.241 -0.7739  1.1369 -1.3425
16947TIP3   OH272331   2.487   0.866  14.431 -0.1652  0.3031  0.4747
16947TIP3    H172332   2.446   0.874  14.517 -0.4333  2.7286  0.1996
16947TIP3    H272333   2.490   0.772  14.414 -0.6409 -0.2013  2.8611
16948TIP3   OH272334   2.750   5.437  11.682 -0.6420 -0.1884  0.3356
16948TIP3    H172335   2.826   5.381  11.669 -2.3811 -2.8787  0.9239
16948TIP3    H272336   2.708   5.440  11.595  0.1019  1.3690 -0.0127
16949TIP3   OH272337   0.246   5.005  11.953 -0.5430  0.1516  0.4303
16949TIP3    H172338   0.152   4.988  11.943 -0.6454  1.1780 -0.5433
16949TIP3    H272339   0.269   5.058  11.876  0.6118  0.7961  1.1901
16950TIP3   OH272340   4.076   2.038   2.852 -1.0244  0.3467  0.4407
16950TIP3    H172341   4.093   2.039   2.757  0.4206  1.7415  0.6711
16950TIP3    H272342   4.114   2.120   2.884  0.3640 -1.0211  2.5188
16951TIP3   OH272343   3.611   6.409   4.395 -0.5254  0.0277 -0.3423
16951TIP3    H172344   3.685   6.436   4.340  0.2142  0.8712  1.0182
16951TIP3    H272345   3.593   6.319   4.368 -0.0945  0.3578 -1.8458
16952TIP3   OH272346   5.166   4.203  15.805 -0.2081  0.1717  0.2921
16952TIP3    H172347   5.244   4.252  15.777 -0.6967 -0.2759 -2.1412
16952TIP3    H272348   5.097   4.233  15.746 -1.0453 -1.8478  0.1658
16953TIP3   OH272349   5.106   4.904   3.420  0.3737 -0.3380  0.2306
16953TIP3    H172350   5.020   4.928   3.384  0.7975  0.4711 -0.2852
16953TIP3    H272351   5.101   4.810   3.434  0.0032 -0.6137 -1.4965
16954TIP3   OH272352   5.218   4.479  12.819 -0.3797 -0.2187 -0.5707
16954TIP3    H172353   5.183   4.556  12.775 -0.5331 -0.8617 -1.6002
16954TIP3    H272354   5.292   4.512  12.870 -1.3540  0.8493  0.2106
16955TIP3   OH272355   6.653   0.519   3.093  0.4063  0.0979  0.1150
16955TIP3    H172356   6.649   0.526   2.998  1.5703 -2.3820 -0.2085
16955TIP3    H272357   6.562   0.521   3.121 -0.1093 -1.3487 -1.3152
16956TIP3   OH272358   5.677   1.123   4.303 -0.1313 -0.3876 -0.1403
16956TIP3    H172359   5.587   1.108   4.332  0.3305  0.8027  2.1741
16956TIP3    H272360   5.691   1.217   4.314  1.9488 -0.7958  1.4776
16957TIP3   OH272361   1.828   4.867  16.966  0.1166  0.2117  0.6748
16957TIP3    H172362   1.885   4.913  16.905  0.7282 -0.7948  0.4661
16957TIP3    H272363   1.741   4.901  16.947  0.3122  0.0464 -0.6526
16958TIP3   OH272364   4.877   1.769  11.138  0.5953  0.0231 -0.2711
16958TIP3    H172365   4.940   1.791  11.069 -1.0041  3.6312 -0.8060
16958TIP3    H272366   4.916   1.804  11.218 -0.2239  1.4604 -0.4610
16959TIP3   OH272367   0.785   3.216   0.414  0.1435 -0.3612 -0.4219
16959TIP3    H172368   0.700   3.257   0.431  0.1279 -0.6507  0.2315
16959TIP3    H272369   0.765   3.124   0.395  0.1933 -0.1190 -1.7058
16960TIP3   OH272370   3.265   4.760   0.714  0.0381  0.1984 -0.3828
16960TIP3    H172371   3.315   4.821   0.660  0.0792 -0.2989 -0.9107
16960TIP3    H272372   3.173   4.784   0.698  0.0978  1.3792  0.9018
16961TIP3   OH272373   6.856   2.726  13.555 -0.4439 -0.1489  0.3850
16961TIP3    H172374   6.825   2.816  13.546  0.8083  0.1682 -1.2249
16961TIP3    H272375   6.791   2.673  13.510  0.5336  0.3712 -1.7828
16962TIP3   OH272376   2.062   6.653  12.141 -0.6456 -0.2835  0.4762
16962TIP3    H172377   2.141   6.702  12.162 -1.8789  2.0898 -0.0083
16962TIP3    H272378   2.018   6.640  12.225 -0.8625  0.5301  0.5012
16963TIP3   OH272379   1.331   0.159   3.706 -0.4149 -0.2827 -0.2473
16963TIP3    H172380   1.423   0.163   3.732  0.1962 -4.1300 -1.1186
16963TIP3    H272381   1.332   0.113   3.622 -3.1411 -2.0462  0.5335
16964TIP3   OH272382   5.788   3.485   0.660 -0.0932  0.0382 -0.2937
16964TIP3    H172383   5.727   3.451   0.725  2.5110 -1.0100  1.8314
16964TIP3    H272384   5.815   3.570   0.695 -0.1435  0.3997 -1.0990
16965TIP3   OH272385   0.550   4.159   5.428 -0.0556  0.1496  0.2742
16965TIP3    H172386   0.498   4.094   5.477  0.2966  0.0049  0.4563
16965TIP3    H272387   0.586   4.217   5.495  0.7658 -0.2945  0.2222
16966TIP3   OH272388   0.723   0.646  11.223  0.4023  0.5078  0.2469
16966TIP3    H172389   0.731   0.608  11.135 -1.8284 -0.1738  0.2725
16966TIP3    H272390   0.767   0.583  11.280  0.4731  0.1259 -0.2207
16967TIP3   OH272391   0.138   6.698   0.967  0.7443 -0.1188 -0.3987
16967TIP3    H172392   0.145   6.661   0.879 -1.5076 -2.3134  0.2107
16967TIP3    H272393   0.045   6.689   0.989  1.4185 -0.7611  2.6349
16968TIP3   OH272394   0.625   1.384  13.719 -0.0533  0.1039 -0.5888
16968TIP3    H172395   0.713   1.364  13.686  0.1223  0.7183 -0.5142
16968TIP3    H272396   0.618   1.335  13.800  0.3303  0.2707 -0.4518
16969TIP3   OH272397   6.722   2.065  12.226  0.0375  0.4331 -0.2962
16969TIP3    H172398   6.626   2.061  12.223  0.0879 -0.0655 -1.5015
16969TIP3    H272399   6.744   2.140  12.171  0.3012  1.5428  1.2383
16970TIP3   OH272400   4.753   6.500  11.866  0.3215  0.9315  0.1543
16970TIP3    H172401   4.835   6.452  11.861  0.1468  0.6682 -0.2994
16970TIP3    H272402   4.685   6.432  11.862  0.0560  1.2546 -1.3332
16971TIP3   OH272403   5.969   5.099  15.790 -0.6301 -0.1481  0.1668
16971TIP3    H172404   5.909   5.026  15.776  0.8671 -1.7329  1.5301
16971TIP3    H272405   5.986   5.099  15.884 -0.7237  2.1120  0.2260
16972TIP3   OH272406   4.457   5.535  13.253  0.2164 -0.0975 -0.6158
16972TIP3    H172407   4.426   5.445  13.256 -1.2410  0.3902  0.2439
16972TIP3    H272408   4.396   5.579  13.194  1.0286  0.2881 -1.1764
16973TIP3   OH272409   5.549   6.199  15.009 -0.1492 -1.0041  0.1727
16973TIP3    H172410   5.525   6.225  15.099  0.7548 -0.1840  0.1883
16973TIP3    H272411   5.516   6.109  15.001 -1.1646 -0.7224  0.9693
16974TIP3   OH272412   4.661   4.109  14.573  0.2923 -0.0399  0.1594
16974TIP3    H172413   4.699   4.109  14.485  1.1665 -0.5339  0.5208
16974TIP3    H272414   4.571   4.137  14.560  0.2405 -0.6572 -0.9761
16975TIP3   OH272415   5.051   5.473  11.392 -0.3132  0.0303 -0.0783
16975TIP3    H172416   5.101   5.466  11.473  1.4642  0.8881 -1.0392
16975TIP3    H272417   5.108   5.436  11.325 -1.6210 -0.3835 -0.9992
16976TIP3   OH272418   4.913   2.049  16.705 -0.8804  0.5408  0.0598
16976TIP3    H172419   4.942   2.106  16.633  0.3787 -0.5340 -0.3262
16976TIP3    H272420   4.878   2.110  16.770 -1.1392  1.6199 -1.0375
16977TIP3   OH272421   6.247   1.105   5.926  0.7014 -0.2442  0.7514
16977TIP3    H172422   6.257   1.200   5.932  0.9247 -0.2866  1.1281
16977TIP3    H272423   6.183   1.083   5.993 -1.1026 -0.1193 -0.8495
16978TIP3   OH272424   2.810   5.451   1.969 -0.0709 -0.5864  0.3657
16978TIP3    H172425   2.727   5.413   1.998 -1.3554  1.6385 -0.1225
16978TIP3    H272426   2.820   5.423   1.878 -0.1622 -1.0383  0.4920
16979TIP3   OH272427   2.445   2.175   1.284  0.0095 -0.2813  0.0059
16979TIP3    H172428   2.497   2.188   1.363  0.3025 -1.3489  0.0122
16979TIP3    H272429   2.367   2.230   1.296  0.1884 -0.2139  0.9049
16980TIP3   OH272430   0.978   6.145  12.540  0.2145  0.1653  0.8318
16980TIP3    H172431   0.922   6.102  12.476 -0.3911  1.6557  0.3423
16980TIP3    H272432   1.061   6.096  12.536  0.1037  0.0725 -0.9016
16981TIP3   OH272433   3.464   4.101   4.837  0.5147 -0.0033 -0.4216
16981TIP3    H172434   3.535   4.155   4.871  0.5611  0.7409 -1.6266
16981TIP3    H272435   3.420   4.066   4.915  0.6620  1.5445  0.3797
16982TIP3   OH272436   3.223   1.958  15.276  0.1049  0.5340  0.5102
16982TIP3    H172437   3.302   1.983  15.324 -1.7373  3.3068  2.4637
16982TIP3    H272438   3.231   2.001  15.191  1.0011  0.1800  0.4125
16983TIP3   OH272439   0.335   6.303   4.465 -0.3830  0.6145  0.0916
16983TIP3    H172440   0.371   6.273   4.548  1.8338  0.7651 -0.7522
16983TIP3    H272441   0.280   6.231   4.435  0.0739 -0.1055  0.9422
16984TIP3   OH272442   2.532   1.662   3.625  0.2131 -0.0039 -0.5334
16984TIP3    H172443   2.603   1.667   3.689  0.8860 -1.3947 -1.1268
16984TIP3    H272444   2.464   1.718   3.661  0.5143 -0.8486  1.4970
16985TIP3   OH272445   3.452   6.417  15.590 -0.3551 -0.3866 -0.6982
16985TIP3    H172446   3.473   6.507  15.614 -0.7284 -0.4939  0.0762
16985TIP3    H272447   3.524   6.389  15.534  0.7353 -0.2060  0.5654
16986TIP3   OH272448   5.945   2.822   5.202 -0.3533 -0.2250 -0.1466
16986TIP3    H172449   5.928   2.910   5.236  0.6452 -0.4917  1.1586
16986TIP3    H272450   5.891   2.764   5.256 -0.3363 -0.4894 -0.4094
16987TIP3   OH272451   5.513   1.918   3.635  0.3502 -0.5394 -0.3464
16987TIP3    H172452   5.525   1.880   3.548 -2.6064 -0.8715 -0.7039
16987TIP3    H272453   5.431   1.880   3.667  0.8194  0.3560  2.1832
16988TIP3   OH272454   4.465   1.930   2.501 -0.9185 -0.3383 -0.7439
16988TIP3    H172455   4.536   1.952   2.441  1.4685 -1.2675  1.5798
16988TIP3    H272456   4.442   2.013   2.543  0.4751 -0.3935  0.1798
16989TIP3   OH272457   5.010   0.177  11.557  0.1113  0.3157 -0.2067
16989TIP3    H172458   5.080   0.216  11.609  1.1941  0.7843 -1.9052
16989TIP3    H272459   4.967   0.252  11.514  0.0505 -0.1175 -0.9215
16990TIP3   OH272460   1.065   4.756   3.722 -0.3126  0.3431 -0.1095
16990TIP3    H172461   0.986   4.782   3.675  0.3821  1.1254 -0.8821
16990TIP3    H272462   1.060   4.804   3.805  0.1063  1.6504 -0.8102
16991TIP3   OH272463   4.283   5.561  13.521  0.1287  0.4902 -0.1417
16991TIP3    H172464   4.318   5.528  13.439  0.5014 -0.6090  0.4423
16991TIP3    H272465   4.361   5.580  13.574 -0.1118  1.0004  0.0350
16992TIP3   OH272466   6.773   3.428   4.354  0.1952 -0.1986 -0.3303
16992TIP3    H172467   6.778   3.332   4.355 -1.7639 -0.3582 -1.2050
16992TIP3    H272468   6.732   3.451   4.438  1.3188 -0.0543  0.1912
16993TIP3   OH272469   1.073   4.001   1.464 -0.4177  0.0214  0.0041
16993TIP3    H172470   1.123   4.079   1.440 -1.1216  0.7888  0.9731
16993TIP3    H272471   0.983   4.032   1.473 -1.1106 -1.3300 -1.6845
16994TIP3   OH272472   5.823   0.939   5.358 -0.1170  0.2556 -0.0640
16994TIP3    H172473   5.797   1.024   5.323  0.3529  1.0931  1.5049
16994TIP3    H272474   5.891   0.909   5.299 -0.7921  0.6094 -1.0589
16995TIP3   OH272475   5.669   1.017  13.344 -0.2870 -0.0298  0.0646
16995TIP3    H172476   5.627   1.065  13.416  1.0649  0.4304  0.5798
16995TIP3    H272477   5.597   0.972  13.300 -1.4696  1.6441  0.1971
16996TIP3   OH272478   0.984   4.077   0.692 -0.1741 -0.2739 -0.5629
16996TIP3    H172479   0.962   3.984   0.683 -1.6374 -0.1046  0.8143
16996TIP3    H272480   0.933   4.107   0.767  1.3089  1.3414 -0.1195
16997TIP3   OH272481   5.819   2.299  14.532 -0.2104 -0.0583 -0.3051
16997TIP3    H172482   5.843   2.382  14.575  2.4145  0.0847 -1.8490
16997TIP3    H272483   5.729   2.282  14.562  0.3194  1.6145  2.6735
16998TIP3   OH272484   0.486   2.264   1.377 -0.3824  0.4992  0.0294
16998TIP3    H172485   0.472   2.331   1.444  1.1227 -1.0874  2.0709
16998TIP3    H272486   0.401   2.254   1.334 -1.1286  2.2944  0.9695
16999TIP3   OH272487   1.646   0.446   3.251 -0.1645 -0.4043 -0.1479
16999TIP3    H172488   1.629   0.414   3.339 -0.1636 -0.3355 -0.1225
16999TIP3    H272489   1.580   0.403   3.197 -1.2522  0.8116  0.1392
17000TIP3   OH272490   5.606   0.446   5.680  0.6008  0.3724 -0.5433
17000TIP3    H172491   5.511   0.454   5.685  0.5641 -0.6597  1.2699
17000TIP3    H272492   5.629   0.387   5.751  2.7749  1.9030  0.1381
17001TIP3   OH272493   4.578   1.936  13.882  0.2299 -0.0932  0.3001
17001TIP3    H172494   4.504   1.907  13.828  0.0611 -2.1735  1.5197
17001TIP3    H272495   4.655   1.922  13.827 -0.1757  1.0206 -0.5807
17002TIP3   OH272496   6.654   1.895   4.473  0.7481 -0.1140  0.5884
17002TIP3    H172497   6.735   1.924   4.430  0.3828 -0.2224 -0.1955
17002TIP3    H272498   6.653   1.800   4.459 -0.4340  0.0947 -1.0853
17003TIP3   OH272499   2.071   2.827  12.084 -0.0631  0.2734 -0.4700
17003TIP3    H172500   2.007   2.849  12.016 -0.2580 -0.8118 -0.6667
17003TIP3    H272501   2.019   2.809  12.162 -0.0099 -0.5353 -0.6085
17004TIP3   OH272502   3.288   3.740   4.981 -0.3371 -0.6939 -0.1738
17004TIP3    H172503   3.339   3.734   5.062 -0.6446 -2.0490 -0.0615
17004TIP3    H272504   3.220   3.805   5.001  1.4648  1.4164 -0.4384
17005TIP3   OH272505   4.576   5.516   2.485 -0.6106  0.4243  0.4103
17005TIP3    H172506   4.615   5.583   2.429  0.1981 -1.5827 -1.6100
17005TIP3    H272507   4.499   5.558   2.524 -0.6430  2.2530 -1.4566
17006TIP3   OH272508   3.762   3.894  16.540 -0.0668 -1.2168 -0.4518
17006TIP3    H172509   3.740   3.802  16.552  0.1059 -1.1156  0.7681
17006TIP3    H272510   3.849   3.893  16.501 -0.3418 -1.5691 -1.0736
17007TIP3   OH272511   1.424   2.098   5.349  0.4347 -0.0478 -0.1353
17007TIP3    H172512   1.336   2.059   5.345  0.6932 -0.5153 -1.9578
17007TIP3    H272513   1.475   2.036   5.401  0.3156 -1.1020 -1.2346
17008TIP3   OH272514   4.887   0.092   5.172  0.2353  0.3481 -0.1676
17008TIP3    H172515   4.982   0.093   5.183  0.1364 -1.7604  1.6263
17008TIP3    H272516   4.874   0.069   5.081  1.5576 -2.0873  0.1634
17009TIP3   OH272517   5.941   4.760   4.507  0.0101 -0.0042  0.8247
17009TIP3    H172518   5.997   4.703   4.454 -0.0548  0.1505  0.5852
17009TIP3    H272519   5.864   4.775   4.453  0.0061  0.2724  0.9019
17010TIP3   OH272520   3.121   6.327  11.048  0.1775  0.2427 -0.2854
17010TIP3    H172521   3.089   6.250  11.002  0.4450 -0.2951  0.4192
17010TIP3    H272522   3.104   6.400  10.987  1.4080 -0.5607 -1.6484
17011TIP3   OH272523   1.710   2.098   0.513 -0.4340 -0.5612  0.0589
17011TIP3    H172524   1.763   2.149   0.573  0.4752 -0.6175 -0.6784
17011TIP3    H272525   1.758   2.015   0.502 -1.6326 -1.3911  0.8520
17012TIP3   OH272526   6.571   3.243   2.477 -0.8208 -0.4178 -0.2451
17012TIP3    H172527   6.576   3.250   2.382 -2.3472 -0.2595 -0.3418
17012TIP3    H272528   6.487   3.199   2.494 -1.1254  0.5783  1.0408
17013TIP3   OH272529   6.563   3.193   0.525 -0.3108  0.1550 -0.9974
17013TIP3    H172530   6.556   3.105   0.489 -0.2538  0.1394 -0.9710
17013TIP3    H272531   6.654   3.199   0.556 -0.6667 -0.2169  0.1525
17014TIP3   OH272532   0.680   4.710  12.679  0.5649 -0.3282  0.0500
17014TIP3    H172533   0.758   4.763  12.663 -0.4640  0.9755 -0.7367
17014TIP3    H272534   0.607   4.764  12.652 -0.5862 -1.8906 -0.1250
17015TIP3   OH272535   3.683   5.688   1.387 -0.8613 -0.4715 -0.2845
17015TIP3    H172536   3.727   5.725   1.311 -0.1310  1.0745  0.8511
17015TIP3    H272537   3.613   5.750   1.408 -0.4919 -0.3942  0.8160
17016TIP3   OH272538   4.988   2.587  15.247  0.0791  0.1959  0.2135
17016TIP3    H172539   4.984   2.494  15.269  0.8983  0.1663  0.2823
17016TIP3    H272540   5.070   2.596  15.198 -1.2393  0.4130 -2.1244
17017TIP3   OH272541   1.364   6.829  10.786 -0.3280  0.1433  0.3865
17017TIP3    H172542   1.323   6.904  10.742 -1.7053 -0.4031  0.6888
17017TIP3    H272543   1.408   6.781  10.716  1.6387  1.8459  0.3480
17018TIP3   OH272544   0.418   2.547   4.222 -0.4992  0.1803 -0.4242
17018TIP3    H172545   0.403   2.585   4.135 -2.6336 -0.8492 -0.5800
17018TIP3    H272546   0.490   2.486   4.211 -2.0779 -1.5179 -2.0520
17019TIP3   OH272547   1.348   4.225   4.782  0.0954  0.5742  0.1972
17019TIP3    H172548   1.384   4.219   4.693 -1.0806 -0.1634 -0.2613
17019TIP3    H272549   1.270   4.170   4.779  1.1687 -1.2092  2.3001
17020TIP3   OH272550   0.295   5.637  14.858 -0.3355 -0.4739 -0.0211
17020TIP3    H172551   0.352   5.711  14.879 -1.0289 -0.1341  0.7236
17020TIP3    H272552   0.280   5.645  14.764  1.1996 -0.8442 -0.3226
17021TIP3   OH272553   3.519   0.372   5.087  0.3978 -0.6592 -0.0942
17021TIP3    H172554   3.610   0.352   5.110  0.0768 -0.7031  1.1578
17021TIP3    H272555   3.490   0.295   5.037  0.4972 -1.4542  1.0468
17022TIP3   OH272556   2.822   4.969  15.715  0.0391  0.1771 -0.0466
17022TIP3    H172557   2.916   4.979  15.702  0.4586 -1.1643  1.5324
17022TIP3    H272558   2.796   4.900  15.654  0.1297  0.3582 -0.2905
17023TIP3   OH272559   5.742   4.755   5.046 -0.7058  0.0019  0.4483
17023TIP3    H172560   5.775   4.689   5.108 -0.0051 -0.0226  0.0634
17023TIP3    H272561   5.706   4.703   4.974  1.7098 -0.0265 -0.8451
17024TIP3   OH272562   3.058   5.697   4.261  0.7363 -0.3451 -0.3331
17024TIP3    H172563   3.066   5.788   4.231 -0.6892 -0.2551 -0.5110
17024TIP3    H272564   2.970   5.692   4.299  1.6481 -1.0699  1.8107
17025TIP3   OH272565   5.966   3.906  16.673  0.1127 -0.4364 -0.3256
17025TIP3    H172566   5.977   3.939  16.584 -2.4235 -0.6652 -0.8043
17025TIP3    H272567   6.029   3.955  16.725  1.7546 -0.3992 -2.2413
17026TIP3   OH272568   6.312   0.189   3.966 -0.1918  0.2857  0.2772
17026TIP3    H172569   6.226   0.219   3.937  0.0587  3.1804  2.2008
17026TIP3    H272570   6.294   0.115   4.024 -1.3026  0.4044  0.0951
17027TIP3   OH272571   4.058   5.303  13.361 -0.0818 -0.4638  0.3393
17027TIP3    H172572   4.123   5.322  13.294 -0.3373  1.0844  0.5099
17027TIP3    H272573   3.977   5.286  13.312 -0.2396  0.5425  0.2421
17028TIP3   OH272574   3.537   2.161   5.846 -0.1522  0.4556  0.2367
17028TIP3    H172575   3.567   2.072   5.864 -2.0108  0.0734  1.7170
17028TIP3    H272576   3.610   2.202   5.799  0.4396 -2.0703 -1.2386
17029TIP3   OH272577   2.470   4.780  14.258 -0.1638 -0.4209  0.0769
17029TIP3    H172578   2.389   4.737  14.231 -1.1206  1.1631  0.2939
17029TIP3    H272579   2.457   4.872  14.235  1.4458 -0.0838  0.4127
17030TIP3   OH272580   4.379   6.485   1.709  0.2048  0.2842 -0.3057
17030TIP3    H172581   4.424   6.409   1.671  0.9813  0.6645 -0.1527
17030TIP3    H272582   4.372   6.464   1.802 -2.7298 -1.1771 -0.7324
17031TIP3   OH272583   1.554   1.725   0.043  0.5467 -0.0986 -0.6007
17031TIP3    H172584   1.609   1.791   0.001  1.5597  0.5862  1.6153
17031TIP3    H272585   1.466   1.762   0.040  0.8965  0.7735 -0.5057
17032TIP3   OH272586   5.443   1.178  14.213  0.6505 -0.6045  0.3785
17032TIP3    H172587   5.427   1.231  14.291  2.5530  0.7453 -0.0894
17032TIP3    H272588   5.476   1.095  14.246 -1.5426 -1.2759  1.0845
17033TIP3   OH272589   1.860   4.641  15.487 -0.0871  0.3260 -0.3451
17033TIP3    H172590   1.948   4.606  15.502 -0.1379  0.1267 -0.5088
17033TIP3    H272591   1.828   4.594  15.410  0.5333  1.9974 -1.6875
17034TIP3   OH272592   4.201   6.485  11.401 -0.1029  0.0287  0.0685
17034TIP3    H172593   4.249   6.412  11.440  0.9345  0.7620  0.2330
17034TIP3    H272594   4.149   6.521  11.472  0.8201  0.5794  0.4968
17035TIP3   OH272595   0.917   1.620  13.305 -0.6425 -0.4932  0.2017
17035TIP3    H172596   0.928   1.668  13.223  0.3233 -0.0103  0.6073
17035TIP3    H272597   0.839   1.657  13.345 -0.4740  0.0438  0.0323
17036TIP3   OH272598   1.033   2.872   4.961 -0.1614  0.0885 -0.2497
17036TIP3    H172599   0.948   2.871   5.005 -0.6518  1.7932 -1.0982
17036TIP3    H272600   1.095   2.847   5.030 -1.5355 -4.8760 -0.3967
17037TIP3   OH272601   2.845   3.183   6.541 -0.3901 -0.2386 -0.0503
17037TIP3    H172602   2.875   3.093   6.554  0.9504 -0.2716 -2.6613
17037TIP3    H272603   2.907   3.236   6.592 -0.0772 -0.7001  0.0552
17038TIP3   OH272604   4.440   0.331  16.324  0.0720 -0.6528 -0.1020
17038TIP3    H172605   4.504   0.398  16.348  0.8176 -0.0320 -3.4132
17038TIP3    H272606   4.488   0.248  16.332  1.1915 -0.2425 -1.9211
17039TIP3   OH272607   6.592   2.177  12.512  0.0018 -0.2307 -0.4971
17039TIP3    H172608   6.687   2.173  12.505  0.1024  1.5150 -0.6780
17039TIP3    H272609   6.563   2.087  12.498  1.7147 -1.1539  1.3510
17040TIP3   OH272610   0.222   6.603   1.846 -0.0634  0.3762 -0.4245
17040TIP3    H172611   0.287   6.668   1.819 -1.3088  1.1950 -1.5764
17040TIP3    H272612   0.173   6.646   1.916  0.4248 -0.1219  0.2296
17041TIP3   OH272613   4.674   3.753   0.373 -0.1449 -0.6146  0.1746
17041TIP3    H172614   4.735   3.712   0.312  0.0343 -0.0764 -0.0120
17041TIP3    H272615   4.702   3.721   0.459  0.4741 -0.2842  0.1028
17042TIP3   OH272616   0.564   1.921   2.315  0.1896  0.9148 -0.6886
17042TIP3    H172617   0.484   1.884   2.277  0.9347  0.2763 -1.6993
17042TIP3    H272618   0.575   1.873   2.397 -1.0281  1.7678  0.0074
17043TIP3   OH272619   0.842   6.284  12.041  0.8536 -0.3313 -0.2244
17043TIP3    H172620   0.865   6.365  11.995  0.2269 -0.3981 -0.6698
17043TIP3    H272621   0.752   6.266  12.014  0.7923 -0.8715  0.3195
17044TIP3   OH272622   3.644   5.165  16.805  0.1236 -0.1848 -0.1312
17044TIP3    H172623   3.631   5.110  16.729  0.7484 -1.1841  0.4606
17044TIP3    H272624   3.715   5.123  16.854  2.2081  2.2895 -0.7474
17045TIP3   OH272625   4.638   6.546  17.003 -0.5881 -0.0297  0.1491
17045TIP3    H172626   4.690   6.497  16.940 -0.8082 -0.0389 -0.0244
17045TIP3    H272627   4.662   6.637  16.989 -1.4128  0.0720 -0.6676
17046TIP3   OH272628   2.570   1.203  15.671 -0.5801  0.1384 -0.8950
17046TIP3    H172629   2.642   1.140  15.675 -0.9646 -0.2708  0.0914
17046TIP3    H272630   2.611   1.287  15.691 -0.2983 -0.0216 -0.7844
17047TIP3   OH272631   5.999   0.003   5.003 -0.0036 -0.0897  0.8185
17047TIP3    H172632   5.964  -0.070   4.952  5.8299 -1.3589 -2.2141
17047TIP3    H272633   5.997   0.077   4.943  2.4345 -0.3023  0.3853
17048TIP3   OH272634   0.297   0.722  11.664  0.7308 -0.3537  0.0164
17048TIP3    H172635   0.238   0.767  11.603  0.9456 -1.5242 -1.1071
17048TIP3    H272636   0.260   0.738  11.750  0.1991  1.0398 -0.4498
17049TIP3   OH272637   3.524   2.713   3.003  0.3637  0.0482  0.1849
17049TIP3    H172638   3.543   2.799   2.965 -0.9243  0.7099  0.9566
17049TIP3    H272639   3.585   2.705   3.077  1.8009 -0.5645 -1.0270
17050TIP3   OH272640   4.227   2.062  15.973 -0.1864 -0.2265 -0.1357
17050TIP3    H172641   4.279   2.113  16.034 -0.0364  0.2213 -0.6276
17050TIP3    H272642   4.171   2.007  16.028 -0.0821  0.1972  0.3964
17051TIP3   OH272643   1.499   2.124   3.976 -0.2193 -0.2047  0.3001
17051TIP3    H172644   1.512   2.049   4.035  1.5437 -2.1908 -2.4018
17051TIP3    H272645   1.405   2.125   3.959 -0.1515 -2.8049 -0.6810
17052TIP3   OH272646   3.103   2.314   2.718 -0.5483  0.3731  0.5163
17052TIP3    H172647   3.086   2.319   2.624 -0.3334  0.6451  0.4902
17052TIP3    H272648   3.041   2.249   2.750 -1.9415  1.6400  0.5110
17053TIP3   OH272649   3.929   0.161  15.571  0.5438 -0.3136  0.7517
17053TIP3    H172650   3.940   0.084  15.515 -0.1085 -2.5814  3.5078
17053TIP3    H272651   3.894   0.126  15.653 -0.3093  3.0325  1.9701
17054TIP3   OH272652   3.075   4.250   4.267 -0.4863 -0.5654 -0.2636
17054TIP3    H172653   3.117   4.334   4.250 -1.1533  0.4257  2.4606
17054TIP3    H272654   3.144   4.194   4.301 -0.7473  0.2150  1.6816
17055TIP3   OH272655   3.458   3.152  12.127  0.4488 -0.4598 -0.5366
17055TIP3    H172656   3.410   3.114  12.200 -0.0930  2.1144  0.5455
17055TIP3    H272657   3.457   3.084  12.059 -0.5827 -2.2391  1.1758
17056TIP3   OH272658   6.522   4.960   5.439  0.1197  0.3242 -0.3422
17056TIP3    H172659   6.512   4.947   5.345  2.1240 -0.2300 -0.5213
17056TIP3    H272660   6.526   5.055   5.450 -1.2709  0.4397 -0.6480
17057TIP3   OH272661   6.048   0.512   2.455 -0.4120  0.5245  0.0468
17057TIP3    H172662   6.032   0.495   2.548 -0.4517 -0.3651 -0.1130
17057TIP3    H272663   6.082   0.429   2.421  0.8234  1.2182 -0.4655
17058TIP3   OH272664   1.383   6.256  10.449 -0.3552 -0.4227  0.2965
17058TIP3    H172665   1.413   6.329  10.503 -2.1025  0.1218  0.5871
17058TIP3    H272666   1.464   6.212  10.422  0.7634  1.6658  0.0261
17059TIP3   OH272667   0.570   6.650  17.083  0.1545  0.1584  0.0527
17059TIP3    H172668   0.610   6.623  17.166  1.4517 -1.4878 -1.0409
17059TIP3    H272669   0.539   6.568  17.043 -0.1752  0.8791 -1.2331
17060TIP3   OH272670   0.220   4.433   4.538 -0.0963  0.1620 -0.1442
17060TIP3    H172671   0.241   4.390   4.456 -0.2719  0.8130 -0.5401
17060TIP3    H272672   0.182   4.517   4.512 -0.6789  0.1338  0.5943
17061TIP3   OH272673   2.409   2.412   2.009 -0.2249 -0.1630  0.1814
17061TIP3    H172674   2.503   2.397   2.023 -0.7427 -2.2364  2.0058
17061TIP3    H272675   2.368   2.389   2.092 -2.6809 -3.2950 -1.6386
17062TIP3   OH272676   3.772   4.781  13.058 -0.5314  0.0893 -0.5174
17062TIP3    H172677   3.812   4.814  13.139 -0.8063  2.7742 -1.3808
17062TIP3    H272678   3.725   4.703  13.085  1.8917 -0.8638  1.3098
17063TIP3   OH272679   4.856   4.275  15.305 -0.5087  0.1890  0.1267
17063TIP3    H172680   4.867   4.254  15.212  0.1321 -0.2589  0.2968
17063TIP3    H272681   4.766   4.248  15.325 -0.5405 -0.0197 -0.2831
17064TIP3   OH272682   0.015   2.278   1.022 -0.0478 -0.1017 -0.4172
17064TIP3    H172683   0.023   2.372   1.035 -0.8879  0.0974 -1.2540
17064TIP3    H272684   0.083   2.256   0.959  1.9049 -0.5358  1.6944
17065TIP3   OH272685   1.335   0.734   2.635  0.4578 -0.0627 -0.0130
17065TIP3    H172686   1.392   0.688   2.696 -0.3240  2.5418  2.9074
17065TIP3    H272687   1.246   0.707   2.659  0.1748 -0.4293 -1.3405
17066TIP3   OH272688   3.347   6.148  10.823 -0.7464 -0.3831 -0.7937
17066TIP3    H172689   3.253   6.159  10.810 -1.2739 -1.8819  1.2524
17066TIP3    H272690   3.366   6.061  10.789  0.2826  0.5133 -2.6733
17067TIP3   OH272691   2.679   2.594   0.290  0.4718 -0.0849 -0.0671
17067TIP3    H172692   2.620   2.570   0.219 -1.6515  0.0748  1.5527
17067TIP3    H272693   2.713   2.680   0.266 -2.1705  1.1224  0.2008
17068TIP3   OH272694   4.122   2.326  12.824 -0.1022  0.1880 -0.4516
17068TIP3    H172695   4.128   2.421  12.831  1.2377  0.0872  0.1228
17068TIP3    H272696   4.056   2.301  12.889  0.4224  0.6459  0.2794
17069TIP3   OH272697   4.353   2.678   6.063 -0.4940  0.5120 -0.3399
17069TIP3    H172698   4.259   2.685   6.045 -0.1024  1.8664 -2.2613
17069TIP3    H272699   4.384   2.769   6.063  0.6998  0.1368  1.1394
17070TIP3   OH272700   6.145   3.366  13.613 -0.1282  0.7191  0.2567
17070TIP3    H172701   6.103   3.448  13.587 -0.4658  0.6061  0.4390
17070TIP3    H272702   6.080   3.298  13.595 -0.3338  0.6266  1.2737
17071TIP3   OH272703   2.214   6.563  15.219 -0.0824  0.2488 -0.1144
17071TIP3    H172704   2.284   6.603  15.167 -0.5728 -0.0975 -1.0605
17071TIP3    H272705   2.193   6.482  15.173 -2.2225  1.1151 -0.7860
17072TIP3   OH272706   2.557   2.733   2.689  0.3942  0.3119 -0.1617
17072TIP3    H172707   2.524   2.820   2.710  0.2656  0.5584 -1.3453
17072TIP3    H272708   2.585   2.739   2.598  2.3219 -0.3192  0.3483
17073TIP3   OH272709   0.242   4.345   2.590  0.0900  0.4197  0.2513
17073TIP3    H172710   0.335   4.369   2.585  0.5163 -0.9997  0.8887
17073TIP3    H272711   0.203   4.412   2.647  1.0808  0.0940  1.3531
17074TIP3   OH272712   0.644   2.459  14.518 -0.2059 -0.2574 -0.2223
17074TIP3    H172713   0.698   2.539  14.518  0.6590 -0.8247 -0.9051
17074TIP3    H272714   0.649   2.427  14.607 -0.1189  0.1644 -0.0724
17075TIP3   OH272715   1.141   3.639   0.524  0.2638 -0.6433  0.3929
17075TIP3    H172716   1.116   3.628   0.432  1.0409 -0.3779  0.1426
17075TIP3    H272717   1.182   3.556   0.547  2.1984  0.0857 -0.2148
17076TIP3   OH272718   2.901   3.358   4.392 -0.2520  0.2580 -0.2934
17076TIP3    H172719   2.977   3.382   4.339 -2.2386  1.5625 -2.7659
17076TIP3    H272720   2.838   3.428   4.378 -2.2336 -1.1368  1.0128
17077TIP3   OH272721   1.288   0.422  12.174 -0.0079 -0.2128  0.4086
17077TIP3    H172722   1.343   0.477  12.118  0.1928  1.9844  2.5696
17077TIP3    H272723   1.210   0.476  12.190 -2.0150 -2.4910 -1.0583
17078TIP3   OH272724   2.238   3.647   2.386  0.0228  0.6525 -0.0731
17078TIP3    H172725   2.227   3.620   2.295  2.4826  1.3409 -0.6450
17078TIP3    H272726   2.283   3.574   2.427 -0.5129  0.6108  0.4552
17079TIP3   OH272727   3.515   1.175  12.887  0.0651 -0.5626  0.0752
17079TIP3    H172728   3.481   1.126  12.962  0.5564 -2.4191 -0.8526
17079TIP3    H272729   3.605   1.196  12.912 -0.4341  0.7525  0.8610
17080TIP3   OH272730   6.132   0.117   0.161  0.4771  0.5204 -0.7474
17080TIP3    H172731   6.172   0.043   0.115 -0.0323  0.1593 -0.6148
17080TIP3    H272732   6.205   0.178   0.175  2.0527 -1.8668  3.1785
17081TIP3   OH272733   3.461   5.366  12.880  0.1815  0.0897  0.1179
17081TIP3    H172734   3.434   5.278  12.908  0.8537  0.0502  0.6855
17081TIP3    H272735   3.379   5.410  12.859 -0.2042 -0.5243  0.2780
17082TIP3   OH272736   6.599   0.577   0.113  0.1550 -0.0340 -0.4693
17082TIP3    H172737   6.557   0.529   0.185 -0.4649  2.0758  0.6637
17082TIP3    H272738   6.555   0.545   0.034 -2.5562  0.9500  0.5270
17083TIP3   OH272739   6.453   4.885  10.560  0.0630 -0.1848  0.5829
17083TIP3    H172740   6.442   4.978  10.542  1.7715 -0.4594 -2.4774
17083TIP3    H272741   6.547   4.873  10.570  0.2546 -1.9901 -2.3765
17084TIP3   OH272742   4.723   2.213   2.720 -0.3181 -0.2443 -0.8108
17084TIP3    H172743   4.742   2.177   2.807  0.9378 -1.0545 -1.3931
17084TIP3    H272744   4.732   2.308   2.731 -2.4580 -0.1388  0.4579
17085TIP3   OH272745   1.060   4.329  13.080 -0.6205  0.1534  0.0789
17085TIP3    H172746   1.148   4.291  13.091 -0.3056  1.1928  1.3936
17085TIP3    H272747   1.036   4.308  12.990 -0.5255 -3.2774  0.7115
17086TIP3   OH272748   4.396   6.534  11.792 -0.3331  0.1378 -0.3178
17086TIP3    H172749   4.452   6.561  11.720  2.0750 -0.9079  1.0379
17086TIP3    H272750   4.339   6.466  11.755 -1.0229  1.4944 -1.8217
17087TIP3   OH272751   2.314   0.929  11.712  0.2465  0.1666 -0.4129
17087TIP3    H172752   2.355   0.859  11.764 -0.9849 -0.9398 -0.8923
17087TIP3    H272753   2.239   0.887  11.670 -1.5217  2.1505  0.5751
17088TIP3   OH272754   2.706   3.506   4.967  0.3407 -0.0520 -0.0953
17088TIP3    H172755   2.713   3.418   5.004 -0.6709 -0.4438 -0.7821
17088TIP3    H272756   2.702   3.564   5.044 -0.6544 -0.7562  0.4106
17089TIP3   OH272757   2.710   4.795   2.427  0.4450  0.2206  0.3299
17089TIP3    H172758   2.625   4.805   2.470 -0.7048  0.6534 -1.8725
17089TIP3    H272759   2.722   4.700   2.421  0.2012  0.1560  0.8052
17090TIP3   OH272760   3.420   1.441  12.382  0.5837  0.0496  0.3347
17090TIP3    H172761   3.352   1.386  12.423  0.0713 -0.5707 -1.2294
17090TIP3    H272762   3.386   1.530  12.390  0.2591 -0.1089  0.8090
17091TIP3   OH272763   0.976   4.552   2.860  0.4385 -0.2037  0.1963
17091TIP3    H172764   1.057   4.601   2.876  0.5447 -0.9675  2.3202
17091TIP3    H272765   0.941   4.535   2.947 -2.5569  0.9078 -0.6625
17092TIP3   OH272766   2.498   2.051   3.501 -0.2388  0.0015  0.0516
17092TIP3    H172767   2.421   2.011   3.460  0.0618  0.3624 -0.8839
17092TIP3    H272768   2.464   2.130   3.544 -0.4684 -0.0928  0.0431
17093TIP3   OH272769   4.990   3.900   0.924  0.0617 -0.0931  0.5771
17093TIP3    H172770   5.027   3.816   0.900  0.3298  0.0402  0.5207
17093TIP3    H272771   5.038   3.964   0.872 -0.9089  0.0015 -0.2297
17094TIP3   OH272772   3.074   4.728   3.728 -0.4285 -0.1424 -0.0845
17094TIP3    H172773   3.151   4.678   3.701  0.1872  0.8380 -0.1963
17094TIP3    H272774   3.017   4.727   3.651 -0.3179 -0.4826 -0.1628
17095TIP3   OH272775   4.187   4.422   1.623  0.6220 -0.4081 -0.0286
17095TIP3    H172776   4.218   4.511   1.641  0.8506 -0.8339  1.9024
17095TIP3    H272777   4.115   4.434   1.561 -0.0478  1.2294  0.9944
17096TIP3   OH272778   3.797   4.383  16.846 -0.5967  1.0435  0.1242
17096TIP3    H172779   3.723   4.362  16.789  1.4883  0.6139 -2.5899
17096TIP3    H272780   3.790   4.321  16.918 -2.6299  0.7708 -0.2546
17097TIP3   OH272781   5.775   1.873   0.643 -0.1753 -0.3463  0.1042
17097TIP3    H172782   5.844   1.860   0.708 -1.4311 -1.6652  1.2714
17097TIP3    H272783   5.710   1.927   0.688  0.4544  1.7150 -1.3083
17098TIP3   OH272784   1.744   3.395   5.843  0.4908  0.1394  0.1276
17098TIP3    H172785   1.826   3.346   5.833  1.3518  1.6252 -0.3757
17098TIP3    H272786   1.767   3.485   5.820 -1.2099  0.6588  0.3456
17099TIP3   OH272787   0.235   1.520  16.465  0.8809  0.5634 -0.1501
17099TIP3    H172788   0.225   1.429  16.495  0.8484  1.2021  1.9220
17099TIP3    H272789   0.145   1.548  16.446  0.7195  0.6327  0.6958
17100TIP3   OH272790   2.689   1.087  14.204 -0.5947  1.0848 -0.1787
17100TIP3    H172791   2.771   1.052  14.239 -0.8559  0.5074 -0.1354
17100TIP3    H272792   2.657   1.147  14.271 -1.1244 -0.0555  0.6199
17101TIP3   OH272793   3.220   1.165  16.477  0.3147  0.7251  0.0738
17101TIP3    H172794   3.309   1.179  16.443  0.6627 -0.0087  0.6456
17101TIP3    H272795   3.221   1.074  16.506 -1.0502  0.2731 -1.1770
17102TIP3   OH272796   4.221   4.571  12.818  0.2491 -0.3124  0.1734
17102TIP3    H172797   4.152   4.543  12.879  1.1999 -0.6011  1.1420
17102TIP3    H272798   4.193   4.537  12.734  0.5911 -2.9668  1.0410
17103TIP3   OH272799   4.276   1.804   3.076  0.4042 -0.0467 -0.6592
17103TIP3    H172800   4.352   1.823   3.133 -1.4010  1.3783  1.4486
17103TIP3    H272801   4.315   1.774   2.994  3.2179 -1.0423  0.8953
17104TIP3   OH272802   2.934   1.468  16.675 -0.3334 -0.1798 -0.3325
17104TIP3    H172803   2.931   1.375  16.654  1.6211 -0.0291 -1.5434
17104TIP3    H272804   3.020   1.497  16.644 -0.7070  1.9387  0.4275
17105TIP3   OH272805   1.125   2.025   3.238  1.0032 -0.1925 -0.6948
17105TIP3    H172806   1.082   2.083   3.174  2.2195  0.6179 -0.8006
17105TIP3    H272807   1.071   2.033   3.317  2.4081  2.9815  0.0766
17106TIP3   OH272808   4.145   2.294   3.642  0.1185 -0.0118 -0.5299
17106TIP3    H172809   4.120   2.386   3.649  0.7683  0.1103  0.2368
17106TIP3    H272810   4.115   2.268   3.555 -1.9730  0.3332  0.0311
17107TIP3   OH272811   5.400   0.252   5.550 -0.7106  0.3666 -0.2344
17107TIP3    H172812   5.391   0.311   5.475 -1.1553  0.0704 -0.4154
17107TIP3    H272813   5.447   0.176   5.515  1.2320  1.2280  0.3366
17108TIP3   OH272814   1.663   6.512   6.265 -0.1349 -0.1886 -0.5794
17108TIP3    H172815   1.733   6.567   6.302  1.0605 -0.8003 -1.8517
17108TIP3    H272816   1.592   6.573   6.247  0.6256  0.7127 -0.6231
17109TIP3   OH272817   3.277   3.685   4.633  0.2957 -0.1699  0.7304
17109TIP3    H172818   3.359   3.714   4.673  0.5625 -0.3107  0.2941
17109TIP3    H272819   3.238   3.765   4.597  1.2223 -0.3667 -0.8195
17110TIP3   OH272820   5.438   6.179  11.469  0.6170 -0.2250  0.2617
17110TIP3    H172821   5.509   6.117  11.488 -0.8250 -1.9039  0.5034
17110TIP3    H272822   5.434   6.183  11.374  1.0729 -0.0738  0.2469
17111TIP3   OH272823   6.230   0.431  16.155  0.0791 -0.1210  0.2635
17111TIP3    H172824   6.216   0.341  16.128 -0.6443 -1.0350  3.3028
17111TIP3    H272825   6.169   0.482  16.101  0.3467 -1.4318 -1.3461
17112TIP3   OH272826   5.209   4.531  13.603 -0.0032  0.0759 -0.2518
17112TIP3    H172827   5.284   4.570  13.647 -1.1102  2.1823 -0.1188
17112TIP3    H272828   5.145   4.513  13.672  0.2552 -1.5644 -0.3811
17113TIP3   OH272829   3.739   6.589  10.983 -0.2440  0.3818  0.3106
17113TIP3    H172830   3.728   6.494  10.986 -0.1321  0.3609  0.0683
17113TIP3    H272831   3.738   6.610  10.890 -1.9778  0.8209  0.3942
17114TIP3   OH272832   6.798   3.146   5.730 -0.1878  0.0998  0.3568
17114TIP3    H172833   6.816   3.203   5.805  0.6432  1.4831 -0.8415
17114TIP3    H272834   6.717   3.181   5.692 -0.5963 -0.5861  0.5733
17115TIP3   OH272835   1.055   3.649   4.554 -0.2520 -0.2941  0.2690
17115TIP3    H172836   1.118   3.685   4.617  0.8606 -0.1640 -0.8843
17115TIP3    H272837   0.981   3.621   4.608  0.7213 -0.3060  1.6532
17116TIP3   OH272838   6.751   5.484   5.603  0.1400  0.1069 -0.2026
17116TIP3    H172839   6.706   5.506   5.522 -0.0277 -0.8716 -0.3940
17116TIP3    H272840   6.723   5.550   5.666 -0.9965 -0.0684 -0.5115
17117TIP3   OH272841   0.647   0.111   4.836  0.6011 -0.6694 -0.2131
17117TIP3    H172842   0.643   0.020   4.806  0.6843 -1.1023  1.0223
17117TIP3    H272843   0.729   0.116   4.885 -0.8997 -0.8227  2.4612
17118TIP3   OH272844   6.799   2.202  15.053 -0.3227  0.7216 -0.0933
17118TIP3    H172845   6.741   2.132  15.025 -0.4176  0.6802  0.2033
17118TIP3    H272846   6.741   2.266  15.094  0.0303 -0.2459  2.0939
17119TIP3   OH272847   2.866   5.325  12.495  0.1752  0.4042 -0.5084
17119TIP3    H172848   2.862   5.397  12.433  0.6513 -0.1467 -1.1868
17119TIP3    H272849   2.775   5.295  12.503  0.4263 -1.3443 -3.1238
17120TIP3   OH272850   4.393   3.681  10.603 -0.1240 -0.2070 -0.0965
17120TIP3    H172851   4.450   3.605  10.617  2.3062  1.2010 -1.5364
17120TIP3    H272852   4.398   3.697  10.508 -0.7584  1.5747  0.1389
17121TIP3   OH272853   6.676   1.478  11.817  0.4545  0.1922 -0.1106
17121TIP3    H172854   6.602   1.539  11.819  1.3709  1.5717 -2.7393
17121TIP3    H272855   6.727   1.500  11.895 -0.7408  0.7753  0.5321
17122TIP3   OH272856   3.741   0.007   3.815 -0.1875  0.1415  0.1242
17122TIP3    H172857   3.830  -0.028   3.806  0.2235  1.0371  0.6452
17122TIP3    H272858   3.695  -0.026   3.737  0.3068 -1.1547  0.3568
17123TIP3   OH272859   2.126   3.236  11.709 -0.6723 -0.0932  0.4119
17123TIP3    H172860   2.083   3.161  11.751 -0.7934 -0.8615 -1.0290
17123TIP3    H272861   2.198   3.257  11.768 -0.3902 -1.6095  0.6685
17124TIP3   OH272862   4.451   4.815   3.612 -0.0733 -0.4453 -0.3084
17124TIP3    H172863   4.489   4.872   3.679  0.5956 -0.4183 -0.6919
17124TIP3    H272864   4.357   4.815   3.630  0.0288  0.0468  0.2531
17125TIP3   OH272865   2.767   1.486  15.023  0.4028  0.0036  0.6200
17125TIP3    H172866   2.790   1.478  14.930  1.1398 -1.2334  0.9022
17125TIP3    H272867   2.766   1.581  15.039 -1.8524  0.3812 -1.1600
17126TIP3   OH272868   0.164   1.006   1.450  0.3124  0.0453 -0.0836
17126TIP3    H172869   0.174   0.975   1.540 -0.0045  0.6718  0.1770
17126TIP3    H272870   0.159   0.927   1.397 -1.6231 -0.3833  0.6763
17127TIP3   OH272871   3.598   4.497   4.418  0.6169  0.8554  0.2569
17127TIP3    H172872   3.631   4.475   4.505  1.0099 -1.0501 -0.3205
17127TIP3    H272873   3.666   4.466   4.358 -0.1188  1.1536 -0.7650
17128TIP3   OH272874   1.673   3.137   1.544  0.4199  0.2697 -0.3132
17128TIP3    H172875   1.696   3.094   1.627 -1.5651 -0.5325 -0.1264
17128TIP3    H272876   1.611   3.205   1.569  1.2184  1.2770 -0.9703
17129TIP3   OH272877   6.766   3.461  12.280 -0.2042  0.2449  0.6748
17129TIP3    H172878   6.746   3.465  12.186 -0.0253 -1.3008  0.5475
17129TIP3    H272879   6.815   3.380  12.290 -0.2960  0.3521  2.1347
17130TIP3   OH272880   5.376   5.009  12.150 -0.2605  0.0476 -0.5169
17130TIP3    H172881   5.358   4.955  12.227 -0.0338 -0.0796 -0.5502
17130TIP3    H272882   5.471   5.001  12.137 -0.0684  1.2734  0.0833
17131TIP3   OH272883   1.200   3.862  12.686  1.1017 -0.7387  0.1326
17131TIP3    H172884   1.131   3.887  12.747  0.4337 -2.4651  0.1532
17131TIP3    H272885   1.254   3.940  12.677 -2.1126  1.5087 -1.7019
17132TIP3   OH272886   6.181   5.752   4.189  0.1751 -0.2483  0.0487
17132TIP3    H172887   6.085   5.745   4.182  0.2710 -0.5980 -1.0096
17132TIP3    H272888   6.210   5.773   4.101  1.2111 -1.7291  0.0044
17133TIP3   OH272889   3.992   4.896  13.658  0.4409  0.5448 -0.5535
17133TIP3    H172890   4.005   4.810  13.618  2.5474  1.0334 -1.0389
17133TIP3    H272891   4.080   4.927  13.678 -0.3368  2.1245  0.6459
17134TIP3   OH272892   2.068   6.372   3.251  0.4169 -0.1278  0.1823
17134TIP3    H172893   2.118   6.296   3.223  0.1861  1.1727 -4.7126
17134TIP3    H272894   2.133   6.441   3.262  0.2357  0.1525 -0.4385
17135TIP3   OH272895   6.699   5.415  15.589 -0.6124 -0.1289  0.0508
17135TIP3    H172896   6.774   5.447  15.638 -0.9736 -1.6123  1.6874
17135TIP3    H272897   6.736   5.350  15.529  0.0242  2.6134 -2.8007
17136TIP3   OH272898   2.116   1.218  15.613  0.3358  0.2682 -0.1319
17136TIP3    H172899   2.195   1.227  15.666 -0.7642  2.0750  1.3467
17136TIP3    H272900   2.048   1.195  15.676 -0.6522  0.5729 -1.0656
17137TIP3   OH272901   1.891   4.456   2.110  0.4558 -0.0114  0.2467
17137TIP3    H172902   1.858   4.420   2.028 -0.6877  1.5457 -0.0133
17137TIP3    H272903   1.972   4.409   2.126 -0.0973 -1.4396 -0.9622
17138TIP3   OH272904   4.051   1.926  15.309 -0.2196  0.5287 -0.0371
17138TIP3    H172905   4.020   1.836  15.321 -0.1760  0.6154  0.8336
17138TIP3    H272906   4.064   1.935  15.215 -0.6454 -0.2372 -0.1788
17139TIP3   OH272907   6.663   4.068   5.603  0.4603  0.4255  0.6803
17139TIP3    H172908   6.634   4.058   5.512  0.9849  0.6297  0.4842
17139TIP3    H272909   6.667   3.978   5.636  0.0929  0.3619  0.5579
17140TIP3   OH272910   6.470   0.433  16.266  0.5712 -0.2968  0.0289
17140TIP3    H172911   6.381   0.445  16.233  0.7386  1.5971  0.1774
17140TIP3    H272912   6.488   0.510  16.319  1.6618 -1.5138  1.5575
17141TIP3   OH272913   0.676   2.993   6.533  0.3918  0.1274  0.0131
17141TIP3    H172914   0.637   3.000   6.620 -1.4038 -0.6850 -0.6926
17141TIP3    H272915   0.622   2.929   6.487  0.2664  1.7393 -2.2425
17142TIP3   OH272916   1.635   2.307  14.838 -0.2060  0.1678 -0.4745
17142TIP3    H172917   1.707   2.281  14.895 -0.3411 -1.6135 -1.0544
17142TIP3    H272918   1.557   2.266  14.877 -0.5388  0.1922 -1.1008
17143TIP3   OH272919   2.451   2.110  16.472 -0.5590 -0.1384 -0.1777
17143TIP3    H172920   2.504   2.036  16.502  0.0931  0.2622 -0.3120
17143TIP3    H272921   2.402   2.075  16.397  0.0437 -0.3273 -0.4892
17144TIP3   OH272922   5.581   3.780   3.354 -0.0653  0.6111  0.7240
17144TIP3    H172923   5.502   3.773   3.407 -1.3113 -0.7776 -1.1545
17144TIP3    H272924   5.574   3.865   3.311 -1.9035 -0.4333 -1.2776
17145TIP3   OH272925   3.033   4.771  13.958  0.0319  0.3433 -0.3840
17145TIP3    H172926   3.015   4.691  14.008 -2.2439  0.2473 -1.2320
17145TIP3    H272927   2.953   4.822  13.966  0.1084  0.9444 -2.7432
17146TIP3   OH272928   5.914   1.040  15.743 -0.1537  0.0307 -0.7143
17146TIP3    H172929   5.839   1.060  15.689  0.1021 -0.3916 -1.2326
17146TIP3    H272930   5.988   1.037  15.682  0.3274  0.6837 -0.1795
17147TIP3   OH272931   6.310   4.092   5.358 -0.4690  0.1181  0.0953
17147TIP3    H172932   6.304   3.997   5.344  1.1604 -0.0049  0.0064
17147TIP3    H272933   6.273   4.106   5.446  2.0598 -1.0810  1.4723
17148TIP3   OH272934   0.936   6.564  16.599 -0.2576 -0.6997 -0.0759
17148TIP3    H172935   0.901   6.491  16.548  1.1408  0.2335 -2.5940
17148TIP3    H272936   1.023   6.536  16.624  0.0274 -0.1820 -0.4671
17149TIP3   OH272937   4.338   0.918  11.869  0.1465  0.5626  0.3657
17149TIP3    H172938   4.322   0.908  11.963 -2.1463  0.2719  0.0087
17149TIP3    H272939   4.337   1.013  11.854  1.7606  0.6809  0.7653
17150TIP3   OH272940   4.580   3.439   3.881  0.2699 -0.2362  0.0244
17150TIP3    H172941   4.540   3.503   3.940  1.7029  0.8027 -0.0678
17150TIP3    H272942   4.610   3.369   3.938 -0.5050 -0.4111  0.2309
17151TIP3   OH272943   2.294   5.003   1.067 -0.0315 -0.1410 -0.5421
17151TIP3    H172944   2.383   4.980   1.094 -0.0965 -0.1266 -0.3149
17151TIP3    H272945   2.279   4.952   0.988 -0.1362 -0.8008 -0.1073
17152TIP3   OH272946   6.130   3.414   5.111  0.4504  0.0426 -0.0764
17152TIP3    H172947   6.191   3.341   5.102  0.9942  0.5878 -0.9118
17152TIP3    H272948   6.122   3.450   5.023 -0.8916  0.1480  0.0563
17153TIP3   OH272949   0.258   4.276   5.359  0.6527 -0.5222  0.0069
17153TIP3    H172950   0.177   4.327   5.368  0.2107 -1.1580 -0.3263
17153TIP3    H272951   0.303   4.289   5.443 -0.8085 -1.9018  1.0672
17154TIP3   OH272952   5.786   6.503   6.059 -0.7454  0.0496 -0.1507
17154TIP3    H172953   5.759   6.483   6.149 -0.6024  0.8927  0.0826
17154TIP3    H272954   5.756   6.428   6.008  0.7869 -1.3460  0.8805
17155TIP3   OH272955   0.408   0.426   3.174  0.0332 -0.1601 -0.3310
17155TIP3    H172956   0.449   0.450   3.257  0.3748 -0.1502 -0.5040
17155TIP3    H272957   0.373   0.338   3.190  0.6402 -0.4105 -0.3733
17156TIP3   OH272958   1.688   1.555   1.441  0.3335  0.4330  0.2385
17156TIP3    H172959   1.745   1.613   1.389  0.4866  0.0809  0.0098
17156TIP3    H272960   1.654   1.492   1.377  0.4228  0.0744  0.5426
17157TIP3   OH272961   6.373   1.689  16.871 -0.4312  0.2690 -0.1082
17157TIP3    H172962   6.321   1.766  16.893  2.1757  1.9477  0.5463
17157TIP3    H272963   6.380   1.691  16.775  1.0982  1.9674 -0.0158
17158TIP3   OH272964   0.715   6.063   3.860 -0.1792  0.3254  0.4835
17158TIP3    H172965   0.649   6.035   3.796 -0.1003 -1.0717  0.9838
17158TIP3    H272966   0.722   5.990   3.921  0.9236  0.9755  1.1720
17159TIP3   OH272967   4.506   4.107   3.838  0.2634  0.3516  0.4645
17159TIP3    H172968   4.544   4.185   3.797 -1.8081  0.8201 -0.7322
17159TIP3    H272969   4.511   4.039   3.770 -0.8548  0.3910  0.3266
17160TIP3   OH272970   0.862   3.253   3.611  0.4047 -0.0265 -0.0450
17160TIP3    H172971   0.821   3.243   3.697  0.6667 -0.0793  0.0745
17160TIP3    H272972   0.948   3.212   3.621  0.5493  0.2283 -0.2485
17161TIP3   OH272973   6.409   5.829   4.697 -1.2127  0.2707  0.6522
17161TIP3    H172974   6.379   5.871   4.616  0.1827 -3.1672 -1.8905
17161TIP3    H272975   6.483   5.882   4.726 -0.1024  0.2357 -1.8648
17162TIP3   OH272976   0.763   5.546   0.508  0.4939  0.7297 -0.7258
17162TIP3    H172977   0.746   5.495   0.587  1.1608 -0.4481 -1.3149
17162TIP3    H272978   0.820   5.490   0.456 -0.9846  0.9173 -2.6314
17163TIP3   OH272979   3.402   0.454  14.887  0.2089 -0.0661  0.2411
17163TIP3    H172980   3.382   0.361  14.902 -0.0721 -0.3757 -1.6920
17163TIP3    H272981   3.497   0.459  14.893  0.4250 -0.9478 -1.6005
17164TIP3   OH272982   5.240   6.823  11.168 -0.3474  0.3172 -0.1248
17164TIP3    H172983   5.255   6.823  11.073  0.2035  2.5796 -0.0831
17164TIP3    H272984   5.162   6.769  11.180  1.1760 -2.4542 -1.5237
17165TIP3   OH272985   2.534   6.399   1.445 -0.0253 -0.0127  0.4817
17165TIP3    H172986   2.614   6.404   1.498  0.4370 -0.5724 -0.1433
17165TIP3    H272987   2.564   6.363   1.361 -1.2190 -2.0611  0.8651
17166TIP3   OH272988   1.716   3.069  15.941  0.0703 -0.0520 -0.1917
17166TIP3    H172989   1.786   3.120  15.982 -1.0796  2.1389 -0.7585
17166TIP3    H272990   1.640   3.084  15.997 -0.2694 -1.3138 -0.3013
17167TIP3   OH272991   0.377   0.235   6.084 -0.3194 -0.5308  0.4409
17167TIP3    H172992   0.374   0.224   5.989  0.5297 -1.3696  0.4988
17167TIP3    H272993   0.400   0.149   6.118  1.4945  0.2387  1.2830
17168TIP3   OH272994   5.342   3.960  12.452  0.6928 -0.2740 -0.6695
17168TIP3    H172995   5.392   3.894  12.405 -0.0838  0.6808 -2.9860
17168TIP3    H272996   5.314   4.022  12.384 -0.3217  1.3303  1.1042
17169TIP3   OH272997   4.166   2.849   2.813  0.3027 -0.1268 -0.0520
17169TIP3    H172998   4.240   2.887   2.766  0.0506 -1.1228 -1.3054
17169TIP3    H272999   4.092   2.906   2.791 -0.0214 -1.1180 -1.7190
17170TIP3   OH273000   2.396   5.547  12.081  0.4684 -0.1950  0.2435
17170TIP3    H173001   2.468   5.533  12.020 -0.4804 -1.0389 -0.7220
17170TIP3    H273002   2.347   5.621  12.045  0.0659 -0.5143  0.1202
17171TIP3   OH273003   2.063   2.411  11.153 -0.3083  0.1811 -0.2666
17171TIP3    H173004   2.142   2.367  11.122 -0.2044 -0.5127  0.9175
17171TIP3    H273005   2.047   2.480  11.089  2.1392  1.3387  0.2668
17172TIP3   OH273006   2.051   6.335  10.892 -0.4689  0.1223 -0.0302
17172TIP3    H173007   2.126   6.310  10.946 -1.1485  1.5140  1.6619
17172TIP3    H273008   2.034   6.426  10.916 -1.2427  0.5836 -2.1508
17173TIP3   OH273009   4.856   6.468  12.961  0.4424 -0.1138  0.4213
17173TIP3    H173010   4.777   6.428  12.924  0.7244  0.2683 -0.6352
17173TIP3    H273011   4.890   6.402  13.022 -0.7604 -0.2230  0.9864
17174TIP3   OH273012   5.402   6.104   5.777  0.1728 -0.2369  0.1688
17174TIP3    H173013   5.457   6.101   5.855 -0.1203 -3.1379  0.3517
17174TIP3    H273014   5.463   6.120   5.705  0.8694 -0.6011  0.6679
17175TIP3   OH273015   2.951   0.548   4.647 -0.0364 -0.0106  0.1861
17175TIP3    H173016   2.989   0.635   4.645  1.5653 -0.6823 -0.4823
17175TIP3    H273017   2.901   0.541   4.565 -0.6895  0.4763  0.5340
17176TIP3   OH273018   4.826   4.128  16.947 -0.1176  0.2667  0.0152
17176TIP3    H173019   4.896   4.135  16.881 -0.0733  1.7259  0.1787
17176TIP3    H273020   4.755   4.180  16.910  0.0191  1.3659  1.2353
17177TIP3   OH273021   0.771   1.044   2.899 -0.4294  0.1368 -0.2749
17177TIP3    H173022   0.709   1.090   2.842 -1.5004  1.6520  2.0019
17177TIP3    H273023   0.855   1.087   2.884 -0.7932  0.8139 -0.3846
17178TIP3   OH273024   5.873   2.085   2.917 -0.1820  0.6663 -0.0283
17178TIP3    H173025   5.848   2.115   2.830 -0.7448 -0.8123 -0.3990
17178TIP3    H273026   5.963   2.116   2.928  0.5978 -0.6967 -1.9232
17179TIP3   OH273027   1.429   3.913   1.245  0.4288 -0.1226 -0.1809
17179TIP3    H173028   1.441   4.001   1.209  1.0774 -0.2022 -0.1825
17179TIP3    H273029   1.344   3.884   1.211 -0.1063  0.7620  0.3746
17180TIP3   OH273030   0.148   4.895   2.033  0.3880 -0.2691 -0.1583
17180TIP3    H173031   0.178   4.872   2.121  0.5011 -0.6424 -0.2942
17180TIP3    H273032   0.054   4.912   2.044  0.3937 -0.3485  0.0245
17181TIP3   OH273033   0.808   4.503   2.485  0.3028  0.5346 -0.1788
17181TIP3    H173034   0.760   4.545   2.414 -0.1927  0.6244  0.2022
17181TIP3    H273035   0.795   4.409   2.471 -1.3790  0.5742  0.8384
17182TIP3   OH273036   5.031   1.967   0.353  0.0880 -0.2584  0.1186
17182TIP3    H173037   5.003   2.056   0.375  1.4935  0.5837 -1.2709
17182TIP3    H273038   4.968   1.937   0.288  1.8206  1.3959 -2.5498
17183TIP3   OH273039   2.860   4.418   6.231 -0.1704 -0.7929 -0.1096
17183TIP3    H173040   2.808   4.432   6.310 -2.0048 -0.3828 -1.3303
17183TIP3    H273041   2.806   4.362   6.176  0.7151 -0.3960 -1.4329
17184TIP3   OH273042   3.735   5.012  10.438  0.3380  0.3628 -0.1116
17184TIP3    H173043   3.747   4.932  10.387  0.4167 -1.3584  2.4265
17184TIP3    H273044   3.655   5.051  10.403  0.2136 -0.8902 -1.3166
17185TIP3   OH273045   2.232   4.593  15.244 -0.0816  0.3955 -0.1225
17185TIP3    H173046   2.202   4.503  15.238 -0.2650  0.5148 -1.1551
17185TIP3    H273047   2.323   4.590  15.214 -0.2326  0.6283 -0.6009
17186TIP3   OH273048   4.428   6.733  16.847 -0.1739 -0.4567  0.3299
17186TIP3    H173049   4.518   6.767  16.847 -0.5028  0.4685  1.2713
17186TIP3    H273050   4.382   6.788  16.783  0.2547 -1.9450 -1.3425
17187TIP3   OH273051   3.554   4.128  16.922 -0.7150  0.4419 -0.2354
17187TIP3    H173052   3.548   4.035  16.900  3.9890  0.1093 -1.1014
17187TIP3    H273053   3.557   4.130  17.018  2.1062 -0.7897 -0.1923
17188TIP3   OH273054   0.139   1.278   2.000  0.1067 -0.1174 -0.0249
17188TIP3    H173055   0.175   1.227   2.073 -0.9934 -1.6685 -0.5101
17188TIP3    H273056   0.157   1.369   2.022  0.6962 -0.6236  1.6819
17189TIP3   OH273057   5.059   6.275  16.609 -0.5729 -0.4008  0.1927
17189TIP3    H173058   5.141   6.314  16.578 -0.4935  1.3260  2.3479
17189TIP3    H273059   4.991   6.327  16.567 -0.5590 -0.9642 -0.5411
17190TIP3   OH273060   1.841   1.832   3.440  0.0537  0.0817  0.0179
17190TIP3    H173061   1.853   1.781   3.360 -0.6954 -0.3504  0.1729
17190TIP3    H273062   1.761   1.883   3.423  0.6450  1.0065 -0.0333
17191TIP3   OH273063   5.388   3.171   2.917  0.7926  0.1711  0.3583
17191TIP3    H173064   5.460   3.108   2.917  0.9895  0.3624  1.8428
17191TIP3    H273065   5.365   3.181   2.825  1.1350 -1.6259  0.0495
17192TIP3   OH273066   6.402   0.491  16.663 -0.0186  0.4353 -0.0168
17192TIP3    H173067   6.442   0.406  16.649 -1.8164 -0.6198  0.8998
17192TIP3    H273068   6.458   0.534  16.727  0.3661 -0.4530  0.2497
17193TIP3   OH273069   4.503   4.997  14.270 -0.2587  0.3466  0.1877
17193TIP3    H173070   4.557   4.930  14.229  0.0417  1.8716 -2.1335
17193TIP3    H273071   4.415   4.983  14.236 -0.4527  0.4312  0.6347
17194TIP3   OH273072   4.478   0.599  11.246  0.2899  0.8562  0.0179
17194TIP3    H173073   4.389   0.605  11.283  0.3577  1.5117  0.0779
17194TIP3    H273074   4.492   0.505  11.234 -1.1801  0.8042 -1.8593
17195TIP3   OH273075   1.886   4.142   0.134 -0.0008  0.2985  0.1250
17195TIP3    H173076   1.824   4.086   0.086  0.6161  0.7091 -1.2031
17195TIP3    H273077   1.947   4.080   0.174 -1.3419 -0.1149  1.5862
17196TIP3   OH273078   5.198   3.266  12.495  0.4805 -0.4948 -0.1567
17196TIP3    H173079   5.292   3.260  12.479  0.6790  0.8138  0.3623
17196TIP3    H273080   5.170   3.344  12.445 -0.5309 -1.4477 -1.1419
17197TIP3   OH273081   6.259   0.366   5.070 -0.4011 -0.0001  0.4370
17197TIP3    H173082   6.301   0.375   5.156  1.5287  0.4856 -0.4976
17197TIP3    H273083   6.299   0.288   5.032 -0.3734  0.4499 -0.4702
17198TIP3   OH273084   1.446   0.913  13.413  0.2040  0.6530  0.4368
17198TIP3    H173085   1.425   0.850  13.344 -0.5648 -0.1591  1.3655
17198TIP3    H273086   1.374   0.977  13.410 -0.0896  0.3503  0.7628
17199TIP3   OH273087   0.222   1.279  16.613 -0.1050 -0.1635 -0.0696
17199TIP3    H173088   0.190   1.304  16.700 -0.1852 -0.2193 -0.0845
17199TIP3    H273089   0.266   1.195  16.628 -0.8511 -0.5930 -0.2344
17200TIP3   OH273090   6.572   3.927   3.797  0.5050  0.0069  0.3151
17200TIP3    H173091   6.569   3.882   3.881 -1.7757 -0.4357  0.0759
17200TIP3    H273092   6.568   4.020   3.820  1.7007 -0.0378  0.7278
17201TIP3   OH273093   0.430   5.713   1.171 -0.1104 -0.2502 -0.0965
17201TIP3    H173094   0.393   5.791   1.213 -0.6441  0.0494 -1.0891
17201TIP3    H273095   0.373   5.642   1.197 -0.3830 -0.0827 -0.2300
17202TIP3   OH273096   4.898   0.972  12.522  0.7620 -0.0115  0.2464
17202TIP3    H173097   4.958   0.968  12.596 -0.7105 -1.1707  1.4220
17202TIP3    H273098   4.939   0.917  12.455  3.2509  2.7937 -0.7978
17203TIP3   OH273099   0.928   1.434  13.737 -0.1997  0.3468 -0.7899
17203TIP3    H173100   0.980   1.428  13.817 -0.9934 -1.3716 -0.3434
17203TIP3    H273101   0.992   1.428  13.666  0.3725  0.1544 -0.2669
17204TIP3   OH273102   1.100   0.445  11.601  0.2838 -0.1086 -0.5014
17204TIP3    H173103   1.160   0.472  11.531  1.6340 -1.6978 -0.0264
17204TIP3    H273104   1.131   0.491  11.679  0.2814 -0.1819 -0.4571
17205TIP3   OH273105   3.442   5.347  11.209 -0.2617 -0.1757 -0.1824
17205TIP3    H173106   3.402   5.305  11.285 -0.2422 -1.0731 -0.6539
17205TIP3    H273107   3.385   5.323  11.136 -0.6613  1.2397 -0.3597
17206TIP3   OH273108   1.960   3.042   2.583  0.0207  0.0052 -0.1251
17206TIP3    H173109   2.002   3.008   2.504  0.5517 -0.0625  0.1783
17206TIP3    H273110   2.020   3.111   2.614 -1.2919  1.6085 -1.0153
17207TIP3   OH273111   1.370   2.253  16.667  0.5512  0.0553  0.2079
17207TIP3    H173112   1.444   2.280  16.722  0.7397 -0.9760  0.4985
17207TIP3    H273113   1.393   2.282  16.579  1.4756 -0.5421  0.2388
17208TIP3   OH273114   1.064   1.007  11.307  0.1839 -0.0449 -0.1313
17208TIP3    H173115   1.099   1.013  11.218  1.6452 -1.3419  0.2953
17208TIP3    H273116   1.067   0.913  11.327 -0.1166  0.2274  1.2810
17209TIP3   OH273117   3.299   1.248  17.080  0.1674 -0.2194 -0.3016
17209TIP3    H173118   3.321   1.163  17.119  2.0974  0.4723  0.2473
17209TIP3    H273119   3.227   1.281  17.133  1.3661 -0.2290  1.3965
17210TIP3   OH273120   2.621   1.452   3.085 -0.5772  0.4774  0.0621
17210TIP3    H173121   2.607   1.547   3.078 -0.5117  0.5216  0.4970
17210TIP3    H273122   2.557   1.423   3.149 -1.2846  0.0543 -0.8106
17211TIP3   OH273123   5.751   2.955   1.968  0.3787 -0.0863  0.2752
17211TIP3    H173124   5.805   3.011   1.912  1.2906 -0.9543  0.2668
17211TIP3    H273125   5.674   3.009   1.987  1.0598  1.0424 -0.0149
17212TIP3   OH273126   6.549   3.024  15.508  0.4273 -0.0767 -0.2030
17212TIP3    H173127   6.552   3.103  15.562  2.2122  1.0155 -1.7718
17212TIP3    H273128   6.607   2.963  15.552 -1.3227 -0.7563  1.2728
17213TIP3   OH273129   3.065   4.398   5.476  0.0232  0.4771 -0.0545
17213TIP3    H173130   3.142   4.428   5.523  0.2382  2.1466 -1.3892
17213TIP3    H273131   3.015   4.477   5.457 -0.8084 -0.3052 -1.3037
17214TIP3   OH273132   4.094   5.104   0.920  0.2750 -1.1640 -0.7971
17214TIP3    H173133   4.164   5.087   0.983  1.4854 -0.7618 -1.9847
17214TIP3    H273134   4.020   5.052   0.952  1.2661 -2.0159  0.2125
17215TIP3   OH273135   4.593   0.021   2.603 -0.0534 -0.0637  0.4404
17215TIP3    H173136   4.577   0.106   2.563 -0.8244  1.6867  4.1064
17215TIP3    H273137   4.517  -0.032   2.580  0.9101 -0.2487 -2.7427
17216TIP3   OH273138   1.003   5.675   5.561 -0.2181  0.2154  0.6699
17216TIP3    H173139   1.067   5.720   5.615  2.2716 -2.6402  0.3541
17216TIP3    H273140   0.954   5.746   5.518  2.6972  2.5908  0.9348
17217TIP3   OH273141   4.524   5.586  15.568  0.8558 -0.5776  0.5528
17217TIP3    H173142   4.589   5.656  15.558 -1.9460  2.3914  1.2388
17217TIP3    H273143   4.470   5.592  15.490 -0.6829 -0.4935  1.5812
17218TIP3   OH273144   2.908   2.702  12.724 -0.1477 -0.0239 -0.4815
17218TIP3    H173145   2.862   2.618  12.725 -1.8948  0.8635 -1.7151
17218TIP3    H273146   2.841   2.766  12.749  1.5640  0.8904  2.1810
17219TIP3   OH273147   1.401   6.375   6.050  0.3174  0.1996 -0.4948
17219TIP3    H173148   1.473   6.394   6.110  0.1918  1.8948 -0.8404
17219TIP3    H273149   1.374   6.460   6.016 -1.9699 -0.3787 -0.2816
17220TIP3   OH273150   0.435   1.143  17.058 -0.0063  0.2408 -0.7375
17220TIP3    H173151   0.503   1.078  17.039  2.2512  2.4711 -0.9733
17220TIP3    H273152   0.431   1.146  17.154 -0.3216 -0.4280 -0.7284
17221TIP3   OH273153   3.925   1.597   5.094 -0.1288 -0.1099 -0.1953
17221TIP3    H173154   3.965   1.640   5.019 -1.1056  0.1185 -0.6085
17221TIP3    H273155   3.960   1.508   5.092  1.3724  0.4426  0.2585
17222TIP3   OH273156   0.109   4.577  11.427  0.0744 -0.2557  0.3811
17222TIP3    H173157   0.176   4.593  11.361 -0.5373  2.4612  0.2875
17222TIP3    H273158   0.052   4.511  11.388  1.4165 -0.9644 -0.4592
17223TIP3   OH273159   4.417   2.412   0.213  0.1741  0.1869  0.2149
17223TIP3    H173160   4.509   2.408   0.189  0.5169  3.1179  0.6706
17223TIP3    H273161   4.371   2.432   0.132  0.2000  0.8369  0.3592
17224TIP3   OH273162   2.727   6.708  15.096  0.4632  0.2957  0.2963
17224TIP3    H173163   2.719   6.654  15.174  1.0296  1.2749  1.0582
17224TIP3    H273164   2.656   6.679  15.039  1.7488 -2.4185 -0.0762
17225TIP3   OH273165   4.497   3.717  13.127 -0.2922 -0.7361  0.7724
17225TIP3    H173166   4.482   3.785  13.193  3.0407 -1.0515  2.0711
17225TIP3    H273167   4.419   3.662  13.132 -1.8232  1.3637  1.7141
17226TIP3   OH273168   4.399   6.379  16.160 -0.7193  0.1877 -0.2933
17226TIP3    H173169   4.332   6.312  16.176 -1.9097  1.3296 -0.3434
17226TIP3    H273170   4.473   6.330  16.122 -1.2171 -1.2166  0.4615
17227TIP3   OH273171   1.792   0.302  16.143 -0.1274 -0.5506 -0.1443
17227TIP3    H173172   1.827   0.278  16.057  0.1342 -0.0763 -0.1774
17227TIP3    H273173   1.757   0.221  16.179 -2.5104 -0.3344 -1.7416
17228TIP3   OH273174   4.288   4.141   5.597 -0.1952 -0.3415 -0.1398
17228TIP3    H173175   4.353   4.187   5.544 -1.3458 -2.8443 -4.2244
17228TIP3    H273176   4.337   4.073   5.642  0.6178  0.9287  0.9609
17229TIP3   OH273177   0.206   2.494   4.002  0.1606  0.0202  0.5133
17229TIP3    H173178   0.275   2.552   3.972  0.0878 -0.8121 -1.3781
17229TIP3    H273179   0.175   2.450   3.923 -1.3986 -0.8490  1.5525
17230TIP3   OH273180   4.665   4.279   4.204  0.4900 -0.2583 -0.7140
17230TIP3    H173181   4.724   4.353   4.198 -0.1335  0.5625  1.9004
17230TIP3    H273182   4.599   4.294   4.135 -0.7470  2.7470  0.9477
17231TIP3   OH273183   2.915   1.716   4.868  0.3451 -0.1037 -0.1907
17231TIP3    H173184   2.982   1.729   4.801  0.5884 -0.9171 -0.1291
17231TIP3    H273185   2.960   1.665   4.936  0.2581  1.1287  0.8379
17232TIP3   OH273186   4.691   2.888   4.325  0.3581  0.5573  0.0008
17232TIP3    H173187   4.724   2.800   4.345  0.8218  0.7539  0.1140
17232TIP3    H273188   4.705   2.897   4.230  1.3454  0.9269  0.1713
17233TIP3   OH273189   1.645   3.285   2.659 -0.1615 -0.4397  0.1635
17233TIP3    H173190   1.637   3.192   2.639  0.0276 -0.2564 -0.8362
17233TIP3    H273191   1.711   3.317   2.597  1.4866 -0.0820  2.0004
17234TIP3   OH273192   0.841   1.039  14.955 -0.0430  0.4758 -0.0688
17234TIP3    H173193   0.926   1.022  14.914 -0.0178 -2.2308  0.8718
17234TIP3    H273194   0.851   1.125  14.995  2.5150 -0.0132  0.5417
17235TIP3   OH273195   3.624   5.241   4.122 -0.2475  0.0364  0.1070
17235TIP3    H173196   3.618   5.145   4.127  2.0739 -0.1441  0.4360
17235TIP3    H273197   3.566   5.264   4.049 -0.9474 -1.5947  0.0926
17236TIP3   OH273198   2.157   6.084   6.876 -0.1572  0.5077  0.0141
17236TIP3    H173199   2.241   6.078   6.831  1.3927 -1.6372  2.8978
17236TIP3    H273200   2.094   6.045   6.815  1.7064 -1.6575 -0.6427
17237TIP3   OH273201   4.333   1.298  15.538  0.7111  0.0777  1.0080
17237TIP3    H173202   4.367   1.303  15.449 -0.2195 -1.1109  0.5549
17237TIP3    H273203   4.273   1.373  15.546 -1.1095 -1.1550 -0.2536
17238TIP3   OH273204   6.479   4.518  13.073  0.1783  0.6414  0.3717
17238TIP3    H173205   6.503   4.445  13.016 -0.8588 -0.2305  1.0293
17238TIP3    H273206   6.545   4.585  13.054  1.6283 -0.7394  0.3242
17239TIP3   OH273207   0.496   0.699   0.560  0.1565  0.1261 -0.4604
17239TIP3    H173208   0.488   0.672   0.469  2.7595  0.4218 -0.8728
17239TIP3    H273209   0.573   0.756   0.561 -0.9031  1.6433  1.6280
17240TIP3   OH273210   0.128   6.712   2.793 -0.1210  0.0544  0.2654
17240TIP3    H173211   0.073   6.771   2.740 -0.8267 -1.0065 -0.2141
17240TIP3    H273212   0.215   6.720   2.755 -0.3606  0.2653 -0.2469
17241TIP3   OH273213   2.392   0.088  14.625  0.1439  0.3122 -0.1847
17241TIP3    H173214   2.308   0.058  14.591  0.1307  0.5732 -0.3916
17241TIP3    H273215   2.370   0.145  14.698  0.2040 -1.0857  0.9672
17242TIP3   OH273216   6.629   2.082   5.062 -0.8175 -0.5941 -0.3266
17242TIP3    H173217   6.551   2.028   5.076 -0.9817 -0.2625  0.0533
17242TIP3    H273218   6.698   2.038   5.111 -1.0713 -0.1835  0.4097
17243TIP3   OH273219   6.578   6.729   3.821 -0.8121  0.0771 -0.9115
17243TIP3    H173220   6.554   6.639   3.844 -0.5985  0.3405  0.3662
17243TIP3    H273221   6.659   6.719   3.770 -0.6259 -0.4395 -0.5326
17244TIP3   OH273222   4.923   6.119  14.679 -0.0723 -0.5818  0.4222
17244TIP3    H173223   4.955   6.175  14.750  1.7210  1.2361 -1.6968
17244TIP3    H273224   5.001   6.091  14.633 -1.2406 -0.6705 -1.6161
17245TIP3   OH273225   1.374   3.096  16.010  0.1141 -0.3503  0.2993
17245TIP3    H173226   1.371   3.176  15.957  0.6406 -0.5996 -0.1196
17245TIP3    H273227   1.359   3.025  15.948 -0.3255 -0.5849  0.6663
17246TIP3   OH273228   3.167   5.078  15.865 -0.1003 -0.1189  0.1440
17246TIP3    H173229   3.224   5.001  15.859  1.0828  0.7170  0.3449
17246TIP3    H273230   3.187   5.115  15.950 -1.0723  0.1034  0.2752
17247TIP3   OH273231   3.954   1.573   6.349  0.1550 -0.0713 -0.8685
17247TIP3    H173232   3.985   1.495   6.304 -1.4426 -1.0997 -0.2670
17247TIP3    H273233   3.937   1.637   6.280  0.5091 -0.6105 -1.4544
17248TIP3   OH273234   0.733   0.565  14.439 -0.0255 -0.4789  0.0219
17248TIP3    H173235   0.765   0.599  14.356 -0.1256  0.0359  0.1918
17248TIP3    H273236   0.676   0.634  14.473  0.0239 -0.6783  0.5211
17249TIP3   OH273237   0.471   5.586   4.104  0.1202  0.2664 -0.9984
17249TIP3    H173238   0.522   5.547   4.175 -0.6622  1.1584  0.1094
17249TIP3    H273239   0.444   5.513   4.049  2.1003 -0.2771 -1.3078
17250TIP3   OH273240   6.353   2.036  11.468 -0.0207  0.1868 -0.2192
17250TIP3    H173241   6.331   2.058  11.558  0.4033 -1.0213  0.1981
17250TIP3    H273242   6.375   1.943  11.471  1.2028  0.4195 -1.3477
17251TIP3   OH273243   0.544   5.793  14.901 -0.4853 -0.2649  0.5706
17251TIP3    H173244   0.616   5.738  14.932  0.0729  1.0598  1.7561
17251TIP3    H273245   0.562   5.807  14.808 -1.0300 -2.6076  0.0545
17252TIP3   OH273246   1.945   0.728   2.335 -0.1445 -0.0412 -0.5451
17252TIP3    H173247   1.987   0.814   2.334 -1.3451  0.5831  0.1186
17252TIP3    H273248   1.875   0.734   2.270 -0.2099 -0.5309 -0.5248
17253TIP3   OH273249   0.329   5.538  16.227  0.3535 -0.1782  0.4807
17253TIP3    H173250   0.282   5.458  16.201 -1.6362  1.1966 -0.4033
17253TIP3    H273251   0.298   5.557  16.315 -2.9616  2.0704 -0.9440
17254TIP3   OH273252   6.784   5.873  13.160 -0.5625  0.1951  0.0259
17254TIP3    H173253   6.733   5.792  13.162  0.8937 -0.7622 -0.7442
17254TIP3    H273254   6.738   5.928  13.097 -0.7084 -0.6078 -0.5840
17255TIP3   OH273255   3.075   0.887   4.995  0.2994  0.7428  0.5209
17255TIP3    H173256   3.006   0.905   5.060  1.3996 -1.0280  2.2949
17255TIP3    H273257   3.134   0.962   5.001 -0.4755  1.3787  0.3439
17256TIP3   OH273258   6.195   2.145  14.679 -0.2752  0.1150  0.5344
17256TIP3    H173259   6.145   2.225  14.694  0.1795  0.3311  0.9649
17256TIP3    H273260   6.154   2.080  14.736 -0.4557  0.1252  0.4145
17257TIP3   OH273261   4.829   0.315  11.908  0.1016 -0.3265  0.1621
17257TIP3    H173262   4.735   0.302  11.919  0.0772 -0.7925 -0.5201
17257TIP3    H273263   4.859   0.235  11.865  0.6408  0.2328 -0.5300
17258TIP3   OH273264   0.102   2.712  17.032  0.5955 -0.1063 -0.4922
17258TIP3    H173265   0.119   2.741  17.121  1.6345  0.3491 -0.8286
17258TIP3    H273266   0.185   2.677  17.002 -0.1447 -1.7546 -0.7466
17259TIP3   OH273267   2.836   0.270  11.012  0.5187 -0.0640  0.9871
17259TIP3    H173268   2.787   0.271  11.095  0.9461  1.6394  1.2584
17259TIP3    H273269   2.911   0.326  11.028  0.8167 -0.0155 -0.4447
17260TIP3   OH273270   1.107   2.812   3.159 -0.0383 -0.4236  0.3905
17260TIP3    H173271   1.073   2.896   3.188  1.0379  1.3759 -3.1099
17260TIP3    H273272   1.036   2.774   3.107  0.2314 -0.7227  0.2380
17261TIP3   OH273273   0.120   0.146   2.375  0.2673 -0.1187  0.1537
17261TIP3    H173274   0.192   0.155   2.437  0.7347 -1.6993 -0.1279
17261TIP3    H273275   0.156   0.177   2.292  0.2961  0.0320  0.2220
17262TIP3   OH273276   3.105   5.311  13.551  0.1849 -0.1582  0.0932
17262TIP3    H173277   3.098   5.250  13.624  1.4156 -0.2713  0.1276
17262TIP3    H273278   3.105   5.254  13.473  0.4268 -0.1402  0.0802
17263TIP3   OH273279   6.229   4.146   3.924 -0.1319  0.2305 -0.0690
17263TIP3    H173280   6.196   4.093   3.997 -1.2810  1.6218  0.4694
17263TIP3    H273281   6.205   4.096   3.846 -0.1157 -0.6238  0.4610
17264TIP3   OH273282   3.092   0.538  15.681 -0.2098  0.3808 -0.4023
17264TIP3    H173283   3.138   0.622  15.688  0.2530  0.0543  0.5470
17264TIP3    H273284   3.117   0.490  15.760 -1.7007 -0.0456 -0.1647
17265TIP3   OH273285   6.126   5.851  13.440  0.3410  0.0816 -0.1852
17265TIP3    H173286   6.173   5.930  13.466 -0.6550  0.5528  0.2628
17265TIP3    H273287   6.043   5.884  13.403 -0.8153 -0.7841  1.5082
17266TIP3   OH273288   2.731   3.428   4.051  0.7216  0.0537  0.2943
17266TIP3    H173289   2.720   3.452   4.143 -1.4714  2.5527 -0.4899
17266TIP3    H273290   2.817   3.462   4.027  2.2022 -2.3457  1.7860
17267TIP3   OH273291   1.452   1.114   0.880 -0.4583  0.0066 -0.2033
17267TIP3    H173292   1.520   1.164   0.925  0.1676 -0.0501 -1.0458
17267TIP3    H273293   1.450   1.029   0.925  1.0439 -0.5096 -1.0386
17268TIP3   OH273294   3.977   3.019   1.923 -0.1281 -0.2631  0.5661
17268TIP3    H173295   4.013   3.018   2.011 -0.4781  0.0505  0.7134
17268TIP3    H273296   3.921   2.942   1.918 -2.4510  1.2526  1.6099
17269TIP3   OH273297   0.702   6.253   5.718  0.4643  0.0292  0.2900
17269TIP3    H173298   0.754   6.233   5.640 -2.1161 -2.8323 -0.9034
17269TIP3    H273299   0.742   6.201   5.788 -0.2133 -1.4578 -0.4037
17270TIP3   OH273300   2.112   5.489  11.128 -0.1272 -0.7935 -0.5695
17270TIP3    H173301   2.150   5.441  11.201  0.9077 -1.6388 -1.6244
17270TIP3    H273302   2.026   5.515  11.159  0.2565 -1.1949  0.9180
17271TIP3   OH273303   4.176   2.688   0.685  0.7756  0.8237  0.5819
17271TIP3    H173304   4.209   2.658   0.600  0.5460  0.4242  0.6320
17271TIP3    H273305   4.231   2.764   0.706  1.7755  0.0743  0.7386
17272TIP3   OH273306   2.161   6.255  15.370  0.0320  0.5050 -0.0628
17272TIP3    H173307   2.148   6.160  15.364 -2.6410  0.7530  0.6269
17272TIP3    H273308   2.160   6.285  15.279 -1.1940  0.0808 -0.2016
17273TIP3   OH273309   2.994   5.280  11.558  0.3809 -0.8104 -0.0205
17273TIP3    H173310   3.048   5.203  11.572 -0.0273 -1.1854 -0.5071
17273TIP3    H273311   2.940   5.259  11.482 -0.5354 -0.4876  0.5237
17274TIP3   OH273312   5.669   4.719   3.312  0.1407  0.1219 -0.3446
17274TIP3    H173313   5.616   4.738   3.235 -1.2121 -1.4472  0.1303
17274TIP3    H273314   5.626   4.767   3.383 -0.7930 -1.2746  0.0714
17275TIP3   OH273315   4.323   6.138   0.052 -0.0233 -0.4894  0.6898
17275TIP3    H173316   4.247   6.191   0.075  1.0594  0.4931  2.3028
17275TIP3    H273317   4.368   6.189  -0.015  0.5306  0.2568  1.5866
17276TIP3   OH273318   5.189   4.053   4.946 -0.6219 -0.3014 -0.2173
17276TIP3    H173319   5.096   4.064   4.925 -1.1845 -2.8042  0.6005
17276TIP3    H273320   5.213   3.970   4.904  1.0043 -0.1619  0.3562
17277TIP3   OH273321   6.627   1.080  14.405  0.4591 -0.0751 -0.5699
17277TIP3    H173322   6.571   1.112  14.475  1.3921 -1.1918  0.7415
17277TIP3    H273323   6.695   1.147  14.395  0.6586 -0.1840  0.0257
17278TIP3   OH273324   2.857   3.247   0.188  0.0580 -0.1948  0.0665
17278TIP3    H173325   2.769   3.218   0.163 -0.4619  0.2491  1.3054
17278TIP3    H273326   2.842   3.310   0.258  1.3338  0.5235 -0.2808
17279TIP3   OH273327   4.633   1.031   5.778  0.0700 -0.0994 -0.5580
17279TIP3    H173328   4.578   1.089   5.832 -0.3169  0.1863 -1.2450
17279TIP3    H273329   4.704   1.088   5.747 -0.1685 -0.0534 -1.0239
17280TIP3   OH273330   3.601   5.519   2.068  0.2205  0.4579  0.4255
17280TIP3    H173331   3.534   5.485   2.128  1.2372 -0.6646  0.9637
17280TIP3    H273332   3.584   5.474   1.986 -0.0165  0.5796  0.4074
17281TIP3   OH273333   1.655   6.358   4.751  0.1490  0.7142  0.3800
17281TIP3    H173334   1.659   6.428   4.816 -0.5533 -0.4940  1.7675
17281TIP3    H273335   1.577   6.377   4.699  1.1987  2.1791 -0.7615
17282TIP3   OH273336   6.710   1.152  16.538  0.2557  0.3439  0.7215
17282TIP3    H173337   6.623   1.169  16.575  0.0139  1.9824 -0.4542
17282TIP3    H273338   6.752   1.238  16.536  0.3963  0.3188 -2.3355
17283TIP3   OH273339   1.502   4.027   4.496  0.1951 -0.3780 -0.3521
17283TIP3    H173340   1.539   3.945   4.528 -0.3676  0.1439  1.7450
17283TIP3    H273341   1.408   4.009   4.487  0.0434  0.0560  0.2770
17284TIP3   OH273342   4.282   2.654  12.844 -0.8080 -0.2454 -0.0594
17284TIP3    H173343   4.193   2.628  12.868 -0.2241 -1.9211  0.4054
17284TIP3    H273344   4.330   2.656  12.927 -0.0166 -1.0048 -0.4841
17285TIP3   OH273345   3.864   0.713  15.731 -0.1787 -0.0384 -0.4768
17285TIP3    H173346   3.876   0.737  15.639 -0.3366  2.8242  0.1530
17285TIP3    H273347   3.854   0.797  15.776  0.9838 -1.2881  2.3199
17286TIP3   OH273348   5.632   0.105  13.022  0.4221 -0.7322  0.2713
17286TIP3    H173349   5.648   0.029  13.078  0.0197 -0.0472  1.3636
17286TIP3    H273350   5.540   0.126  13.037  0.4676 -0.1688 -0.2009
17287TIP3   OH273351   6.521   0.490  10.129  0.2287 -0.2819 -0.7021
17287TIP3    H173352   6.552   0.407  10.094  0.4963  0.5581 -2.5581
17287TIP3    H273353   6.441   0.510  10.079 -0.1849  0.2776  0.1502
17288TIP3   OH273354   4.101   2.671  11.279  0.1606  0.2002  0.2040
17288TIP3    H173355   4.120   2.765  11.277 -0.0339  0.2398  0.1331
17288TIP3    H273356   4.036   2.659  11.209 -0.4740  0.1618  0.7816
17289TIP3   OH273357   1.520   6.627  16.641 -0.2857  0.2288  0.0621
17289TIP3    H173358   1.595   6.683  16.662 -0.5554  0.9226 -0.7643
17289TIP3    H273359   1.445   6.676  16.673 -0.5142  0.2694 -0.5285
17290TIP3   OH273360   6.074   2.564  14.998  0.6589 -0.4509 -0.5737
17290TIP3    H173361   5.980   2.560  15.012  0.6349  0.1783 -0.4977
17290TIP3    H273362   6.112   2.506  15.064  0.3236 -0.7414 -0.6350
17291TIP3   OH273363   6.418   0.993  15.555 -0.3924  0.0099 -0.6560
17291TIP3    H173364   6.394   0.975  15.645  1.1249  0.7861 -0.0687
17291TIP3    H273365   6.513   0.981  15.553 -0.3408  0.4961 -2.0354
17292TIP3   OH273366   5.057   4.894   5.876 -0.4767 -0.5159 -0.4258
17292TIP3    H173367   5.098   4.911   5.791  1.2563  2.4032  0.8469
17292TIP3    H273368   5.129   4.893   5.938 -1.9247  0.3091  1.3649
17293TIP3   OH273369   3.949   3.370  14.331  0.4566  0.3139  0.0659
17293TIP3    H173370   3.916   3.334  14.249  1.2489  0.4252 -0.3093
17293TIP3    H273371   3.954   3.464  14.316 -2.9560  0.8901  1.5088
17294TIP3   OH273372   2.642   3.871  14.688 -0.1831  0.1901  0.2578
17294TIP3    H173373   2.622   3.945  14.746  2.0297  0.9796  0.1492
17294TIP3    H273374   2.587   3.800  14.720  0.4416  0.7685  2.9335
17295TIP3   OH273375   0.224   3.224   2.044  0.6183  0.2927 -0.1372
17295TIP3    H173376   0.278   3.163   2.094 -2.0381 -2.7180 -0.6410
17295TIP3    H273377   0.265   3.227   1.957  0.1515 -1.8224 -0.4752
17296TIP3   OH273378   1.148   6.435   6.212  0.0924  0.4058  0.2058
17296TIP3    H173379   1.078   6.384   6.254 -1.0943  2.0705  0.3240
17296TIP3    H273380   1.227   6.384   6.229 -0.8430 -0.7145  1.4919
17297TIP3   OH273381   2.735   3.902   0.278  0.0296 -0.0839 -0.7939
17297TIP3    H173382   2.764   3.876   0.365 -1.7578  0.0962 -0.1051
17297TIP3    H273383   2.779   3.840   0.219  1.2111 -0.2482  0.2116
17298TIP3   OH273384   3.432   0.158   4.471 -0.0895 -0.0104 -0.3048
17298TIP3    H173385   3.402   0.138   4.382  0.3921  2.2275 -1.0265
17298TIP3    H273386   3.381   0.234   4.498  0.0160 -0.4466  1.2194
17299TIP3   OH273387   0.896   3.623  13.855 -0.0363  0.6070  0.4872
17299TIP3    H173388   0.911   3.595  13.945  2.5604 -0.6010 -0.2135
17299TIP3    H273389   0.928   3.551  13.801  0.0661  1.9655 -1.4063
17300TIP3   OH273390   2.699   3.928  13.426  0.0945  0.5346 -0.6121
17300TIP3    H173391   2.657   4.014  13.425  0.5786  0.7670 -0.9986
17300TIP3    H273392   2.791   3.946  13.444  0.1025  0.0489 -0.1233
17301TIP3   OH273393   5.198   3.227   4.837 -0.2822  0.4358  0.3199
17301TIP3    H173394   5.202   3.155   4.900  2.0056  0.3824  0.1930
17301TIP3    H273395   5.115   3.215   4.792 -0.5157 -1.3928  1.1604
17302TIP3   OH273396   1.521   4.114  12.282 -0.0034  0.6427  0.0933
17302TIP3    H173397   1.572   4.190  12.310 -0.8956  1.1598  0.3615
17302TIP3    H273398   1.569   4.079  12.207  0.9912  0.8260  0.6270
17303TIP3   OH273399   3.222   2.115  11.217 -0.0766 -0.2775 -0.7662
17303TIP3    H173400   3.286   2.187  11.223 -0.3391  0.3321 -3.8313
17303TIP3    H273401   3.142   2.156  11.185 -1.7151 -1.2650  1.7355
17304TIP3   OH273402   2.908   0.208  15.458  0.1417  0.3187 -0.1266
17304TIP3    H173403   2.894   0.114  15.471 -0.1494  0.6352  2.2017
17304TIP3    H273404   2.965   0.213  15.382 -1.4156 -1.6466 -1.5481
17305TIP3   OH273405   4.485   0.792   5.420  0.4566  0.3228 -0.0742
17305TIP3    H173406   4.439   0.871   5.393 -3.5864 -1.4266  0.8425
17305TIP3    H273407   4.499   0.803   5.514  2.0990  0.8653 -0.3580
17306TIP3   OH273408   2.110   2.871  14.742 -0.5002  0.1466  0.0612
17306TIP3    H173409   2.135   2.904  14.655 -0.9403 -1.0695 -0.5406
17306TIP3    H273410   2.161   2.925  14.803 -0.2627  1.0923 -0.9402
17307TIP3   OH273411   3.880   2.365  10.792 -0.3409  0.0821  0.4602
17307TIP3    H173412   3.848   2.331  10.708 -0.5263  0.1253  0.5130
17307TIP3    H273413   3.856   2.457  10.791  0.0926  0.1956  0.3514
17308TIP3   OH273414   3.478   4.217   0.303 -0.1844 -0.2975  0.4286
17308TIP3    H173415   3.553   4.187   0.354 -0.7710  0.0308  1.5161
17308TIP3    H273416   3.402   4.202   0.359 -0.6742  1.6419  0.3690
17309TIP3   OH273417   6.038   4.159  15.022 -0.2077  0.3606  0.1068
17309TIP3    H173418   6.059   4.240  15.068  0.9595  1.6501 -2.4505
17309TIP3    H273419   6.102   4.096  15.055 -0.7556  0.6011  1.7142
17310TIP3   OH273420   4.515   5.142  11.599 -0.2663 -0.1136  0.4600
17310TIP3    H173421   4.497   5.231  11.570  1.0763 -0.2031 -0.7409
17310TIP3    H273422   4.530   5.150  11.693  0.2415  0.9893  0.3008
17311TIP3   OH273423   5.409   3.619   4.129  0.0471  0.1027 -0.0583
17311TIP3    H173424   5.324   3.577   4.140  1.0473 -1.7759  1.0193
17311TIP3    H273425   5.408   3.693   4.191 -1.2331  0.9040 -0.9893
17312TIP3   OH273426   4.933   3.401   4.100  0.2554 -0.7076 -0.2617
17312TIP3    H173427   4.922   3.334   4.167  0.8561  0.5313  1.1242
17312TIP3    H273428   5.026   3.425   4.105  0.1132  0.0175 -0.9295
17313TIP3   OH273429   3.143   0.661  13.717 -0.4849 -0.5146 -0.1186
17313TIP3    H173430   3.222   0.651  13.665 -2.3882  1.1059 -3.6550
17313TIP3    H273431   3.139   0.581  13.770  2.1635 -1.8135 -1.6898
17314TIP3   OH273432   4.431   0.635   5.180 -0.1888  0.1272 -0.0179
17314TIP3    H173433   4.448   0.680   5.263  1.4288  0.0049 -0.2517
17314TIP3    H273434   4.438   0.705   5.114 -0.7958  0.0962 -0.1224
17315TIP3   OH273435   4.961   0.235  13.745 -0.2390 -0.1455 -0.4337
17315TIP3    H173436   4.928   0.303  13.804  2.7634 -0.9395  2.4828
17315TIP3    H273437   5.019   0.282  13.685 -3.6131  0.7296 -3.3779
17316TIP3   OH273438   0.201   2.417   0.359 -0.1788 -0.2057  0.0829
17316TIP3    H173439   0.181   2.329   0.328 -1.4374  0.4316 -0.9862
17316TIP3    H273440   0.130   2.472   0.326  1.6075  1.5980 -1.0191
17317TIP3   OH273441   2.988   1.682  14.275  0.1171 -0.3430  0.8568
17317TIP3    H173442   3.046   1.757  14.291 -0.8612  0.3667  1.1562
17317TIP3    H273443   3.048   1.609  14.257  1.0884  0.9551 -1.6494
17318TIP3   OH273444   1.690   3.562  15.664  0.2808 -0.3604 -0.1115
17318TIP3    H173445   1.708   3.468  15.664 -2.3460 -0.9528  0.4425
17318TIP3    H273446   1.722   3.592  15.749 -0.6917 -1.2311  0.6029
17319TIP3   OH273447   6.399   2.339  12.575 -0.1916  0.3166  0.0057
17319TIP3    H173448   6.480   2.295  12.549 -0.0897  1.0029 -0.9244
17319TIP3    H273449   6.370   2.294  12.654  0.8053 -0.2928  0.0313
17320TIP3   OH273450   3.557   3.191   1.588 -0.0787  0.6060  0.8021
17320TIP3    H173451   3.599   3.110   1.561 -0.1272  0.1173  2.1239
17320TIP3    H273452   3.629   3.245   1.622  0.0140  1.2916 -0.4404
17321TIP3   OH273453   5.529   4.323  11.534  0.1304  0.3197 -0.4750
17321TIP3    H173454   5.569   4.260  11.475 -1.7568 -0.3159 -1.1661
17321TIP3    H273455   5.590   4.397  11.536  2.6081 -1.6436  0.7187
17322TIP3   OH273456   0.746   3.326  11.520  0.2358 -0.1277  0.4854
17322TIP3    H173457   0.692   3.249  11.504  1.7150 -1.1893  0.4014
17322TIP3    H273458   0.821   3.315  11.462  0.1077  1.7984 -0.1228
17323TIP3   OH273459   4.941   3.162   4.248  0.2579 -0.2740 -0.3228
17323TIP3    H173460   4.971   3.220   4.318  2.9421 -1.2421 -0.5995
17323TIP3    H273461   4.885   3.098   4.292  0.5456  0.1160  0.6360
17324TIP3   OH273462   3.890   0.138   4.008 -0.6590 -0.1536 -0.0942
17324TIP3    H173463   3.849   0.219   4.038 -0.6674 -1.0498  2.5340
17324TIP3    H273464   3.831   0.105   3.940 -1.9714  0.7815  0.5535
17325TIP3   OH273465   2.732   6.417   3.490 -0.6247  0.4746  0.1101
17325TIP3    H173466   2.704   6.433   3.400  1.1293 -2.2726 -1.0600
17325TIP3    H273467   2.655   6.377   3.531 -1.3737  1.5475 -0.2154
17326TIP3   OH273468   3.203   1.030  10.730 -0.2285  0.1737 -0.4612
17326TIP3    H173469   3.153   1.083  10.668 -0.2164  2.3285  1.2746
17326TIP3    H273470   3.292   1.027  10.694 -0.4957  0.3584 -1.1432
17327TIP3   OH273471   6.315   5.427  16.660  0.4094  0.4354 -0.1284
17327TIP3    H173472   6.271   5.492  16.605 -1.0598  0.3484  0.8961
17327TIP3    H273473   6.385   5.476  16.704 -0.8251  1.4137  0.8123
17328TIP3   OH273474   0.840   1.361   1.378  0.1456  0.0574  0.1553
17328TIP3    H173475   0.931   1.335   1.397  0.5537 -0.0083 -1.6830
17328TIP3    H273476   0.843   1.392   1.288 -1.1857  2.5722  0.9079
17329TIP3   OH273477   0.845   6.078   4.533 -0.6451  0.1460 -0.2528
17329TIP3    H173478   0.854   6.162   4.579 -0.5476 -0.3584  0.6792
17329TIP3    H273479   0.935   6.055   4.507 -0.5910  0.0609  0.0017
17330TIP3   OH273480   5.901   0.846  11.743  0.1682  0.6909  0.3585
17330TIP3    H173481   5.943   0.822  11.825  1.4537 -0.6996 -0.6550
17330TIP3    H273482   5.807   0.842  11.762  0.3952 -1.4175  1.3077
17331TIP3   OH273483   5.740   3.977   0.326 -0.1763  0.1425 -0.3690
17331TIP3    H173484   5.728   4.026   0.407  1.7003 -0.1833  0.1588
17331TIP3    H273485   5.666   4.003   0.271 -1.9771 -0.2909  1.7280
17332TIP3   OH273486   5.907   5.246  11.963  0.0001  0.1774  0.2476
17332TIP3    H173487   5.887   5.194  11.886  1.0334  0.8456 -0.5040
17332TIP3    H273488   5.825   5.251  12.012 -0.4669 -0.9160 -0.3962
17333TIP3   OH273489   4.560   3.343  13.024 -0.7298  0.0573  0.0970
17333TIP3    H173490   4.492   3.370  12.963  0.5693  1.1299 -0.9147
17333TIP3    H273491   4.599   3.425  13.055 -0.4715 -0.5109  1.3520
17334TIP3   OH273492   4.263   6.042  15.310 -0.1284  0.9929 -0.1096
17334TIP3    H173493   4.282   5.973  15.246  1.6765  2.7366 -1.5535
17334TIP3    H273494   4.310   6.119  15.278 -1.1347  2.6158  2.0588
17335TIP3   OH273495   2.359   4.833   0.047  0.0859  0.4775  0.3568
17335TIP3    H173496   2.435   4.857   0.100 -0.1109  0.0127  0.8533
17335TIP3    H273497   2.336   4.913  -0.000  1.9572  0.1961 -1.1609
17336TIP3   OH273498   4.750   0.220  17.004 -0.0961  0.2436 -0.0461
17336TIP3    H173499   4.786   0.291  17.057  0.5417  1.0447 -1.5128
17336TIP3    H273500   4.809   0.214  16.929 -1.3209 -0.4577 -0.9783
17337TIP3   OH273501   3.909   0.624   0.895 -0.0461  0.1754  0.3605
17337TIP3    H173502   3.849   0.688   0.856  0.0713  0.2567  0.3150
17337TIP3    H273503   3.985   0.624   0.838  1.0949  1.9130  1.7716
17338TIP3   OH273504   3.818   0.322   1.491  0.5861 -0.1060 -0.0078
17338TIP3    H173505   3.732   0.355   1.464  0.8260  2.5761  2.0368
17338TIP3    H273506   3.879   0.391   1.466  1.9158 -1.1911  0.1259
17339TIP3   OH273507   3.483   5.356   6.639 -0.2502  0.4206  0.0607
17339TIP3    H173508   3.543   5.374   6.712 -1.1937  0.8820  0.7385
17339TIP3    H273509   3.528   5.287   6.589  0.1826 -0.3059  1.3743
17340TIP3   OH273510   1.109   3.609  16.033  0.3010 -0.0662  0.3131
17340TIP3    H173511   1.029   3.575  16.074  0.5697 -1.2159 -0.0850
17340TIP3    H273512   1.099   3.587  15.941  1.4508 -1.0007  0.3886
17341TIP3   OH273513   6.183   6.122  14.123 -0.0219  0.4192 -0.1853
17341TIP3    H173514   6.151   6.032  14.129  0.7172  0.0712 -1.0524
17341TIP3    H273515   6.228   6.137  14.206 -0.3890  0.0874  0.0758
17342TIP3   OH273516   4.794   0.499   4.484 -0.2129  0.6318  0.6244
17342TIP3    H173517   4.859   0.504   4.554  1.0978  1.2184 -0.5852
17342TIP3    H273518   4.710   0.495   4.529  0.5383  1.8462  2.2196
17343TIP3   OH273519   3.134   1.841   6.153 -0.8213  0.2999  0.1385
17343TIP3    H173520   3.051   1.855   6.198 -0.7158 -1.2313  0.8510
17343TIP3    H273521   3.126   1.755   6.112 -0.0424  0.6656 -0.8263
17344TIP3   OH273522   3.822   6.616  13.207  0.2794  0.1798  0.4201
17344TIP3    H173523   3.834   6.648  13.296 -1.2519 -1.2286  1.1957
17344TIP3    H273524   3.750   6.669  13.172  1.9454  1.8670 -0.6415
17345TIP3   OH273525   0.121   4.377   0.745 -0.0234  0.6375 -0.3850
17345TIP3    H173526   0.032   4.412   0.742 -0.0505  0.5217 -0.9111
17345TIP3    H273527   0.134   4.352   0.837 -0.8042 -0.0609 -0.4633
17346TIP3   OH273528   0.959   6.044   5.262  0.3094 -0.2619  0.0143
17346TIP3    H173529   0.899   5.976   5.294 -1.6896  1.9632  1.3789
17346TIP3    H273530   1.042   5.999   5.249 -1.8035 -3.8379 -3.0833
17347TIP3   OH273531   4.932   2.135  15.000 -0.3336  0.6394 -0.5784
17347TIP3    H173532   4.917   2.212  15.056  1.4417  0.8842 -0.3953
17347TIP3    H273533   4.877   2.151  14.923 -0.5436  1.7452 -0.2221
17348TIP3   OH273534   5.833   0.333  13.755 -0.2641 -0.0051  0.2608
17348TIP3    H173535   5.829   0.429  13.756  0.2570  0.0410 -0.5748
17348TIP3    H273536   5.751   0.306  13.713 -0.2831  0.0906  0.2356
17349TIP3   OH273537   1.683   1.235  11.015 -0.3027  0.1722  0.3741
17349TIP3    H173538   1.600   1.187  11.014 -2.0746  2.7857  3.2636
17349TIP3    H273539   1.749   1.169  10.991 -2.8753 -2.7139  0.5584
17350TIP3   OH273540   5.191   2.560  12.195 -0.3415  0.6791  0.2496
17350TIP3    H173541   5.195   2.468  12.170  0.5137  0.5354  0.8691
17350TIP3    H273542   5.125   2.563  12.264 -1.2061  0.7333 -0.5625
17351TIP3   OH273543   6.208   2.528   0.574  0.5652 -0.3317  0.5497
17351TIP3    H173544   6.221   2.434   0.585 -0.8659 -0.7306 -0.7361
17351TIP3    H273545   6.155   2.536   0.494 -0.7408  1.4612  1.5106
17352TIP3   OH273546   4.771   6.244  11.666 -0.7629  0.0684 -0.0680
17352TIP3    H173547   4.712   6.307  11.624 -0.1663 -0.3330 -1.5306
17352TIP3    H273548   4.851   6.293  11.682 -1.1250  0.3394  1.0452
17353TIP3   OH273549   5.849   6.792   2.226  0.9426  0.3201  0.2509
17353TIP3    H173550   5.893   6.774   2.143 -0.7781  1.3725 -0.9758
17353TIP3    H273551   5.891   6.871   2.259  1.4327  0.0703  0.2350
17354TIP3   OH273552   5.623   6.791  16.793  0.4985  0.5761 -0.9393
17354TIP3    H173553   5.665   6.760  16.873  1.6652 -1.2727 -2.1975
17354TIP3    H273554   5.557   6.726  16.773 -0.6213  1.6545 -0.8792
17355TIP3   OH273555   2.533   2.925  16.164 -0.3893  0.1275 -0.0472
17355TIP3    H173556   2.610   2.928  16.108 -0.4749 -0.0422 -0.1730
17355TIP3    H273557   2.500   2.835  16.156 -0.0790 -0.0645  0.7012
17356TIP3   OH273558   5.716   0.297   2.339 -0.7292 -0.8079  0.0938
17356TIP3    H173559   5.705   0.347   2.420  1.7489 -0.0790  0.0777
17356TIP3    H273560   5.764   0.357   2.281  2.0084 -2.9627 -0.0850
17357TIP3   OH273561   6.755   3.233  11.012 -0.0904  0.6663 -0.2016
17357TIP3    H173562   6.802   3.287  10.949 -1.1254 -0.7451 -2.3183
17357TIP3    H273563   6.663   3.260  11.003 -0.4957 -0.7525 -0.6385
17358TIP3   OH273564   5.743   3.378   4.396 -0.1146 -0.2883  0.2957
17358TIP3    H173565   5.673   3.344   4.340 -0.7348 -0.2051  0.9957
17358TIP3    H273566   5.739   3.473   4.385 -0.3758 -0.2574  0.6281
17359TIP3   OH273567   3.211   5.885   1.875 -0.3981  0.2295 -0.6696
17359TIP3    H173568   3.203   5.819   1.944 -1.2685  0.0598 -0.9202
17359TIP3    H273569   3.296   5.926   1.891 -0.3534 -0.1664  0.1835
17360TIP3   OH273570   1.763   0.162   4.830  0.9711 -0.3920  0.2996
17360TIP3    H173571   1.794   0.120   4.750  0.3466 -2.6856  1.2062
17360TIP3    H273572   1.823   0.133   4.898 -0.8506 -1.8408  1.3727
17361TIP3   OH273573   6.458   4.124   0.439 -0.7514 -0.1108 -0.3851
17361TIP3    H173574   6.447   4.116   0.533 -0.6688 -0.7781 -0.4277
17361TIP3    H273575   6.518   4.053   0.415  1.2568  1.5490 -0.5862
17362TIP3   OH273576   2.762   5.589  12.408 -0.0957 -0.4597 -0.1332
17362TIP3    H173577   2.718   5.669  12.435  1.1248  0.3327 -0.4178
17362TIP3    H273578   2.702   5.548  12.346 -0.7231  0.2338  0.0116
17363TIP3   OH273579   5.730   0.005  14.923 -0.1326 -0.1939 -0.0333
17363TIP3    H173580   5.684  -0.068  14.883 -0.8507  0.2137  0.0387
17363TIP3    H273581   5.806  -0.035  14.965  0.4553 -0.6707 -1.4917
17364TIP3   OH273582   1.599   1.861  12.229 -0.4793 -0.0055  0.0351
17364TIP3    H173583   1.666   1.924  12.201 -0.9599  0.6048  0.2457
17364TIP3    H273584   1.521   1.914  12.246 -1.7176 -0.9180 -2.3135
17365TIP3   OH273585   2.630   3.891  17.036  0.3908 -0.2805 -0.3669
17365TIP3    H173586   2.626   3.978  17.076  1.3211 -0.2958 -0.2066
17365TIP3    H273587   2.714   3.891  16.990 -0.0844 -0.7240 -1.2541
17366TIP3   OH273588   5.138   0.504   3.251 -0.2868  0.3845  0.4542
17366TIP3    H173589   5.166   0.459   3.331  0.8717 -1.1739 -0.7857
17366TIP3    H273590   5.160   0.596   3.267  0.7794 -0.0306  1.5761
17367TIP3   OH273591   3.863   1.500   0.305  0.2437 -0.1920  0.0967
17367TIP3    H173592   3.802   1.470   0.238  0.8142 -1.4546  0.1082
17367TIP3    H273593   3.942   1.448   0.290  0.4539 -0.3609  1.6078
17368TIP3   OH273594   5.700   6.166  11.870 -0.9625  0.1996  0.4365
17368TIP3    H173595   5.711   6.181  11.777 -1.4896  2.2635  0.6664
17368TIP3    H273596   5.721   6.073  11.882 -1.0657 -0.1516 -1.7361
17369TIP3   OH273597   1.968   3.567  14.553 -0.2843  0.2111  0.3734
17369TIP3    H173598   2.048   3.618  14.536 -0.8613  0.9224 -0.3397
17369TIP3    H273599   1.897   3.632  14.547 -1.0777 -0.7307 -0.9301
17370TIP3   OH273600   0.416   6.491  12.269  0.4920 -0.4043  0.8888
17370TIP3    H173601   0.384   6.575  12.301  0.6460  0.3530 -0.7960
17370TIP3    H273602   0.498   6.477  12.315  0.1590  0.0590  1.6379
17371TIP3   OH273603   6.129   3.507   4.209 -0.3861  0.2606 -0.1990
17371TIP3    H173604   6.173   3.476   4.289  0.0479 -1.1765 -0.9597
17371TIP3    H273605   6.045   3.462   4.210 -0.8278  1.0786 -0.0173
17372TIP3   OH273606   1.632   5.519   5.863  0.1454  0.3700 -0.1318
17372TIP3    H173607   1.560   5.471   5.902 -0.5544  2.1647  0.9068
17372TIP3    H273608   1.590   5.584   5.807  1.0454  0.1552 -1.0950
17373TIP3   OH273609   1.272   4.421  13.490  0.0711 -0.0316  0.3146
17373TIP3    H173610   1.312   4.489  13.436 -0.9857  0.3473 -0.0125
17373TIP3    H273611   1.227   4.468  13.560  1.2386 -0.5091  1.4265
17374TIP3   OH273612   3.358   1.532   0.576  0.3643 -0.3674 -0.2606
17374TIP3    H173613   3.309   1.560   0.499 -1.1142  0.9093  1.0633
17374TIP3    H273614   3.305   1.461   0.613  0.6036 -0.3744  0.0708
17375TIP3   OH273615   6.146   3.562  14.009  0.3557 -0.2582  0.6543
17375TIP3    H173616   6.107   3.507  13.941 -1.1751 -0.4140  1.6118
17375TIP3    H273617   6.150   3.649  13.970 -2.2912  0.0799  0.9414
17376TIP3   OH273618   2.547   5.090  14.605 -0.0728 -0.3039 -0.0663
17376TIP3    H173619   2.541   5.186  14.606 -0.2353 -0.3224  0.8181
17376TIP3    H273620   2.634   5.071  14.640  0.4454 -0.4559 -1.3633
17377TIP3   OH273621   1.341   5.023  14.242 -0.4383  0.1187  0.3622
17377TIP3    H173622   1.410   4.981  14.294  0.1056 -0.1278 -0.5493
17377TIP3    H273623   1.318   4.957  14.176 -0.9200  0.5446  0.1037
17378TIP3   OH273624   3.861   3.981   1.223 -0.0787  0.2990  0.0816
17378TIP3    H173625   3.792   3.970   1.289 -0.5536 -1.7347 -0.7011
17378TIP3    H273626   3.866   3.897   1.179  2.5394  0.5882 -0.2898
17379TIP3   OH273627   3.461   0.556  14.163  0.0156 -0.2937  0.3373
17379TIP3    H173628   3.482   0.620  14.231 -0.9787 -0.3889  0.7525
17379TIP3    H273629   3.372   0.579  14.136  0.1075 -0.7508 -0.3784
17380TIP3   OH273630   0.793   5.635   6.506 -0.0631  0.6415  0.1430
17380TIP3    H173631   0.850   5.635   6.430  0.8958  0.8218  0.8456
17380TIP3    H273632   0.852   5.635   6.581 -0.9843  0.0880  0.8960
17381TIP3   OH273633   2.784   0.827   2.389  0.1813  0.1098 -0.1996
17381TIP3    H173634   2.876   0.802   2.401  0.4109  0.6768 -0.7373
17381TIP3    H273635   2.765   0.883   2.465  0.0225 -0.6882  0.3624
17382TIP3   OH273636   5.790   0.180   5.342 -0.1538 -0.1324 -0.1561
17382TIP3    H173637   5.802   0.274   5.329 -0.4908  0.1770  1.5272
17382TIP3    H273638   5.727   0.155   5.275  0.5402  0.6827 -1.1371
17383TIP3   OH273639   0.256   4.069   4.262  0.0516 -0.3066  0.3729
17383TIP3    H173640   0.200   4.125   4.314  0.8135  0.0360  0.8412
17383TIP3    H273641   0.311   4.024   4.326 -0.0639 -1.0613 -0.0406
17384TIP3   OH273642   5.866   4.676  13.425 -0.4424 -0.1082  0.1880
17384TIP3    H173643   5.789   4.708  13.379  1.4399  0.4783 -2.7738
17384TIP3    H273644   5.928   4.749  13.425  1.0692 -1.3227  0.1673
17385TIP3   OH273645   6.740   2.491   0.604 -0.2092 -1.2109  0.5229
17385TIP3    H173646   6.648   2.466   0.592  0.0043 -1.4179 -0.9709
17385TIP3    H273647   6.750   2.571   0.553  0.8230 -2.1452 -0.8167
17386TIP3   OH273648   5.177   6.767  12.986 -0.1125  0.5310 -0.4181
17386TIP3    H173649   5.090   6.789  13.020  0.0223  0.9505 -0.3426
17386TIP3    H273650   5.165   6.683  12.942  0.2771 -1.4881  3.0146
17387TIP3   OH273651   3.340   2.650  11.359  0.5519 -0.0940  0.3890
17387TIP3    H173652   3.249   2.620  11.361 -0.4212  2.6643  1.8652
17387TIP3    H273653   3.349   2.695  11.275  0.0926  0.8443  0.8310
17388TIP3   OH273654   2.536   4.858   5.551  0.4135 -0.3752  0.1034
17388TIP3    H173655   2.559   4.831   5.462 -0.6199 -1.8840  0.2577
17388TIP3    H273656   2.568   4.786   5.606 -2.1300 -1.2451  0.5685
17389TIP3   OH273657   5.904   0.554   2.788  0.3647  0.2845 -0.5373
17389TIP3    H173658   5.973   0.487   2.789  0.4880  0.3998  1.1420
17389TIP3    H273659   5.948   0.634   2.815 -0.8565 -0.2075  3.5256
17390TIP3   OH273660   0.286   6.227   1.341 -0.4726  0.1997  0.1749
17390TIP3    H173661   0.335   6.294   1.389  0.2615 -0.9051  1.0235
17390TIP3    H273662   0.289   6.255   1.250  1.7454  0.1924  0.1926
17391TIP3   OH273663   1.755   0.618   0.248 -0.4907  0.3705  0.0357
17391TIP3    H173664   1.787   0.583   0.331  0.1214 -0.9344 -0.7259
17391TIP3    H273665   1.797   0.703   0.240  0.9029 -0.2800  0.2035
17392TIP3   OH273666   6.307   0.138  13.647  0.2403  0.1049 -0.1405
17392TIP3    H173667   6.307   0.174  13.558  0.9434  1.4039  0.3508
17392TIP3    H273668   6.271   0.209  13.701  0.0433 -0.5792  0.6407
17393TIP3   OH273669   4.747   0.939   2.557  0.3037  0.2963  0.4980
17393TIP3    H173670   4.754   0.966   2.649  0.0575  1.6884  0.1276
17393TIP3    H273671   4.661   0.972   2.529  0.3950 -0.0773 -0.2444
17394TIP3   OH273672   6.832   5.574  15.320 -0.4754  0.3663  0.1272
17394TIP3    H173673   6.858   5.639  15.385 -0.4371  0.5687 -0.0882
17394TIP3    H273674   6.737   5.567  15.330 -0.5046  0.5943  0.0277
17395TIP3   OH273675   2.721   2.349  14.560 -0.3521  0.3666 -0.2914
17395TIP3    H173676   2.782   2.377  14.627  0.0268 -0.5099 -0.2513
17395TIP3    H273677   2.774   2.295  14.501 -0.5684  1.4731 -1.5527
17396TIP3   OH273678   1.563   5.945   5.884 -0.4265  0.0641  0.3375
17396TIP3    H173679   1.489   6.004   5.899 -0.4287  1.1285 -3.0180
17396TIP3    H273680   1.638   6.003   5.875  0.4172 -0.8353  1.3280
17397TIP3   OH273681   0.827   1.713   5.879  0.0079 -0.7344  0.4368
17397TIP3    H173682   0.811   1.619   5.889 -2.3895 -0.4039  0.2923
17397TIP3    H273683   0.841   1.725   5.785 -0.0267 -0.9149  0.4083
17398TIP3   OH273684   1.260   2.812   3.453  0.4438  0.3559 -0.2013
17398TIP3    H173685   1.168   2.818   3.478  0.3877  0.2819 -0.3934
17398TIP3    H273686   1.281   2.898   3.417  0.1599  0.0287 -1.1568
17399TIP3   OH273687   6.102   3.220   5.936  0.7633 -0.4549  0.3485
17399TIP3    H173688   6.033   3.286   5.941  1.8901  0.6801  1.5157
17399TIP3    H273689   6.083   3.172   5.856 -0.2597  1.0914 -0.3851
17400TIP3   OH273690   6.222   3.555  10.953 -0.0330 -0.2264  0.0153
17400TIP3    H173691   6.243   3.464  10.973  2.5754  0.0595 -1.0686
17400TIP3    H273692   6.269   3.574  10.872 -1.6730  1.7073 -0.5865
17401TIP3   OH273693   1.043   6.476  12.747 -0.4461  0.2671 -0.3100
17401TIP3    H173694   1.002   6.563  12.749 -1.2799 -0.1192  0.1438
17401TIP3    H273695   1.120   6.484  12.803  0.4650  1.1711 -1.6415
17402TIP3   OH273696   0.233   5.554   2.530  0.0848 -0.2198 -0.1337
17402TIP3    H173697   0.167   5.583   2.467 -0.1792  0.3157  0.3791
17402TIP3    H273698   0.309   5.530   2.477  0.0401  0.6926 -0.6265
17403TIP3   OH273699   2.040   1.741   2.270  0.2084 -0.0878 -0.1374
17403TIP3    H173700   2.079   1.661   2.307  2.4037  1.1918  0.4445
17403TIP3    H273701   1.985   1.775   2.341  0.9486  0.0399  0.3812
17404TIP3   OH273702   3.615   2.414  11.798 -0.1835  0.8204 -0.1782
17404TIP3    H173703   3.520   2.402  11.789  0.0660 -0.2529 -1.6966
17404TIP3    H273704   3.644   2.445  11.713  0.5918  3.3152  0.8994
17405TIP3   OH273705   1.149   5.434   2.054 -0.4105 -0.0582 -0.3727
17405TIP3    H173706   1.135   5.430   1.960 -0.4743 -0.4284 -0.3501
17405TIP3    H273707   1.093   5.364   2.090 -0.6439  0.3024 -0.0312
17406TIP3   OH273708   4.820   2.479  16.854  0.0071 -0.3698 -0.5193
17406TIP3    H173709   4.818   2.434  16.769 -0.3558 -1.2474 -0.0518
17406TIP3    H273710   4.910   2.471  16.883 -0.0544 -0.7885 -0.4410
17407TIP3   OH273711   1.156   2.716  12.750  0.3314  0.0320  0.5376
17407TIP3    H173712   1.150   2.788  12.814  1.5341  0.3354  0.3330
17407TIP3    H273713   1.078   2.663  12.767 -1.2546  2.0053 -0.1040
17408TIP3   OH273714   3.839   0.554  12.492 -0.1290 -0.0652 -0.2297
17408TIP3    H173715   3.745   0.551  12.513 -1.1287 -0.1164 -3.9992
17408TIP3    H273716   3.858   0.648  12.485  0.3999 -0.0209  1.3916
17409TIP3   OH273717   5.461   5.383   2.581  0.2411  0.3122  0.1971
17409TIP3    H173718   5.474   5.303   2.631 -1.5873  0.0317  0.3072
17409TIP3    H273719   5.481   5.454   2.642 -0.2647 -0.0495  0.8004
17410TIP3   OH273720   0.348   4.404   0.147  0.1213  0.2578 -0.1851
17410TIP3    H173721   0.297   4.440   0.074 -0.5273 -0.2821 -0.0109
17410TIP3    H273722   0.326   4.460   0.221 -0.5477 -0.2220 -0.0149
17411TIP3   OH273723   3.808   1.461   3.289  0.1140  0.5430  0.3988
17411TIP3    H173724   3.837   1.387   3.235  0.5656  0.6408  0.5063
17411TIP3    H273725   3.714   1.468   3.271  0.2431  0.5314 -0.3276
17412TIP3   OH273726   1.870   2.726  14.842 -0.1521  0.5629  0.4987
17412TIP3    H173727   1.842   2.741  14.932  0.2029  0.7722  0.5767
17412TIP3    H273728   1.942   2.787  14.829  0.3377 -0.0450  0.3309
17413TIP3   OH273729   0.801   2.912  16.173  0.0712 -0.1484  0.1727
17413TIP3    H173730   0.891   2.909  16.140  0.7152  0.4030  1.8233
17413TIP3    H273731   0.757   2.975  16.115 -0.0201 -2.2936 -2.3075
17414TIP3   OH273732   2.150   1.311  14.887  0.4094 -0.2409 -0.0861
17414TIP3    H173733   2.137   1.220  14.914  1.1682 -0.7073 -1.2060
17414TIP3    H273734   2.141   1.308  14.792  0.9829  0.7597 -0.1778
17415TIP3   OH273735   1.337   0.232   1.008 -0.3569  0.4072 -0.2886
17415TIP3    H173736   1.310   0.324   1.003 -0.2481  0.5007  0.6023
17415TIP3    H273737   1.430   0.232   0.988  0.0322  0.7373  1.3680
17416TIP3   OH273738   6.613   5.277   3.243 -0.5320  0.7379  0.2679
17416TIP3    H173739   6.652   5.265   3.329  0.1086 -0.0015 -0.1076
17416TIP3    H273740   6.577   5.191   3.221 -1.5367  1.1645  0.1974
17417TIP3   OH273741   1.148   1.220   1.459 -0.0743 -0.5221  0.2861
17417TIP3    H173742   1.150   1.152   1.391 -2.1538  0.6409 -1.0540
17417TIP3    H273743   1.070   1.199   1.511  2.0099 -1.9670  3.0893
17418TIP3   OH273744   0.747   0.469  10.611  0.8354 -0.4400 -0.0992
17418TIP3    H173745   0.655   0.477  10.639  0.7807  1.1571 -0.6226
17418TIP3    H273746   0.742   0.454  10.517  1.0519  3.8510 -0.9885
17419TIP3   OH273747   1.100   5.269   3.901 -0.1569 -0.1133 -0.0590
17419TIP3    H173748   1.155   5.281   3.978 -1.7592  2.2787  0.7936
17419TIP3    H273749   1.149   5.312   3.830  0.4980 -0.7695 -0.0184
17420TIP3   OH273750   1.934   3.896   1.220  0.2884 -0.4821 -0.0331
17420TIP3    H173751   1.993   3.850   1.160  0.2722  1.4220 -1.6077
17420TIP3    H273752   1.848   3.890   1.178  0.3785  1.3795 -0.6056
17421TIP3   OH273753   2.704   3.224   0.483  0.3448  0.3443  0.4793
17421TIP3    H173754   2.767   3.262   0.545 -0.1709 -1.2175  2.0041
17421TIP3    H273755   2.647   3.297   0.460  0.1176  0.8101  2.3955
17422TIP3   OH273756   4.154   4.902   0.193 -0.0971  0.1980  1.6397
17422TIP3    H173757   4.180   4.987   0.228 -1.0255  1.3560 -0.3209
17422TIP3    H273758   4.105   4.860   0.264  2.4665  0.1808  3.5187
17423TIP3   OH273759   5.296   6.830   1.842 -0.2555 -0.0923  0.5878
17423TIP3    H173760   5.367   6.831   1.778 -1.2173  1.2189 -0.5037
17423TIP3    H273761   5.324   6.766   1.908  1.7980  0.2004  0.0567
17424TIP3   OH273762   5.691   0.949  12.688 -0.0201 -0.0820  0.3415
17424TIP3    H173763   5.781   0.971  12.664 -0.3583  1.3523  0.3084
17424TIP3    H273764   5.669   0.873  12.633  1.8927 -1.9461  1.9493
17425TIP3   OH273765   1.308   5.129   4.608 -0.3487  0.4032 -0.2859
17425TIP3    H173766   1.262   5.205   4.573  0.4836  1.1164  0.1241
17425TIP3    H273767   1.302   5.139   4.703  0.6001  0.4886 -0.2237
17426TIP3   OH273768   0.619   5.680  15.957  0.4557  0.1408  0.0428
17426TIP3    H173769   0.586   5.647  15.874 -0.1869  0.4887  0.1520
17426TIP3    H273770   0.542   5.720  15.999  0.9318  0.6076  0.4799
17427TIP3   OH273771   5.850   4.099   5.532  0.2925  0.0133  0.0056
17427TIP3    H173772   5.861   4.178   5.585  0.1394 -0.5773  0.9647
17427TIP3    H273773   5.821   4.033   5.595 -3.4898  0.1384 -1.4061
17428TIP3   OH273774   3.091   5.940  16.740 -0.1637  0.6338  0.0268
17428TIP3    H173775   3.071   6.010  16.679  0.2801  0.9538  0.2424
17428TIP3    H273776   3.172   5.968  16.783 -0.4712  0.4170  0.7620
17429TIP3   OH273777   4.666   1.995  14.531 -0.0199 -0.1199 -0.5979
17429TIP3    H173778   4.679   2.079  14.489 -1.7932  0.6056  0.2066
17429TIP3    H273779   4.734   1.991  14.599  0.4236  0.3850 -1.0064
17430TIP3   OH273780   1.856   1.516   5.575 -0.6239 -0.0156 -0.1850
17430TIP3    H173781   1.845   1.523   5.480 -1.2607  0.7825 -0.0624
17430TIP3    H273782   1.826   1.427   5.596  0.6045 -0.6238 -0.8575
17431TIP3   OH273783   4.932   2.990  13.525 -0.1878  0.0987  0.2217
17431TIP3    H173784   4.863   2.976  13.460  1.4082 -0.8829 -1.3713
17431TIP3    H273785   4.913   3.075  13.563 -2.2828 -0.1640 -0.1124
17432TIP3   OH273786   2.143   6.615   4.007  0.1040 -0.6396  0.3681
17432TIP3    H173787   2.168   6.601   4.098 -0.0763 -0.1586  0.4952
17432TIP3    H273788   2.182   6.699   3.984  1.2730 -1.3754 -0.4181
17433TIP3   OH273789   1.756   5.936  11.294 -0.2522  0.8898  0.1945
17433TIP3    H173790   1.846   5.948  11.322 -0.2701 -0.1936  0.7575
17433TIP3    H273791   1.762   5.906  11.203 -0.0117  0.2103  0.4306
17434TIP3   OH273792   2.628   0.375   3.201  0.4018  0.0301 -0.1640
17434TIP3    H173793   2.713   0.344   3.235  0.2216 -0.9636 -0.5745
17434TIP3    H273794   2.619   0.331   3.117 -0.2723  0.5744 -0.3847
17435TIP3   OH273795   6.388   1.952   1.537  0.1754 -0.1503 -0.3505
17435TIP3    H173796   6.474   1.926   1.504  0.0603  0.3098 -1.0208
17435TIP3    H273797   6.399   2.044   1.561 -0.4666  0.2917 -1.6542
17436TIP3   OH273798   3.233   2.512  15.393  0.4850 -0.3842  0.1672
17436TIP3    H173799   3.243   2.538  15.484  1.9872 -0.0967 -0.0456
17436TIP3    H273800   3.321   2.486  15.365  0.5459  1.6555 -1.8222
17437TIP3   OH273801   3.483   0.128   1.980 -0.2724 -0.4617 -0.6368
17437TIP3    H173802   3.545   0.201   1.981 -0.8224  0.0183  1.1165
17437TIP3    H273803   3.400   0.166   2.005 -0.0984 -2.0017  2.8910
17438TIP3   OH273804   6.569   5.988   1.380  0.1610  0.0240 -0.1514
17438TIP3    H173805   6.646   5.932   1.381  0.7698  0.6985 -2.7888
17438TIP3    H273806   6.591   6.061   1.438  1.6525  0.3442 -1.0772
17439TIP3   OH273807   5.467   3.165   4.851  0.2092 -0.0534 -0.2068
17439TIP3    H173808   5.530   3.215   4.800  0.8616  0.4067  1.0110
17439TIP3    H273809   5.382   3.191   4.815  0.6781 -0.8066 -1.9709
17440TIP3   OH273810   0.397   0.257   4.455  0.6996  0.2904  0.3597
17440TIP3    H173811   0.323   0.300   4.498  0.4335 -0.0984  0.2989
17440TIP3    H273812   0.366   0.239   4.366  0.4690 -0.8676  0.6628
17441TIP3   OH273813   4.116   3.915  13.830 -0.3156  0.0817 -0.1521
17441TIP3    H173814   4.085   3.877  13.912  0.4039  0.1995  0.1794
17441TIP3    H273815   4.208   3.936  13.846 -0.0627 -0.2419 -1.1178
17442TIP3   OH273816   0.855   0.414   2.440  0.0090  0.1397  0.1086
17442TIP3    H173817   0.816   0.327   2.443  0.1004  0.0023 -1.8351
17442TIP3    H273818   0.926   0.411   2.504 -0.5926 -0.8906  0.7496
17443TIP3   OH273819   5.683   2.426  16.936 -0.3025  0.0267 -0.3735
17443TIP3    H173820   5.616   2.426  16.868  0.4508  1.5949 -1.1859
17443TIP3    H273821   5.668   2.346  16.985 -0.9283 -1.1225 -2.3339
17444TIP3   OH273822   4.885   2.127  14.102  0.0720 -0.2766 -0.2514
17444TIP3    H173823   4.851   2.106  14.015  0.7951  1.7847 -1.1075
17444TIP3    H273824   4.980   2.125  14.092  0.1590  0.8650  0.2237
17445TIP3   OH273825   3.575   4.079  15.275 -0.0128 -0.8984 -0.2463
17445TIP3    H173826   3.670   4.076  15.272  0.0572 -1.3617  1.4474
17445TIP3    H273827   3.550   4.137  15.203  1.6131  0.4763  0.2425
17446TIP3   OH273828   3.656   4.870   2.632  0.5094 -0.9343 -0.5740
17446TIP3    H173829   3.693   4.785   2.609  2.0755 -0.0929 -1.3538
17446TIP3    H273830   3.730   4.920   2.666 -0.7002 -0.3683  1.3542
17447TIP3   OH273831   6.182   4.854   0.157  0.8395 -0.3516  0.0723
17447TIP3    H173832   6.258   4.912   0.152  0.7108 -0.1599  0.3117
17447TIP3    H273833   6.107   4.913   0.159  0.5346 -0.5532 -2.3314
17448TIP3   OH273834   6.464   0.828   5.664 -0.0695  0.0270  0.5926
17448TIP3    H173835   6.383   0.786   5.692  0.9340  0.0372  4.0044
17448TIP3    H273836   6.529   0.758   5.667  0.5601  0.6134  0.7685
17449TIP3   OH273837   2.624   6.142  15.477 -0.3290  0.0164 -0.5884
17449TIP3    H173838   2.622   6.174  15.387 -0.7242 -1.0866 -0.9825
17449TIP3    H273839   2.534   6.150  15.507  0.1310  2.2430  0.4133
17450TIP3   OH273840   5.985   4.365  10.945  0.0206  0.1723  0.5262
17450TIP3    H173841   5.917   4.412  10.992 -0.8242 -0.9983  0.5006
17450TIP3    H273842   6.008   4.292  11.002  0.5088 -0.0374  0.0691
17451TIP3   OH273843   2.980   2.593  13.214  0.5283  0.7407  0.0814
17451TIP3    H173844   2.891   2.562  13.194  0.8707 -0.7777  0.8098
17451TIP3    H273845   2.967   2.679  13.254 -0.6358  0.3795  0.5068
17452TIP3   OH273846   1.692   3.831   1.098 -0.0504 -0.1268  0.0175
17452TIP3    H173847   1.675   3.873   1.014 -0.5438  2.0276  1.1220
17452TIP3    H273848   1.607   3.802   1.129  0.1089 -0.7786 -0.1352
17453TIP3   OH273849   3.438   2.305  16.212 -0.1314  0.0825  0.0903
17453TIP3    H173850   3.397   2.357  16.281  0.8718  2.0096 -0.6982
17453TIP3    H273851   3.366   2.283  16.152 -0.3855  1.6562 -0.2159
17454TIP3   OH273852   1.689   6.006  12.247 -0.1617  0.2285 -0.3265
17454TIP3    H173853   1.784   6.017  12.252 -0.1865  0.1244  0.5208
17454TIP3    H273854   1.676   5.944  12.176  0.1083  3.6135 -3.6524
17455TIP3   OH273855   0.838   3.340  15.512 -0.6385 -0.1000  0.2484
17455TIP3    H173856   0.828   3.245  15.504  2.0367 -0.4481 -0.0015
17455TIP3    H273857   0.831   3.356  15.606  0.3112 -0.7723  0.4464
17456TIP3   OH273858   2.327   0.495  11.558  0.2874 -0.3794  0.0605
17456TIP3    H173859   2.310   0.408  11.522 -4.3736 -0.0614  0.9527
17456TIP3    H273860   2.357   0.479  11.647 -1.3441 -1.1532  0.5073
17457TIP3   OH273861   2.113   5.986  17.013  0.1912 -0.6521  0.3145
17457TIP3    H173862   2.042   5.980  17.077 -1.4917  0.7779 -1.2980
17457TIP3    H273863   2.074   5.959  16.930  0.0871  4.0630 -1.5161
17458TIP3   OH273864   2.270   5.421  17.099 -0.0708  0.1360  0.3043
17458TIP3    H173865   2.252   5.513  17.081  1.8378  0.5835  0.5085
17458TIP3    H273866   2.325   5.421  17.178  0.7896 -1.0986 -0.2547
17459TIP3   OH273867   3.591   2.388  12.792  0.2412 -0.3248  0.0134
17459TIP3    H173868   3.629   2.301  12.785  0.6378 -0.0988 -0.8130
17459TIP3    H273869   3.498   2.376  12.773  0.2304 -0.6118  0.2402
17460TIP3   OH273870   2.315   0.944  16.750  0.6071 -0.0557 -0.4953
17460TIP3    H173871   2.360   0.878  16.804  0.1963 -0.3123 -0.4587
17460TIP3    H273872   2.354   1.027  16.776 -0.4249 -0.0283  1.0987
17461TIP3   OH273873   2.951   3.425  11.669  0.1087  0.1304  0.1865
17461TIP3    H173874   2.893   3.482  11.721 -0.1073 -0.9926  1.2105
17461TIP3    H273875   3.030   3.477  11.656  0.0573  0.5495  1.4153
17462TIP3   OH273876   4.293   1.333  10.679  0.1125  0.3116  0.3741
17462TIP3    H173877   4.349   1.311  10.754  0.0345 -0.6529  0.1614
17462TIP3    H273878   4.354   1.359  10.610  0.2281  0.4239  0.5190
17463TIP3   OH273879   4.455   5.598   1.420 -0.6784  0.4901 -0.2026
17463TIP3    H173880   4.366   5.566   1.435 -0.5828  1.1636  2.1600
17463TIP3    H273881   4.510   5.542   1.475  0.6634 -0.9631 -2.8049
17464TIP3   OH273882   6.204   3.184   4.061 -0.0334 -0.3418 -0.0126
17464TIP3    H173883   6.128   3.153   4.111 -0.4386 -0.9523 -0.9786
17464TIP3    H273884   6.271   3.201   4.128 -1.4844  1.7186  1.0372
17465TIP3   OH273885   3.617   3.320  11.783 -0.4203  0.0858 -0.1173
17465TIP3    H173886   3.582   3.391  11.837 -0.2651 -0.2635  0.4460
17465TIP3    H273887   3.678   3.274  11.841  0.6829  0.4512 -0.9613
17466TIP3   OH273888   0.269   3.269   4.617 -0.8073 -0.0408  0.0759
17466TIP3    H173889   0.359   3.284   4.645 -0.8175  0.9511 -0.3866
17466TIP3    H273890   0.266   3.175   4.595 -0.1294 -0.2675  0.9103
17467TIP3   OH273891   5.484   0.597   0.476 -0.0056  0.0527 -0.0262
17467TIP3    H173892   5.450   0.529   0.417 -0.1193  0.3145 -0.2633
17467TIP3    H273893   5.559   0.634   0.430 -0.4301  0.6422 -0.2610
17468TIP3   OH273894   4.568   5.232   1.375 -0.2246  0.0674  0.0096
17468TIP3    H173895   4.649   5.180   1.379 -1.2437 -1.5898 -0.1189
17468TIP3    H273896   4.570   5.271   1.287  0.6676  0.4629  0.1913
17469TIP3   OH273897   5.748   0.740  11.449  0.2932  0.7356 -0.1360
17469TIP3    H173898   5.778   0.830  11.437  0.9247  0.3771 -1.4800
17469TIP3    H273899   5.809   0.687  11.397 -0.3202 -0.4271  0.2853
17470TIP3   OH273900   4.697   1.809   3.599 -0.3842 -0.3875 -0.2464
17470TIP3    H173901   4.791   1.819   3.583 -0.4077 -0.8083 -0.6518
17470TIP3    H273902   4.672   1.888   3.647 -0.0908  0.3467 -1.2917
17471TIP3   OH273903   2.885   2.968  14.417 -0.0583  0.1709  0.2615
17471TIP3    H173904   2.835   3.049  14.432  0.2061 -0.0089  2.3328
17471TIP3    H273905   2.837   2.923  14.348 -1.9152  0.7135  1.1455
17472TIP3   OH273906   0.484   2.779   2.268 -0.2197  0.3672 -0.2942
17472TIP3    H173907   0.427   2.710   2.303  0.4799  0.4484  1.0575
17472TIP3    H273908   0.537   2.734   2.202 -0.6354 -0.1077 -0.3133
17473TIP3   OH273909   0.596   4.455  15.717 -0.6603 -0.6024 -0.1310
17473TIP3    H173910   0.627   4.394  15.650  3.1434 -0.0620  0.8879
17473TIP3    H273911   0.592   4.540  15.672  1.6403 -0.2886  0.1238
17474TIP3   OH273912   2.434   2.335  15.020 -0.3227  0.2119 -0.2820
17474TIP3    H173913   2.470   2.268  14.961  1.4625 -2.1150  3.1262
17474TIP3    H273914   2.361   2.291  15.064  0.7233  0.4912  1.8482
17475TIP3   OH273915   0.731   2.215  15.745 -0.5898 -1.2333 -0.3324
17475TIP3    H173916   0.641   2.237  15.767  0.0147  0.9425  0.1394
17475TIP3    H273917   0.778   2.218  15.828  0.2322 -0.6437 -0.8002
17476TIP3   OH273918   5.724   1.464  15.385 -0.3124  0.2711  0.4097
17476TIP3    H173919   5.796   1.427  15.435  0.5384 -0.5688 -1.3624
17476TIP3    H273920   5.735   1.559  15.393  0.5048  0.1450  0.8326
17477TIP3   OH273921   0.364   4.274  16.378 -0.5022 -0.0230  0.6621
17477TIP3    H173922   0.416   4.226  16.442 -0.1740 -0.9471 -0.2719
17477TIP3    H273923   0.339   4.208  16.313 -3.1540  0.2836  1.2484
17478TIP3   OH273924   0.582   1.728   0.535 -0.1419  0.7194  0.2988
17478TIP3    H173925   0.634   1.780   0.596  0.8245  0.2069 -0.0761
17478TIP3    H273926   0.501   1.778   0.524 -0.8425  0.2755  2.8840
17479TIP3   OH273927   4.641   4.876  16.244 -0.5207  0.1945 -0.0614
17479TIP3    H173928   4.730   4.842  16.240  0.0344  1.6799 -0.8546
17479TIP3    H273929   4.586   4.801  16.222  0.4618 -0.8986  1.0225
17480TIP3   OH273930   1.294   1.423   5.531  0.3900 -0.3778  0.2227
17480TIP3    H173931   1.366   1.377   5.573 -0.3828 -3.4727 -1.5763
17480TIP3    H273932   1.253   1.358   5.473 -1.0758  2.4656 -2.2519
17481TIP3   OH273933   3.752   3.517  11.318 -0.5591 -0.8602 -0.0140
17481TIP3    H173934   3.659   3.541  11.317 -0.7757 -1.6231  0.6117
17481TIP3    H273935   3.787   3.552  11.236 -1.2623 -0.0510  0.0186
17482TIP3   OH273936   1.913   4.265   1.917  0.5419  0.0707  0.2713
17482TIP3    H173937   1.855   4.214   1.973 -1.1064  2.5806  1.0180
17482TIP3    H273938   1.890   4.238   1.828  1.2944 -2.0111  0.6554
17483TIP3   OH273939   6.682   5.330   0.438 -0.2851  0.5625 -0.3435
17483TIP3    H173940   6.757   5.332   0.497  1.9122 -0.2956 -2.9533
17483TIP3    H273941   6.677   5.418   0.402 -2.3346  1.4263  1.7845
17484TIP3   OH273942   2.521   4.206  11.452 -0.6824  0.1894 -0.0529
17484TIP3    H173943   2.556   4.252  11.528  0.3086  0.9788 -0.9577
17484TIP3    H273944   2.466   4.272  11.408 -0.3429  0.0957 -0.6235
17485TIP3   OH273945   5.695   4.098   5.850  0.2035  0.0137 -0.6588
17485TIP3    H173946   5.650   4.171   5.808 -0.5428  0.4024  0.7751
17485TIP3    H273947   5.763   4.139   5.903 -0.3346 -0.3018  0.2953
17486TIP3   OH273948   0.843   6.044  16.627 -0.4855  0.1931 -0.2792
17486TIP3    H173949   0.807   5.997  16.552 -2.2771 -0.2748  0.8140
17486TIP3    H273950   0.918   5.991  16.656 -2.9294 -2.6275  1.4345
17487TIP3   OH273951   0.527   2.672  14.333  0.1921  0.1534 -0.5762
17487TIP3    H173952   0.530   2.595  14.389  0.6579  0.1769 -0.5575
17487TIP3    H273953   0.603   2.662  14.274 -1.0337 -0.5354 -2.1068
17488TIP3   OH273954   6.283   3.645  12.047 -0.7718  0.4253  0.1429
17488TIP3    H173955   6.320   3.561  12.020 -0.3735  0.5393  0.3134
17488TIP3    H273956   6.317   3.708  11.983  0.5191  0.7654  1.1147
17489TIP3   OH273957   6.512   2.753  11.462  0.3484 -0.1606 -0.2358
17489TIP3    H173958   6.445   2.739  11.529  0.5043  1.8676  0.4035
17489TIP3    H273959   6.462   2.773  11.383  0.1868 -1.1046 -0.3853
17490TIP3   OH273960   5.080   5.170  11.790 -0.0505 -0.0293  0.0842
17490TIP3    H173961   5.064   5.261  11.814 -0.3555 -0.4452  1.5372
17490TIP3    H273962   5.075   5.169  11.694  0.0096  1.4826  0.0520
17491TIP3   OH273963   2.652   1.729   6.119 -0.3558  0.2655 -0.1734
17491TIP3    H173964   2.567   1.748   6.159 -0.0286  0.7914  0.2867
17491TIP3    H273965   2.665   1.635   6.133 -0.5933  0.2989  0.2933
17492TIP3   OH273966   0.786   4.443   3.033 -0.6304 -0.7701  0.3922
17492TIP3    H173967   0.871   4.409   3.061 -0.7222 -1.6918 -0.4281
17492TIP3    H273968   0.725   4.412   3.100 -0.6660 -2.0210 -0.1872
17493TIP3   OH273969   6.832   1.595  16.396 -0.4762  0.0226  0.3950
17493TIP3    H173970   6.839   1.682  16.357  0.1288 -0.1676  0.0759
17493TIP3    H273971   6.752   1.558  16.357  1.2419 -1.0138 -2.4477
17494TIP3   OH273972   5.101   6.729  13.461 -0.2408 -0.0734  0.7871
17494TIP3    H173973   5.166   6.659  13.462  0.4704  0.5408 -0.4032
17494TIP3    H273974   5.075   6.737  13.369 -1.5500  0.1201  1.1478
17495TIP3   OH273975   3.335   0.284  17.046 -0.4150  0.2849  0.1441
17495TIP3    H173976   3.324   0.375  17.071 -2.2890  0.0632  0.2917
17495TIP3    H273977   3.401   0.285  16.977 -1.1301  1.8778 -0.5634
17496TIP3   OH273978   3.262   0.877  12.826 -0.6142 -0.3411  0.1646
17496TIP3    H173979   3.218   0.793  12.835 -0.1918 -0.4113  1.9794
17496TIP3    H273980   3.308   0.889  12.909  0.5487  0.9953 -0.6295
17497TIP3   OH273981   5.440   4.228   4.513  0.1068 -0.2786 -0.5289
17497TIP3    H173982   5.441   4.266   4.425  2.6260  2.4725  0.5126
17497TIP3    H273983   5.409   4.299   4.570  4.0418  0.1723  1.4167
17498TIP3   OH273984   3.224   1.903   4.828 -0.0602 -0.7178  0.2897
17498TIP3    H173985   3.237   1.886   4.921  2.6397 -0.3010  0.0631
17498TIP3    H273986   3.283   1.842   4.783 -0.0798  0.2215 -1.0854
17499TIP3   OH273987   0.033   4.129  11.783 -0.3141  0.2748 -0.0962
17499TIP3    H173988   0.074   4.195  11.728 -1.0521  0.3627 -0.5484
17499TIP3    H273989  -0.050   4.109  11.740  0.0415 -1.1958 -0.1585
17500TIP3   OH273990   1.128   3.811   1.671 -0.5471 -0.6100 -0.1216
17500TIP3    H173991   1.195   3.753   1.636  0.4168 -1.1733  2.4788
17500TIP3    H273992   1.119   3.880   1.605  2.4520 -0.6171 -0.6556
17501TIP3   OH273993   3.694   1.825  15.538 -0.1595 -0.1765 -0.2719
17501TIP3    H173994   3.675   1.778  15.619 -0.0206  0.0424 -0.1123
17501TIP3    H273995   3.709   1.915  15.565  1.8734 -0.4660 -0.2758
17502TIP3   OH273996   0.508   3.923   4.684 -0.2684 -0.2230 -0.6378
17502TIP3    H173997   0.582   3.863   4.675  0.1137  0.2633 -0.8018
17502TIP3    H273998   0.539   3.990   4.744 -0.2462  0.4720 -1.4050
17503TIP3   OH273999   3.047   5.003  11.518 -0.0331 -0.0565  0.3948
17503TIP3    H174000   3.104   4.927  11.519  0.6386  0.4270  0.0488
17503TIP3    H274001   2.967   4.973  11.476  0.3473 -0.4939 -0.0244
17504TIP3   OH274002   2.160   6.683  12.571 -0.2988  0.4788  0.2001
17504TIP3    H174003   2.119   6.707  12.488 -1.5051  2.1781  1.2039
17504TIP3    H274004   2.252   6.704  12.559 -0.6943  2.0960 -0.2859
17505TIP3   OH274005   4.103   5.899  11.338  1.0232  0.6036  0.4963
17505TIP3    H174006   4.198   5.883  11.338  1.1885  1.3602  1.9844
17505TIP3    H274007   4.074   5.869  11.425 -0.2698 -0.4301 -0.2573
17506TIP3   OH274008   6.008   3.163  13.224  0.1326  0.5108  0.4127
17506TIP3    H174009   5.991   3.155  13.317 -1.2626 -0.3552  0.1045
17506TIP3    H274010   5.984   3.253  13.203  1.2965  0.9840  1.0362
17507TIP3   OH274011   2.682   4.564   0.652  0.2445 -0.0158  0.0871
17507TIP3    H174012   2.691   4.471   0.631  1.0193 -0.8693  3.5757
17507TIP3    H274013   2.772   4.597   0.655 -0.0199  0.8748 -1.0632
17508TIP3   OH274014   6.464   0.644  16.447 -0.4217  0.1626  0.6030
17508TIP3    H174015   6.449   0.589  16.525  0.7311 -0.0924  0.6737
17508TIP3    H274016   6.418   0.725  16.465 -1.5605 -0.5153  0.8190
17509TIP3   OH274017   6.569   0.632  15.592 -0.1815 -0.2260 -0.0828
17509TIP3    H174018   6.626   0.620  15.668  0.7438  1.7274 -0.4116
17509TIP3    H274019   6.482   0.646  15.630  0.1732  0.1805  0.6143
17510TIP3   OH274020   2.011   0.365  14.176  0.3067  0.4602  0.7890
17510TIP3    H174021   2.019   0.458  14.152 -2.5798  0.5058 -0.4484
17510TIP3    H274022   1.919   0.344  14.157  1.1174 -2.9272  0.0689
17511TIP3   OH274023   3.772   0.650   5.295  0.7475 -0.1021  0.7682
17511TIP3    H174024   3.786   0.559   5.268 -2.3605 -0.0231 -1.5635
17511TIP3    H274025   3.721   0.644   5.376 -0.5645 -0.5066 -0.0604
17512TIP3   OH274026   0.717   2.527   1.091  0.9351 -0.1342  0.3211
17512TIP3    H174027   0.805   2.540   1.056  0.3467 -0.9537 -1.6237
17512TIP3    H274028   0.727   2.456   1.155  1.9308  0.8904  1.3349
17513TIP3   OH274029   3.910   1.710   5.652 -0.0453 -0.1073  0.1031
17513TIP3    H174030   3.940   1.725   5.741 -3.4826  0.5285  1.3346
17513TIP3    H274031   3.849   1.636   5.660 -0.5817  0.0917 -1.6495
17514TIP3   OH274032   3.915   2.868   4.805 -0.2413  0.5343 -0.2167
17514TIP3    H174033   3.888   2.958   4.824 -1.2125  0.0608  0.8013
17514TIP3    H274034   3.978   2.847   4.874 -1.4432 -0.1653  0.7151
17515TIP3   OH274035   2.512   1.830   4.076  0.5890  0.1339  0.0896
17515TIP3    H174036   2.512   1.745   4.032  1.4801  0.3216 -0.3064
17515TIP3    H274037   2.502   1.893   4.004 -1.3052  0.3350  0.4931
17516TIP3   OH274038   1.964   2.248  15.072 -0.2263 -0.3937 -0.0328
17516TIP3    H174039   1.954   2.323  15.014 -0.9271  0.9315  1.7112
17516TIP3    H274040   1.880   2.241  15.116  0.3146 -1.2940  0.8779
17517TIP3   OH274041   1.545   4.605   1.886  0.4794 -0.0318 -0.1722
17517TIP3    H174042   1.614   4.638   1.944  0.7685 -0.9540  0.0163
17517TIP3    H274043   1.536   4.513   1.909 -1.5930  0.3032  0.5640
17518TIP3   OH274044   0.111   2.941   2.037  0.2764 -0.1052 -0.0435
17518TIP3    H174045   0.050   2.983   2.098  0.9964 -0.4480  0.9438
17518TIP3    H274046   0.187   2.918   2.091  0.4463 -1.5061 -0.8143
17519TIP3   OH274047   0.009   6.404   4.999 -0.0985 -0.9328  0.2216
17519TIP3    H174048   0.045   6.358   4.923  0.8813  1.8604 -1.1235
17519TIP3    H274049  -0.085   6.405   4.983  0.1382  0.0568 -1.2532
17520TIP3   OH274050   5.615   3.094   2.250 -0.3717 -0.0780  0.2288
17520TIP3    H174051   5.542   3.136   2.296  0.3972 -0.1702  1.5755
17520TIP3    H274052   5.588   3.003   2.241 -1.1722  0.2453 -0.8885
17521TIP3   OH274053   6.009   6.023   6.683  0.6817 -0.2540  0.6434
17521TIP3    H174054   5.980   5.935   6.657  2.3694 -0.4985 -0.6108
17521TIP3    H274055   5.960   6.082   6.627 -0.7639 -0.3141  1.7674
17522TIP3   OH274056   5.381   1.256   2.653  0.2978 -0.1005 -0.0261
17522TIP3    H174057   5.321   1.187   2.625  0.6640  0.2673 -1.8412
17522TIP3    H274058   5.468   1.219   2.637  0.4977  0.6940 -0.8447
17523TIP3   OH274059   5.240   0.211   1.967 -0.1407  0.3648 -0.3260
17523TIP3    H174060   5.250   0.123   1.933 -1.6614  0.2581 -0.5604
17523TIP3    H274061   5.146   0.228   1.963  0.0202  1.6402  0.5973
17524TIP3   OH274062   0.210   0.792   4.252 -0.5014  0.6231 -0.6328
17524TIP3    H174063   0.250   0.877   4.270  0.0542  0.8404 -2.6036
17524TIP3    H274064   0.146   0.811   4.183 -1.0234 -0.4151 -0.4492
17525TIP3   OH274065   0.228   6.474  14.961  0.5147 -0.7790 -0.4808
17525TIP3    H174066   0.297   6.492  15.025  0.8668 -0.5923 -0.9037
17525TIP3    H274067   0.275   6.436  14.886  0.3821  0.7904 -1.4071
17526TIP3   OH274068   2.061   3.959  15.975 -0.4280 -0.1056  0.4009
17526TIP3    H174069   1.977   3.988  16.010 -0.6613 -0.7177  0.3658
17526TIP3    H274070   2.073   3.871  16.012 -0.5537 -0.6625 -0.8549
17527TIP3   OH274071   6.380   0.336  11.463  1.0518  0.1207  0.1405
17527TIP3    H174072   6.434   0.283  11.521  2.3910  0.7857 -0.4647
17527TIP3    H274073   6.426   0.335  11.379  1.4352  2.6325  0.2336
17528TIP3   OH274074   1.967   2.497  11.904  0.5094 -0.3239 -0.3916
17528TIP3    H174075   1.925   2.581  11.925  2.4151  1.0217 -1.5636
17528TIP3    H274076   1.906   2.453  11.845  0.4683  1.3551 -1.6866
17529TIP3   OH274077   6.813   5.372   2.457 -0.0216 -0.3201 -0.5047
17529TIP3    H174078   6.796   5.462   2.430  0.4231 -0.4123 -1.1094
17529TIP3    H274079   6.823   5.377   2.552  1.5165  0.5280 -0.6774
17530TIP3   OH274080   4.991   4.659  10.903 -0.7062 -0.1524 -0.1212
17530TIP3    H174081   4.990   4.601  10.827  0.0072 -0.0245 -0.2273
17530TIP3    H274082   4.918   4.719  10.888  1.9379  2.7018 -2.8822
17531TIP3   OH274083   1.078   6.232   2.311  0.4706 -0.0113  0.4074
17531TIP3    H174084   1.082   6.141   2.342  2.0650  0.4820  1.7835
17531TIP3    H274085   1.169   6.261   2.309 -0.0304  1.6370  0.2121
17532TIP3   OH274086   5.368   2.804   3.928  0.3270  0.4336 -0.2305
17532TIP3    H174087   5.318   2.883   3.908  0.8991  0.8324 -0.1049
17532TIP3    H274088   5.450   2.836   3.967  1.1641 -0.1475 -1.4255
17533TIP3   OH274089   3.308   4.896   6.308  0.3501  0.2763  0.7144
17533TIP3    H174090   3.320   4.974   6.361  0.8939 -0.7801  2.2083
17533TIP3    H274091   3.268   4.832   6.367  1.5609 -1.1516  0.0707
17534TIP3   OH274092   0.088   4.536   2.092 -0.7120 -0.6353  0.3172
17534TIP3    H174093   0.029   4.608   2.066  2.3733  2.0562  0.1051
17534TIP3    H274094   0.125   4.566   2.175  0.2662 -2.3072  0.5108
17535TIP3   OH274095   1.118   1.569   1.207  0.4922  0.3524 -0.0216
17535TIP3    H174096   1.133   1.636   1.274  0.1843  0.4890 -0.0872
17535TIP3    H274097   1.023   1.568   1.195 -0.0674 -2.9184  2.9469
17536TIP3   OH274098   3.802   2.816  12.743 -0.4272  0.4257  0.1122
17536TIP3    H174099   3.873   2.779  12.690  0.0079  1.3503  0.0452
17536TIP3    H274100   3.845   2.878  12.801 -1.3573  2.2548 -1.0789
17537TIP3   OH274101   3.442   1.559  11.872  0.1282 -0.0214 -0.3567
17537TIP3    H174102   3.370   1.497  11.886 -0.1250  0.1695 -0.8007
17537TIP3    H274103   3.443   1.574  11.778 -0.1073  0.9940 -0.2128
17538TIP3   OH274104   1.665   3.988  11.783  0.0280  0.0509  0.0663
17538TIP3    H174105   1.695   4.024  11.700  2.3514  3.0363  2.0062
17538TIP3    H274106   1.661   3.893  11.768 -0.1538  0.5001 -3.5129
17539TIP3   OH274107   1.260   1.874   0.689  0.2766  0.2025  0.0273
17539TIP3    H174108   1.306   1.896   0.770  1.1241 -0.8990 -0.1209
17539TIP3    H274109   1.310   1.918   0.620 -0.9883  1.9134  0.1482
17540TIP3   OH274110   2.708   1.123   2.320 -0.3678 -0.2331  0.4415
17540TIP3    H174111   2.699   1.217   2.303  0.1833 -0.3833 -0.8448
17540TIP3    H274112   2.787   1.116   2.374 -0.3400  0.0359  0.4375
17541TIP3   OH274113   4.837   3.512  14.798  0.3411 -0.4682 -0.1221
17541TIP3    H174114   4.833   3.439  14.737  0.9164 -0.0973 -0.6163
17541TIP3    H274115   4.901   3.572  14.760 -1.0021  0.8763 -0.3399
17542TIP3   OH274116   6.664   5.679  12.770 -0.0192 -0.1399 -0.0094
17542TIP3    H174117   6.652   5.769  12.741  0.0324 -0.5651 -1.4495
17542TIP3    H274118   6.593   5.664  12.833 -1.1653  0.3625 -1.1275
17543TIP3   OH274119   6.539   5.101  15.543 -0.3290 -0.1807 -0.0906
17543TIP3    H174120   6.477   5.031  15.559  0.1368 -0.2612  1.5431
17543TIP3    H274121   6.485   5.175  15.512 -0.9741 -0.8210 -0.5253
17544TIP3   OH274122   5.342   5.044  15.760  0.5261 -0.7619  0.1546
17544TIP3    H174123   5.294   4.965  15.734 -1.0594 -0.1588  1.1657
17544TIP3    H274124   5.327   5.052  15.854  1.6382  0.1273  0.2803
17545TIP3   OH274125   1.736   1.248  12.932 -0.1425 -0.0283  0.5062
17545TIP3    H174126   1.649   1.283  12.913 -0.0831  0.7747  1.6042
17545TIP3    H274127   1.797   1.314  12.897 -0.0120  0.2680  1.2644
17546TIP3   OH274128   2.777   5.975  11.230 -0.2944 -1.1527  0.5125
17546TIP3    H174129   2.771   6.071  11.223 -2.1534 -1.1496  1.6037
17546TIP3    H274130   2.868   5.956  11.208  0.2549  0.9145  0.7194
17547TIP3   OH274131   4.509   1.009   0.808 -0.8829  0.1099 -0.1429
17547TIP3    H174132   4.534   0.919   0.788 -1.4464  0.1143 -0.8921
17547TIP3    H274133   4.505   1.012   0.904  1.9270  0.1030  0.0689
17548TIP3   OH274134   3.167   5.485  15.351 -0.2457 -0.1631  0.4251
17548TIP3    H174135   3.260   5.474  15.330 -0.2441 -1.5332  1.0585
17548TIP3    H274136   3.167   5.541  15.429  0.1006 -0.7268  0.8414
17549TIP3   OH274137   2.724   4.616  16.014 -0.2619 -0.5419  0.2957
17549TIP3    H174138   2.642   4.659  16.037 -0.5623 -1.3246  0.7121
17549TIP3    H274139   2.786   4.646  16.081 -0.0422  0.5173 -0.3635
17550TIP3   OH274140   4.460   2.572   2.754  0.5381 -0.4017 -0.3681
17550TIP3    H174141   4.507   2.492   2.730  0.5605 -0.8749  1.1297
17550TIP3    H274142   4.409   2.594   2.677 -0.6374 -2.7048 -0.3487
17551TIP3   OH274143   0.860   3.262  16.745  0.5744 -0.4706  0.0535
17551TIP3    H174144   0.857   3.357  16.751  0.3522 -0.4027 -0.9426
17551TIP3    H274145   0.780   3.233  16.788 -0.1348 -0.1170 -0.9927
17552TIP3   OH274146   2.298   5.378  12.972  0.7943  0.0267  0.1582
17552TIP3    H174147   2.382   5.372  13.018  0.0227  2.6629  2.0647
17552TIP3    H274148   2.310   5.451  12.911  0.2949 -0.4732 -0.5478
17553TIP3   OH274149   3.805   2.186   3.516  0.2825 -0.9681  0.3528
17553TIP3    H174150   3.897   2.183   3.491 -0.0366 -1.7628 -0.8139
17553TIP3    H274151   3.757   2.172   3.434 -0.8913 -0.2838  0.8833
17554TIP3   OH274152   1.018   3.153   5.044 -0.2046  0.1112  0.3831
17554TIP3    H174153   1.111   3.148   5.064  0.6120  0.7193 -2.8032
17554TIP3    H274154   1.002   3.079   4.985 -1.1378  1.4280 -1.0924
17555TIP3   OH274155   2.497   5.958   3.275  0.0083  0.1288  0.6528
17555TIP3    H174156   2.588   5.933   3.260  0.2255  1.3468 -0.2448
17555TIP3    H274157   2.503   6.035   3.331 -0.4223  0.6767 -0.0441
17556TIP3   OH274158   3.356   6.768  11.041  0.5301 -0.4727  0.5823
17556TIP3    H174159   3.289   6.701  11.024  0.1553  0.1313 -0.4062
17556TIP3    H274160   3.401   6.778  10.957  1.2533 -0.2040  0.9993
17557TIP3   OH274161   6.258   1.740   4.813 -0.0084 -0.7964 -0.2664
17557TIP3    H174162   6.331   1.792   4.782 -1.0871  1.0140  0.1005
17557TIP3    H274163   6.237   1.682   4.740 -0.9839  1.7271 -2.1329
17558TIP3   OH274164   2.582   1.921  12.043  0.3657  0.0743  0.1306
17558TIP3    H174165   2.511   1.922  11.979  1.1819 -0.6817 -0.8101
17558TIP3    H274166   2.554   1.984  12.110  0.0604  1.8681 -1.5778
17559TIP3   OH274167   4.809   6.790  13.627 -0.5832 -0.5786  0.3116
17559TIP3    H174168   4.879   6.727  13.605 -2.8292 -2.6718 -1.3724
17559TIP3    H274169   4.852   6.875  13.623  1.9772 -1.7938 -0.2277
17560TIP3   OH274170   6.670   0.413  15.445 -0.5930  0.0226 -0.2862
17560TIP3    H174171   6.614   0.347  15.486  0.6606 -1.2931 -0.6121
17560TIP3    H274172   6.643   0.496  15.485  1.4742 -1.2378  4.4960
17561TIP3   OH274173   4.486   5.065   0.889 -0.3127 -0.3402  1.0017
17561TIP3    H174174   4.528   5.149   0.871  2.6369 -1.1112  3.4455
17561TIP3    H274175   4.531   5.003   0.832 -0.8730 -0.6369  0.8687
17562TIP3   OH274176   0.628   0.337   1.882 -0.2547  0.5332  0.0165
17562TIP3    H174177   0.704   0.353   1.938 -0.7277  0.6510  0.6501
17562TIP3    H274178   0.640   0.249   1.848  0.9550  1.1180 -1.1860
17563TIP3   OH274179   5.411   2.533   6.030 -0.2608 -0.7454  0.1348
17563TIP3    H174180   5.396   2.503   6.120  0.9380  1.0094  0.9640
17563TIP3    H274181   5.503   2.513   6.014 -0.1327  0.1303 -0.2325
17564TIP3   OH274182   5.728   0.803   3.045 -0.3439 -0.3206 -0.2685
17564TIP3    H174183   5.782   0.790   3.123 -1.2067 -0.5652  0.3004
17564TIP3    H274184   5.789   0.835   2.979  0.3743  0.0626  0.5596
17565TIP3   OH274185   6.095   6.427   6.112  0.2445  0.4738 -0.1583
17565TIP3    H174186   6.179   6.440   6.157  1.5004 -1.4118 -1.7949
17565TIP3    H274187   6.035   6.398   6.181  1.4073  0.1731  0.7640
17566TIP3   OH274188   5.948   2.766   1.413  0.4136  0.9441  0.2077
17566TIP3    H174189   5.924   2.850   1.375 -1.5992  1.1739  1.8315
17566TIP3    H274190   5.922   2.773   1.505  0.3802 -1.3862  0.4283
17567TIP3   OH274191   1.962   4.755  11.226  0.0638  0.2443  0.1145
17567TIP3    H174192   1.903   4.802  11.285  0.8464  0.9717  0.3460
17567TIP3    H274193   1.968   4.667  11.263 -1.0957  0.0604 -0.0824
17568TIP3   OH274194   6.609   5.011  14.434  0.8109 -0.2443  0.3811
17568TIP3    H174195   6.535   4.969  14.475  1.3604 -1.6296  0.0149
17568TIP3    H274196   6.591   5.005  14.340  0.7772  0.5953  0.3229
17569TIP3   OH274197   5.610   6.273  16.820  0.0987 -0.2944  0.0994
17569TIP3    H174198   5.653   6.232  16.744 -0.4634  0.6890 -0.7750
17569TIP3    H274199   5.573   6.200  16.869  1.6301 -1.0670  0.1816
17570TIP3   OH274200   2.842   1.816  12.092 -0.2984  0.1082  0.1273
17570TIP3    H174201   2.758   1.848  12.059 -0.6499 -2.2557 -1.5430
17570TIP3    H274202   2.819   1.750  12.157  0.3015  0.3573  0.6025
17571TIP3   OH274203   0.462   2.970  15.938  0.0138  0.3130  0.3362
17571TIP3    H174204   0.493   2.881  15.920  0.3998  0.7679 -1.4471
17571TIP3    H274205   0.535   3.026  15.915  0.1858  1.0813  2.5551
17572TIP3   OH274206   4.854   3.149  15.618  0.2578  0.0512 -0.1894
17572TIP3    H174207   4.829   3.242  15.614  0.1629  0.1939  2.0938
17572TIP3    H274208   4.818   3.119  15.701  2.3994 -1.3690  0.2957
17573TIP3   OH274209   1.154   0.946   2.529  0.4258 -0.2244 -0.1988
17573TIP3    H174210   1.189   1.025   2.486  0.8896  0.5840  1.5932
17573TIP3    H274211   1.230   0.890   2.543  0.5310  0.1858  0.9216
17574TIP3   OH274212   3.534   2.323   2.225  0.0806 -0.0334  0.1440
17574TIP3    H174213   3.439   2.317   2.227  0.0968 -0.3621  0.0114
17574TIP3    H274214   3.562   2.250   2.170  0.4620 -0.6141  1.0634
17575TIP3   OH274215   4.102   4.792   5.834  0.9527  0.0583  0.7199
17575TIP3    H174216   4.158   4.777   5.758  1.1916  0.6575  0.7720
17575TIP3    H274217   4.154   4.761   5.908  1.0664  0.2601  0.7262
17576TIP3   OH274218   2.661   1.470   2.007  0.0861  0.1412  0.2931
17576TIP3    H174219   2.588   1.410   1.990 -0.5393  0.6488  1.1167
17576TIP3    H274220   2.626   1.557   1.988  0.7974  0.3091 -0.2932
17577TIP3   OH274221   4.331   3.094  11.799  0.3807 -0.0297  0.4708
17577TIP3    H174222   4.325   3.188  11.816 -0.8951  0.0968 -0.4869
17577TIP3    H274223   4.409   3.066  11.846  1.6902  1.7864 -0.4984
17578TIP3   OH274224   4.274   0.862   0.732  0.3351  0.0383  0.3061
17578TIP3    H174225   4.225   0.893   0.656  1.0521  0.6857  0.0874
17578TIP3    H274226   4.352   0.918   0.735 -0.2982  0.9051  2.2756
17579TIP3   OH274227   2.875   6.252   1.697 -0.0881 -0.2076  0.2766
17579TIP3    H174228   2.815   6.179   1.682 -0.0248  0.1471 -2.0134
17579TIP3    H274229   2.874   6.265   1.792 -0.3420 -2.9656  0.7212
17580TIP3   OH274230   2.144   5.459  13.664  0.0116  0.2156  0.1811
17580TIP3    H174231   2.142   5.486  13.572 -0.4826  0.0561  0.1434
17580TIP3    H274232   2.180   5.534  13.710  0.7657  0.1067 -0.2064
17581TIP3   OH274233   3.619   1.982  11.534  0.2348 -0.3135 -0.5139
17581TIP3    H174234   3.584   2.067  11.508 -0.3985 -0.9201 -1.7235
17581TIP3    H274235   3.574   1.960  11.615 -1.7863 -0.7770 -1.6971
17582TIP3   OH274236   3.819   2.011   1.805  0.4927 -0.2711 -0.3529
17582TIP3    H174237   3.867   1.972   1.732  1.3872 -0.9032  0.5504
17582TIP3    H274238   3.874   1.995   1.882 -0.2873  0.6424  0.4226
17583TIP3   OH274239   2.548   1.219   5.965  0.5010 -0.0085 -0.2723
17583TIP3    H174240   2.501   1.234   6.048  1.7378  0.4766  0.3704
17583TIP3    H274241   2.636   1.194   5.992  0.6157 -0.9707 -1.4545
17584TIP3   OH274242   1.447   5.473   4.417 -0.2882 -0.5161 -0.5852
17584TIP3    H174243   1.435   5.519   4.335 -1.1028 -0.4877 -0.4603
17584TIP3    H274244   1.364   5.427   4.431 -0.3998  0.0003  0.5403
17585TIP3   OH274245   6.670   4.610  16.997  0.2254  0.6354 -0.2770
17585TIP3    H174246   6.577   4.626  16.983  0.6560  2.2281 -1.6148
17585TIP3    H274247   6.678   4.593  17.091 -1.2827  1.4826  0.0305
17586TIP3   OH274248   6.190   5.611  16.827  0.3121 -0.2051 -0.3300
17586TIP3    H174249   6.240   5.532  16.847  0.3459 -0.1401 -0.1566
17586TIP3    H274250   6.102   5.579  16.807  0.2600 -0.2644 -0.0061
17587TIP3   OH274251   3.382   6.854  16.617  0.3576  0.2825  0.3609
17587TIP3    H174252   3.476   6.871  16.613  0.5739 -0.9122 -0.2490
17587TIP3    H274253   3.352   6.863  16.526  0.0253 -0.0741  0.4301
17588TIP3   OH274254   2.270   5.230  16.295 -0.0821  0.5581 -0.0592
17588TIP3    H174255   2.226   5.146  16.310  1.2531 -0.3078 -0.7972
17588TIP3    H274256   2.200   5.295  16.304 -1.1691 -0.6234  0.4468
17589TIP3   OH274257   2.735   3.042   4.528 -0.1936  0.0191 -0.3276
17589TIP3    H174258   2.787   2.963   4.544 -0.5738 -0.5175 -1.5972
17589TIP3    H274259   2.644   3.013   4.539 -0.3068  0.4333 -0.1720
17590TIP3   OH274260   0.973   4.967   4.762 -0.2622 -0.8936 -1.0045
17590TIP3    H174261   0.878   4.955   4.768 -0.3038 -0.3237 -0.3880
17590TIP3    H274262   1.008   4.878   4.767 -0.6857 -1.0068  0.6682
17591TIP3   OH274263   6.412   0.003   1.228 -0.1675  0.0930  0.3817
17591TIP3    H174264   6.440   0.008   1.319 -1.4096  0.4224  0.7705
17591TIP3    H274265   6.490  -0.023   1.180  0.0013 -2.3582  1.8146
17592TIP3   OH274266   3.611   4.335  11.047  0.3090  0.0338 -0.6314
17592TIP3    H174267   3.544   4.294  10.992 -0.0909  0.6600 -0.6126
17592TIP3    H274268   3.615   4.426  11.018 -1.0780  0.8424  1.4313
17593TIP3   OH274269   6.262   5.484   1.655  0.0149  0.2183 -0.5137
17593TIP3    H174270   6.274   5.548   1.725 -1.1307 -0.0815 -0.0168
17593TIP3    H274271   6.172   5.451   1.667  0.8656 -2.2091 -0.1356
17594TIP3   OH274272   0.583   6.399  15.938 -0.9967  0.4279 -0.1678
17594TIP3    H174273   0.585   6.338  16.012 -1.5645  0.2768 -0.2748
17594TIP3    H274274   0.648   6.364  15.877 -1.3987 -0.1431 -0.2795
17595TIP3   OH274275   2.026   0.510   4.315 -0.0828 -0.4331  0.0596
17595TIP3    H174276   2.113   0.486   4.345  0.1109  1.4185  1.0998
17595TIP3    H274277   2.041   0.557   4.233 -0.1994 -0.9572 -0.2683
17596TIP3   OH274278   0.088   2.513  13.682 -0.0393  0.0995 -0.5885
17596TIP3    H174279   0.012   2.455  13.675  0.2493 -0.1854 -1.4681
17596TIP3    H274280   0.064   2.591  13.632  0.0219  0.2651 -0.3654
17597TIP3   OH274281   3.353   4.068  12.338  0.1800 -0.0620 -0.0862
17597TIP3    H174282   3.432   4.123  12.338  1.3862 -1.7051 -0.1731
17597TIP3    H274283   3.314   4.082  12.424  1.3568 -0.2900  0.5072
17598TIP3   OH274284   3.521   5.032  14.623  0.5297 -0.1114  0.3533
17598TIP3    H174285   3.559   5.040  14.710  0.3517  0.2459  0.3995
17598TIP3    H274286   3.426   5.037  14.637  0.5308  1.4858 -0.0060
17599TIP3   OH274287   1.983   0.788   2.010 -0.6200 -0.0704 -0.1545
17599TIP3    H174288   1.931   0.738   1.946 -0.5496 -0.0191 -0.2523
17599TIP3    H274289   2.065   0.807   1.965 -0.1879 -0.8485  0.2890
17600TIP3   OH274290   0.514   2.682  11.827 -0.1020  0.6292 -0.8598
17600TIP3    H174291   0.545   2.741  11.758 -1.3344  1.5711 -0.6567
17600TIP3    H274292   0.452   2.624  11.782 -0.9031  1.2410 -0.5887
17601TIP3   OH274293   6.017   4.504   5.759 -0.9282  0.2700  0.4016
17601TIP3    H174294   6.093   4.483   5.705 -1.3382 -0.4827  0.1113
17601TIP3    H274295   6.034   4.458   5.842 -2.0161 -1.6426 -0.3724
17602TIP3   OH274296   6.449   4.510   2.062  0.0386  0.4082 -0.1622
17602TIP3    H174297   6.474   4.513   1.969  0.2844  3.3769 -0.1046
17602TIP3    H274298   6.371   4.455   2.064 -1.3398  2.0982 -2.5527
17603TIP3   OH274299   5.778   6.774  13.373 -0.5270  0.2970 -0.4945
17603TIP3    H174300   5.710   6.822  13.421 -0.7540 -0.8814  0.3953
17603TIP3    H274301   5.740   6.689  13.354  0.1999  0.1271 -1.2575
17604TIP3   OH274302   6.396   2.875   4.862  0.2843  0.1470  0.1424
17604TIP3    H174303   6.388   2.785   4.894  2.3309  0.0842  0.6337
17604TIP3    H274304   6.318   2.919   4.895 -0.1998 -1.1784  0.8624
17605TIP3   OH274305   0.503   6.034  15.966 -0.4721  0.1897  0.4809
17605TIP3    H174306   0.539   6.102  16.024  2.5003  0.4178 -1.3986
17605TIP3    H274307   0.513   5.953  16.016  2.2001  0.3571  0.3907
17606TIP3   OH274308   5.119   4.493   2.254 -0.2653  0.5413  0.2141
17606TIP3    H174309   5.178   4.568   2.244 -0.0557  0.3604  0.0851
17606TIP3    H274310   5.064   4.516   2.329  0.3360  0.4691  0.6825
17607TIP3   OH274311   0.648   2.865   2.621  0.9039  0.0299  0.1535
17607TIP3    H174312   0.635   2.772   2.599 -0.8753  0.3026 -0.0884
17607TIP3    H274313   0.712   2.864   2.693  0.1112 -1.4614  0.8835
17608TIP3   OH274314   3.555   3.860  16.936  0.0381 -0.9740  0.2976
17608TIP3    H174315   3.636   3.849  16.984 -0.9060  0.7894  2.4529
17608TIP3    H274316   3.490   3.883  17.002 -1.5291  0.7714 -1.7047
17609TIP3   OH274317   2.748   0.468  11.620  0.1863 -0.2190 -0.2082
17609TIP3    H174318   2.673   0.413  11.641  0.2222 -0.1527  0.0981
17609TIP3    H274319   2.753   0.531  11.692  1.1205 -0.8338  0.2924
17610TIP3   OH274320   5.821   2.813  11.679  0.2806 -0.2119  0.0257
17610TIP3    H174321   5.893   2.870  11.652  1.3889 -0.8528  1.4758
17610TIP3    H274322   5.799   2.763  11.600  1.6680 -0.2435 -0.3640
17611TIP3   OH274323   2.220   3.190   2.460 -0.1115  0.2048 -0.2921
17611TIP3    H174324   2.229   3.095   2.459 -2.3031 -0.1179  1.7998
17611TIP3    H274325   2.310   3.222   2.475  0.5494 -1.5573 -0.2697
17612TIP3   OH274326   2.711   0.402  11.907 -0.4528  0.7014 -0.2654
17612TIP3    H174327   2.797   0.421  11.943 -0.3765  1.2552 -0.7215
17612TIP3    H274328   2.728   0.345  11.833 -0.5554  0.1110  0.1570
17613TIP3   OH274329   1.964   5.557  14.417 -0.2674 -0.3614 -0.1140
17613TIP3    H174330   2.019   5.503  14.361 -0.5177 -0.4884 -0.2381
17613TIP3    H274331   1.884   5.506  14.430 -0.1221 -0.4273  0.5413
17614TIP3   OH274332   1.931   0.413   0.193  0.0715  0.4815  0.0585
17614TIP3    H174333   1.870   0.346   0.163 -1.0287  0.9859  1.0868
17614TIP3    H274334   1.880   0.494   0.194  1.3948  1.3889 -1.2323
17615TIP3   OH274335   2.698   0.392  11.219 -0.6440 -0.2434  0.7078
17615TIP3    H174336   2.606   0.382  11.245 -0.9181  1.1050  0.3250
17615TIP3    H274337   2.738   0.441  11.290 -0.7973  1.2115 -0.1554
17616TIP3   OH274338   4.385   0.501  11.571 -0.2291 -0.0523  1.0265
17616TIP3    H174339   4.348   0.489  11.484  0.4911 -1.1520  0.8460
17616TIP3    H274340   4.361   0.591  11.596 -1.0061  0.0427 -0.0163
17617TIP3   OH274341   2.444   5.998  10.591 -0.1226  0.6840  0.5691
17617TIP3    H174342   2.466   6.044  10.671 -0.1485 -1.3423  1.8106
17617TIP3    H274343   2.350   5.980  10.599 -0.0741  0.2551  0.2193
17618TIP3   OH274344   0.313   3.768   1.448  0.6346  0.3857 -0.3775
17618TIP3    H174345   0.280   3.770   1.358  1.2729  0.6184 -0.6116
17618TIP3    H274346   0.357   3.852   1.460  0.8917  0.1997  0.0202
17619TIP3   OH274347   1.456   4.653  14.304 -0.2786  0.0514 -0.5326
17619TIP3    H174348   1.459   4.687  14.215 -0.4253  1.4537 -0.0276
17619TIP3    H274349   1.409   4.720  14.354  2.5173  0.8622  1.2386
17620TIP3   OH274350   4.178   0.704   0.283  0.2550  0.1767  0.4217
17620TIP3    H174351   4.273   0.701   0.270  0.0398 -1.3281 -1.1855
17620TIP3    H274352   4.151   0.612   0.287 -1.1291  0.5792  1.0142
17621TIP3   OH274353   3.351   6.438   3.454  0.4727 -0.2454  0.4352
17621TIP3    H174354   3.326   6.355   3.414  0.2188 -0.2569  0.6094
17621TIP3    H274355   3.441   6.452   3.427  0.4004 -0.3997  0.1063
17622TIP3   OH274356   5.093   4.561   1.373 -0.0379 -0.1732 -0.4495
17622TIP3    H174357   5.145   4.618   1.430  0.7139  0.1595 -1.4381
17622TIP3    H274358   5.052   4.499   1.432 -0.4373  1.0505  0.5995
17623TIP3   OH274359   5.854   0.224  14.619 -0.2051  0.7173  0.5037
17623TIP3    H174360   5.761   0.202  14.612  0.0892 -0.2893 -0.5965
17623TIP3    H274361   5.885   0.225  14.529  0.8073  1.2632  0.8491
17624TIP3   OH274362   4.128   3.361  16.824  0.0772 -0.6520  0.4413
17624TIP3    H174363   4.037   3.353  16.854  0.2456 -0.1210  1.0931
17624TIP3    H274364   4.132   3.303  16.748 -1.7921  1.9007 -1.8514
17625TIP3   OH274365   6.390   2.065   2.000  0.4460  0.5266  0.1896
17625TIP3    H174366   6.385   2.159   1.985 -0.2052  0.2074 -1.7938
17625TIP3    H274367   6.317   2.046   2.059 -0.1868  1.0833 -0.4060
17626TIP3   OH274368   3.167   4.860  12.509  0.0482 -0.0134  0.3422
17626TIP3    H174369   3.088   4.913  12.506  1.6703  2.5093 -2.0213
17626TIP3    H274370   3.148   4.787  12.450 -1.1477 -0.5735  1.3482
17627TIP3   OH274371   1.239   5.736   1.169  0.5643 -0.8165 -0.5352
17627TIP3    H174372   1.199   5.816   1.137  1.5759 -0.2690 -0.4584
17627TIP3    H274373   1.295   5.764   1.242 -0.3460 -1.8047  0.6058
17628TIP3   OH274374   1.562   2.724  15.268 -0.2247  0.4494 -0.1631
17628TIP3    H174375   1.555   2.670  15.346 -0.7347 -1.4872 -1.4627
17628TIP3    H274376   1.622   2.794  15.292  0.2370 -0.5208  1.7118
17629TIP3   OH274377   6.109   1.989  14.899  0.0052  0.1813  0.0792
17629TIP3    H174378   6.190   2.026  14.934  0.0777  0.0463  0.0562
17629TIP3    H274379   6.074   1.935  14.970  0.9308 -1.3017 -0.5467
17630TIP3   OH274380   3.438   2.379  15.299  0.3348  1.0327 -0.2982
17630TIP3    H174381   3.425   2.361  15.206  2.2367 -1.3803 -0.1943
17630TIP3    H274382   3.518   2.432  15.302  0.0692  1.4254 -0.0498
17631TIP3   OH274383   5.434   1.830   0.107 -1.0426 -0.5183 -0.0763
17631TIP3    H174384   5.480   1.746   0.114  0.0567  0.0875  0.1932
17631TIP3    H274385   5.386   1.838   0.190  2.6015  1.2299  2.1036
17632TIP3   OH274386   2.178   5.950  10.632  0.0898  0.2629  0.5267
17632TIP3    H174387   2.112   5.909  10.575  0.6729 -2.4079  1.6399
17632TIP3    H274388   2.129   5.976  10.710 -0.2464  1.6166 -0.1044
17633TIP3   OH274389   4.858   1.761  17.094  0.3092  0.5919  0.0562
17633TIP3    H174390   4.807   1.692  17.136 -0.3651  0.5381 -0.8208
17633TIP3    H274391   4.794   1.811  17.044  1.0149  0.9572 -0.4976
17634TIP3   OH274392   2.692   5.330  16.230  0.6907  0.2924  0.6481
17634TIP3    H174393   2.641   5.257  16.264  1.0449 -0.6751 -0.7944
17634TIP3    H274394   2.720   5.301  16.143  1.5510  1.8156  0.3811
17635TIP3   OH274395   3.072   1.342   0.072 -0.4114  0.0735  0.2228
17635TIP3    H174396   3.116   1.410   0.123 -1.2678  0.3179  0.6636
17635TIP3    H274397   3.048   1.275   0.136  1.3314 -1.1622 -0.3610
17636TIP3   OH274398   3.082   1.785   3.785 -0.1375  0.2012 -0.4190
17636TIP3    H174399   3.043   1.723   3.847  1.7748 -0.5358  0.1177
17636TIP3    H274400   3.082   1.868   3.832 -0.9484  0.1995 -0.3980
17637TIP3   OH274401   5.874   1.627   3.735 -0.4452  0.3835  0.2208
17637TIP3    H174402   5.856   1.710   3.691  1.8500  0.9643  0.2565
17637TIP3    H274403   5.959   1.640   3.777  0.3328 -2.2074 -0.3499
17638TIP3   OH274404   4.790   6.617   2.124 -0.0129 -0.0163 -0.3704
17638TIP3    H174405   4.765   6.678   2.193 -0.9561 -1.3477  0.4926
17638TIP3    H274406   4.750   6.652   2.045  0.1397  0.9099 -0.0486
17639TIP3   OH274407   1.987   6.319   0.174 -0.3725  0.2926 -0.7121
17639TIP3    H174408   1.905   6.352   0.209 -0.0951 -1.0780  1.4827
17639TIP3    H274409   2.043   6.396   0.167 -1.1835  0.9511 -0.2151
17640TIP3   OH274410   4.564   0.058  11.687  0.4283  0.8118 -0.3843
17640TIP3    H174411   4.479   0.020  11.663  0.1763  0.4890  0.9398
17640TIP3    H274412   4.578   0.029  11.777  1.6985  1.3139 -0.4095
17641TIP3   OH274413   1.942   0.928  11.905  0.0953  0.5692  0.3805
17641TIP3    H174414   1.936   1.014  11.947 -0.8031  0.4321  0.5591
17641TIP3    H274415   1.932   0.945  11.812  1.3364  0.7961  0.2756
17642TIP3   OH274416   1.829   3.370   4.759 -0.6222 -0.0066  0.1894
17642TIP3    H174417   1.786   3.447   4.722 -0.1277 -0.8211 -2.2422
17642TIP3    H274418   1.769   3.297   4.740 -1.0727 -0.2880  2.4300
17643TIP3   OH274419   0.031   1.039  13.211  0.5973 -0.1283 -0.1183
17643TIP3    H174420  -0.000   0.964  13.261 -1.4884 -0.8619 -2.3456
17643TIP3    H274421   0.106   1.005  13.161  0.2737 -0.4684 -0.3772
17644TIP3   OH274422   5.099   5.497   2.169 -0.1981 -0.3629  0.2438
17644TIP3    H174423   5.060   5.515   2.084  1.8378  0.8161 -0.5137
17644TIP3    H274424   5.085   5.577   2.219  1.3775  0.1976 -0.1401
17645TIP3   OH274425   6.162   1.404   3.752  0.1982 -0.2834  0.2154
17645TIP3    H174426   6.226   1.332   3.747  1.8347  1.1119  0.0842
17645TIP3    H274427   6.080   1.365   3.721  0.8452 -2.2654  0.8017
17646TIP3   OH274428   4.380   6.707   3.072  0.3377  0.7407  0.7009
17646TIP3    H174429   4.293   6.676   3.099  1.6285 -1.0195  3.2706
17646TIP3    H274430   4.379   6.700   2.977 -2.4268  1.1559  0.5959
17647TIP3   OH274431   1.695   0.967   2.101 -0.2550 -0.0844  0.0753
17647TIP3    H174432   1.784   0.967   2.066  0.3824 -0.0351  1.6311
17647TIP3    H274433   1.688   0.886   2.150 -2.2752 -1.8551 -2.7927
17648TIP3   OH274434   4.831   2.070  11.584 -0.0755  0.8247 -0.4223
17648TIP3    H174435   4.780   2.022  11.519 -0.0082  0.3225 -0.1083
17648TIP3    H274436   4.775   2.144  11.608  0.1072  1.2958 -1.4149
17649TIP3   OH274437   4.550   2.890   1.897 -0.5164  0.9013 -0.0642
17649TIP3    H174438   4.593   2.868   1.980  0.2078 -1.6185 -1.0340
17649TIP3    H274439   4.477   2.828   1.891 -0.2851  0.7348 -1.5198
17650TIP3   OH274440   6.127   4.673   2.023 -0.1935  0.1507  0.1644
17650TIP3    H174441   6.137   4.699   2.114  3.0141 -1.3965  0.3994
17650TIP3    H274442   6.152   4.750   1.972 -0.3811  0.5023  0.5992
17651TIP3   OH274443   1.527   5.493   1.415 -0.4427  0.1109  0.0917
17651TIP3    H174444   1.481   5.429   1.361 -0.2571 -0.8209  1.0207
17651TIP3    H274445   1.543   5.448   1.498  0.6615  0.9867  0.3772
17652TIP3   OH274446   4.215   1.306   3.294 -0.2663  0.1031  0.3316
17652TIP3    H174447   4.283   1.238   3.294  0.5911  0.9229 -0.4334
17652TIP3    H274448   4.184   1.310   3.385  2.4680  1.3788  1.3165
17653TIP3   OH274449   5.206   3.984  15.645  0.4728 -0.1954  0.1876
17653TIP3    H174450   5.216   4.036  15.725 -1.0537 -0.4128  0.5427
17653TIP3    H274451   5.256   4.032  15.579 -1.6281  2.2730  0.2504
17654TIP3   OH274452   1.542   2.377   4.228  0.0780 -0.0803 -0.4825
17654TIP3    H174453   1.543   2.367   4.133 -0.5198 -0.6794 -0.4436
17654TIP3    H274454   1.575   2.293   4.261 -1.8356 -0.7631 -0.1548
17655TIP3   OH274455   5.122   4.428  11.231  0.2703 -0.5853 -0.7353
17655TIP3    H174456   5.079   4.513  11.223  0.0150 -0.8206 -2.3473
17655TIP3    H274457   5.147   4.421  11.323 -1.1991  0.4955 -0.2259
17656TIP3   OH274458   3.508   3.773   3.927  0.3213  0.3878 -0.0793
17656TIP3    H174459   3.424   3.728   3.916  0.7002 -0.6723  1.1186
17656TIP3    H274460   3.569   3.724   3.872  0.4239  0.3440  0.0715
17657TIP3   OH274461   1.171   3.819   3.873  0.2755  0.4143  0.1543
17657TIP3    H174462   1.085   3.860   3.864 -0.1604 -0.6999 -1.3661
17657TIP3    H274463   1.193   3.792   3.783  0.4563 -2.6937  1.0215
17658TIP3   OH274464   3.944   3.369   4.931  0.5748  0.1392 -0.4680
17658TIP3    H174465   4.032   3.355   4.895  0.7938  0.2739  0.0051
17658TIP3    H274466   3.959   3.381   5.025 -0.1405 -1.7218 -0.0812
17659TIP3   OH274467   1.629   0.130   3.318 -0.0581  0.5051 -0.2360
17659TIP3    H174468   1.619   0.042   3.356 -2.4459  0.7438 -0.1415
17659TIP3    H274469   1.583   0.188   3.379  1.3707  1.8410 -0.3650
17660TIP3   OH274470   4.284   5.269  14.677  0.3971  0.3027  0.5983
17660TIP3    H174471   4.239   5.250  14.760  0.9043 -0.2591  0.7542
17660TIP3    H274472   4.347   5.198  14.668  0.2674  0.2993 -0.3364
17661TIP3   OH274473   3.106   0.542  16.600  0.0247 -0.2223 -0.1625
17661TIP3    H174474   3.189   0.535  16.646  0.2804 -0.8870 -0.7070
17661TIP3    H274475   3.058   0.610  16.646  0.1250 -1.1233  1.3268
17662TIP3   OH274476   1.796   5.669  13.972  0.1158 -0.1392  0.1443
17662TIP3    H174477   1.744   5.733  13.924  0.6935  0.3922  0.2182
17662TIP3    H274478   1.777   5.586  13.929 -0.7259  0.0552  0.1202
17663TIP3   OH274479   2.990   5.372   3.372  0.1070  0.7709  0.2516
17663TIP3    H174480   3.061   5.362   3.309 -0.4380  0.4473 -0.3318
17663TIP3    H274481   3.017   5.319   3.447 -0.1253 -0.5087 -0.5186
17664TIP3   OH274482   6.845   1.402  15.697 -0.0156 -0.1451  0.2837
17664TIP3    H174483   6.902   1.478  15.685 -0.5674  0.5512  1.8271
17664TIP3    H274484   6.777   1.413  15.630  1.6370 -1.0454 -1.6465
17665TIP3   OH274485   1.866   5.420   2.198 -0.2984 -0.1711 -0.4733
17665TIP3    H174486   1.864   5.333   2.237  0.7263  0.1465  0.3181
17665TIP3    H274487   1.786   5.462   2.230 -0.7166 -0.7523 -0.7307
17666TIP3   OH274488   3.595   5.307  12.653  0.2769 -0.2322  0.3506
17666TIP3    H174489   3.599   5.223  12.606 -0.1386 -1.4066  2.2957
17666TIP3    H274490   3.548   5.287  12.734  1.5478  1.5199  1.6035
17667TIP3   OH274491   2.441   5.255  12.744  0.2033  0.6829  0.2281
17667TIP3    H174492   2.349   5.233  12.756  0.2881 -1.0935 -1.7451
17667TIP3    H274493   2.488   5.196  12.802  0.1776 -0.8281 -1.1940
17668TIP3   OH274494   4.529   0.487  12.317 -0.0082  0.2686  0.6129
17668TIP3    H174495   4.571   0.456  12.398  1.1051  0.5036  0.1356
17668TIP3    H274496   4.575   0.440  12.247  0.7274  1.8842 -0.0338
17669TIP3   OH274497   5.623   2.671  12.394  0.2156 -0.2762 -0.1085
17669TIP3    H174498   5.603   2.588  12.351 -0.0015 -0.2213 -0.1124
17669TIP3    H274499   5.563   2.674  12.469  1.2189 -0.8087  0.7427
17670TIP3   OH274500   2.617   3.328   4.757 -0.0542 -0.1547  0.0526
17670TIP3    H174501   2.706   3.295   4.744 -0.4100 -1.5145  0.8733
17670TIP3    H274502   2.627   3.400   4.820  0.2889 -1.5833  1.7108
17671TIP3   OH274503   6.285   1.821  13.067  0.4386  0.0267 -0.1598
17671TIP3    H174504   6.239   1.875  13.132  0.7602  1.3368 -0.9754
17671TIP3    H274505   6.333   1.884  13.013  1.0555 -1.1102 -0.9937
17672TIP3   OH274506   0.638   4.628   4.636 -0.1937  0.3814  0.7931
17672TIP3    H174507   0.572   4.561   4.618 -1.8590  2.0788  0.3547
17672TIP3    H274508   0.600   4.682   4.705  1.0333  1.0153  1.0066
17673TIP3   OH274509   6.529   3.198  12.151 -0.4420 -0.0173 -0.1761
17673TIP3    H174510   6.614   3.192  12.107  0.1179  0.5720  0.7949
17673TIP3    H274511   6.538   3.272  12.211 -1.2456 -0.6644  0.7803
17674TIP3   OH274512   6.060   3.707  12.192 -0.0065  0.5544  0.1265
17674TIP3    H174513   6.129   3.695  12.127 -1.3966 -1.3221 -1.1165
17674TIP3    H274514   6.099   3.677  12.274  0.4707 -1.2743 -0.7065
17675TIP3   OH274515   4.809   1.854   2.658 -0.4088 -0.3556 -0.3888
17675TIP3    H174516   4.858   1.787   2.707  1.9994  1.9586  0.6267
17675TIP3    H274517   4.873   1.890   2.597 -1.4071  1.5189 -0.3894
17676TIP3   OH274518   2.816   5.560   4.118 -0.8063 -0.6243  0.4407
17676TIP3    H174519   2.819   5.468   4.090  0.3518 -0.4101 -0.2327
17676TIP3    H274520   2.825   5.556   4.213  2.5475 -1.1671  0.2556
17677TIP3   OH274521   1.207   6.756   3.702  0.0444  0.7654 -0.0581
17677TIP3    H174522   1.222   6.685   3.639  0.4231  1.9005 -1.2975
17677TIP3    H274523   1.286   6.809   3.698 -0.3750  1.4599  0.5897
17678TIP3   OH274524   0.679   5.940  16.421 -0.0020  0.3776 -0.0714
17678TIP3    H174525   0.700   5.889  16.342  2.6488  0.4927  0.4528
17678TIP3    H274526   0.612   5.889  16.465 -1.5584  0.3037 -2.3628
17679TIP3   OH274527   3.957   1.467   1.571 -0.0221 -0.5533  0.4195
17679TIP3    H174528   3.880   1.479   1.627 -1.5088  2.6447 -1.9882
17679TIP3    H274529   3.935   1.393   1.515 -1.1414 -0.0242  0.1267
17680TIP3   OH274530   4.052   5.478  14.568  0.5451  0.0649 -0.6199
17680TIP3    H174531   4.054   5.440  14.656  0.7018 -0.9371 -1.0528
17680TIP3    H274532   3.961   5.505  14.555  0.9979  2.7245  0.8775
17681TIP3   OH274533   0.280   4.786   2.570  0.0106 -0.6095 -0.6858
17681TIP3    H174534   0.327   4.864   2.543 -0.1833  1.5873  4.2665
17681TIP3    H274535   0.331   4.751   2.643 -2.6085 -2.0497  0.5965
17682TIP3   OH274536   2.680   2.424   2.072  0.4133  0.1022  0.4615
17682TIP3    H174537   2.722   2.342   2.099  0.7076  0.5240  1.3390
17682TIP3    H274538   2.700   2.485   2.143  0.6836  1.0974 -0.4373
17683TIP3   OH274539   5.085   5.186   2.178  0.4056 -0.5232  0.3523
17683TIP3    H174540   5.050   5.275   2.182 -0.6325 -0.8841 -0.1731
17683TIP3    H274541   5.120   5.170   2.266  1.7740  0.8323  0.1023
17684TIP3   OH274542   6.785   6.331  11.733  0.1038  0.7007 -0.5251
17684TIP3    H174543   6.828   6.258  11.777 -1.0227  0.4076  0.1121
17684TIP3    H274544   6.854   6.398  11.725  0.5212  0.4949  1.0438
17685TIP3   OH274545   1.811   1.229   4.288 -0.1340  0.1978 -0.0307
17685TIP3    H174546   1.743   1.243   4.223 -0.2746  0.0108  0.0723
17685TIP3    H274547   1.823   1.134   4.289  0.5496  0.2705 -0.4740
17686TIP3   OH274548   4.027   6.230  14.036 -0.2539  0.4521 -0.6427
17686TIP3    H174549   3.977   6.212  13.957  2.5115 -0.8336 -2.2384
17686TIP3    H274550   3.984   6.178  14.104 -0.8672 -0.8792 -2.0027
17687TIP3   OH274551   3.901   5.002  14.162  0.5155  0.0791  0.0667
17687TIP3    H174552   3.829   4.953  14.122  1.0226 -0.3199 -0.3677
17687TIP3    H274553   3.876   5.094  14.150 -0.4279 -0.0535  0.8666
17688TIP3   OH274554   0.333   4.109  16.119  0.3613 -0.2216  0.3969
17688TIP3    H174555   0.297   4.027  16.084 -0.7243 -0.2706  1.5511
17688TIP3    H274556   0.421   4.086  16.148 -0.2541 -1.2569  1.5541
17689TIP3   OH274557   4.536   3.625  14.680  0.1674 -0.0476  0.5765
17689TIP3    H174558   4.573   3.648  14.765 -0.3888  0.2865  0.7265
17689TIP3    H274559   4.528   3.529  14.683  0.2517 -0.0478  0.8517
17690TIP3   OH274560   3.658   1.708  15.786 -0.5663 -0.3529 -0.5521
17690TIP3    H174561   3.612   1.730  15.867 -0.7641  0.3722 -0.8560
17690TIP3    H274562   3.591   1.666  15.731 -0.2017 -1.7102  0.0085
17691TIP3   OH274563   2.509   0.853   1.078  0.0974  0.6117  0.4501
17691TIP3    H174564   2.484   0.766   1.046 -0.1566  1.2698 -1.2617
17691TIP3    H274565   2.603   0.845   1.096  0.6440  0.5605 -2.0082
17692TIP3   OH274566   0.740   6.782   4.419 -0.5876  0.4085 -0.1177
17692TIP3    H174567   0.821   6.775   4.367 -1.4118 -0.7078 -1.3031
17692TIP3    H274568   0.715   6.874   4.410  1.2124  1.1228  1.3683
17693TIP3   OH274569   1.094   2.020   6.055 -0.1329  0.4519 -0.2158
17693TIP3    H174570   1.107   2.107   6.090  0.4631  0.0116  0.6771
17693TIP3    H274571   1.157   2.013   5.983  2.3271 -0.4499  1.9109
17694TIP3   OH274572   6.582   4.786  12.923  0.0429  0.8370 -0.4940
17694TIP3    H174573   6.517   4.743  12.868 -0.6632  0.4765  0.6141
17694TIP3    H274574   6.535   4.857  12.965  0.5780  1.0995 -0.3276
17695TIP3   OH274575   0.222   5.030   3.345 -0.0482 -0.4855 -0.6030
17695TIP3    H174576   0.243   5.085   3.270 -0.1450  1.6814  0.8590
17695TIP3    H274577   0.128   5.045   3.359 -0.0475 -0.9375 -0.1136
17696TIP3   OH274578   3.010   1.224  16.988  0.0744  0.1218 -0.0421
17696TIP3    H174579   2.976   1.155  17.044  2.3565 -0.2329  1.0268
17696TIP3    H274580   3.043   1.290  17.049  0.3827  0.8909 -1.0120
17697TIP3   OH274581   0.260   6.124   6.419  0.2985  0.0454 -0.1515
17697TIP3    H174582   0.261   6.083   6.333 -1.2976  0.3883 -0.3728
17697TIP3    H274583   0.308   6.064   6.476 -0.6813 -1.3752 -0.7813
17698TIP3   OH274584   5.483   1.367   5.067  0.0366 -0.4445  0.1626
17698TIP3    H174585   5.512   1.403   5.150 -2.3765  2.6282 -0.1277
17698TIP3    H274586   5.398   1.327   5.086 -0.3255 -0.1225 -0.7044
17699TIP3   OH274587   2.451   0.741  11.105  0.4302  0.0496 -0.8411
17699TIP3    H174588   2.490   0.722  11.190 -0.1829 -2.0306 -0.9883
17699TIP3    H274589   2.371   0.790  11.126 -1.7276 -3.5454  0.1693
17700TIP3   OH274590   0.507   2.410  14.081  0.1650  0.4693 -0.2691
17700TIP3    H174591   0.513   2.356  14.160 -0.4485  0.4452 -0.2408
17700TIP3    H274592   0.426   2.459  14.091  0.3751  0.8904 -0.6184
17701TIP3   OH274593   4.018   1.544   4.276  0.1230 -0.2093 -1.0106
17701TIP3    H174594   3.973   1.571   4.196  0.3476  1.4442 -0.6156
17701TIP3    H274595   3.993   1.453   4.288 -3.3498  0.6297 -0.6933
17702TIP3   OH274596   1.303   0.019   4.522  0.4203  0.7157  0.1196
17702TIP3    H174597   1.303   0.008   4.618  1.1624  1.2419  0.1851
17702TIP3    H274598   1.252  -0.056   4.490  0.7340  0.1530  0.8893
17703TIP3   OH274599   3.995   0.559   3.950  0.0265  0.0902 -0.5775
17703TIP3    H174600   3.910   0.526   3.976  1.0477  0.8922  4.8719
17703TIP3    H274601   3.981   0.652   3.933 -0.2301  0.2313  0.3622
17704TIP3   OH274602   1.307   3.392   3.028 -0.3869  0.3472  0.6288
17704TIP3    H174603   1.219   3.430   3.034  0.4751  2.3276  1.8343
17704TIP3    H274604   1.314   3.362   2.938 -2.9337 -1.6027  0.9912
17705TIP3   OH274605   2.400   4.079   0.467  0.0925 -0.8068  0.2262
17705TIP3    H174606   2.429   4.075   0.376  0.3597  0.5748  0.2365
17705TIP3    H274607   2.322   4.134   0.466  0.7772  0.2208  0.9765
17706TIP3   OH274608   5.373   2.657   0.508  0.5986  0.1464  0.3417
17706TIP3    H174609   5.401   2.747   0.491  1.3730  0.0307  0.9363
17706TIP3    H274610   5.443   2.603   0.470  0.9575 -0.1586  1.3871
17707TIP3   OH274611   3.636   3.775  14.578  0.1620  0.2315  0.8137
17707TIP3    H174612   3.703   3.787  14.646 -0.4122 -0.7398  1.5847
17707TIP3    H274613   3.553   3.784  14.625 -0.2709 -1.9836  0.5886
17708TIP3   OH274614   0.360   0.777   1.940  0.1366  0.2008 -0.2379
17708TIP3    H174615   0.427   0.718   1.907 -0.4691 -1.2221  0.9291
17708TIP3    H274616   0.280   0.724   1.940 -0.8147  1.5849 -0.8055
17709TIP3   OH274617   4.040   0.459   0.343  0.0593  0.3679 -0.1851
17709TIP3    H174618   4.019   0.416   0.260 -2.9954  0.3848  0.4456
17709TIP3    H274619   4.009   0.397   0.410  0.9120  1.0727  0.8945
17710TIP3   OH274620   3.084   0.805  12.233 -0.4966 -0.5851  0.1207
17710TIP3    H174621   3.178   0.820  12.245 -0.3934 -1.2311  0.1954
17710TIP3    H274622   3.077   0.711  12.217 -1.1336 -0.5407  0.1049
17711TIP3   OH274623   4.519   4.722   4.082 -0.0424  0.1761  0.5383
17711TIP3    H174624   4.424   4.712   4.091 -0.1087  1.9745  2.9634
17711TIP3    H274625   4.553   4.700   4.169  1.8660 -0.8655 -0.4033
17712TIP3   OH274626   6.567   3.568  12.993 -0.6138 -0.1727  0.2515
17712TIP3    H174627   6.489   3.542  13.043  0.3351 -0.7435  1.4786
17712TIP3    H274628   6.611   3.632  13.049  0.1906 -0.4055 -0.1102
17713TIP3   OH274629   0.089   2.243  13.381  0.5812 -0.2466 -0.1848
17713TIP3    H174630   0.111   2.335  13.368  0.4332 -0.2660 -0.6208
17713TIP3    H274631   0.024   2.225  13.313  0.8965 -0.7747 -0.3545
17714TIP3   OH274632   3.841   4.922   2.169 -0.2140 -0.0741  0.3244
17714TIP3    H174633   3.806   4.886   2.251  0.8757 -0.3575  0.6791
17714TIP3    H274634   3.863   4.845   2.116 -1.0615  0.1066 -0.3209
17715TIP3   OH274635   2.730   0.245   4.000 -0.0429 -0.4179  0.1334
17715TIP3    H174636   2.711   0.151   3.993 -0.3292 -0.5199  1.7782
17715TIP3    H274637   2.825   0.249   4.012  0.2124 -0.3490 -1.6384
17716TIP3   OH274638   4.161   4.303   2.539  0.4034  0.1930  0.4766
17716TIP3    H174639   4.093   4.237   2.549  0.7915 -0.1697  0.7869
17716TIP3    H274640   4.173   4.338   2.628 -0.3216  1.2225  0.1976
17717TIP3   OH274641   4.216   2.994   2.428 -0.1768  0.7640  0.3847
17717TIP3    H174642   4.276   3.059   2.391  0.1049  0.7086  0.7353
17717TIP3    H274643   4.272   2.920   2.451 -0.5082  0.3636 -0.0789
17718TIP3   OH274644   2.750   0.825   0.140 -0.0252 -0.2333  0.1290
17718TIP3    H174645   2.747   0.729   0.135  1.0565 -0.2819  0.2984
17718TIP3    H274646   2.773   0.844   0.230 -1.9166  0.2483  0.5476
17719TIP3   OH274647   1.722   5.140   4.074 -0.1880 -0.5950 -0.0606
17719TIP3    H174648   1.815   5.118   4.068 -0.2522 -0.4644 -2.8695
17719TIP3    H274649   1.678   5.073   4.021 -1.8075 -0.9925  1.6773
17720TIP3   OH274650   5.928   0.871  16.569  0.6770 -0.0313 -0.7796
17720TIP3    H174651   5.837   0.887  16.594  1.3102  1.2947  0.8507
17720TIP3    H274652   5.947   0.783  16.602  0.7019  0.6661  1.1979
17721TIP3   OH274653   6.414   2.710   1.267  0.3353 -0.2167 -0.1584
17721TIP3    H174654   6.373   2.640   1.217 -1.1972  1.3087 -1.1424
17721TIP3    H274655   6.406   2.788   1.211  0.6125  1.0778  1.5199
17722TIP3   OH274656   2.634   5.558  11.900 -0.3751  0.3070 -0.4163
17722TIP3    H174657   2.621   5.646  11.865 -1.8814 -0.1859 -1.2007
17722TIP3    H274658   2.690   5.515  11.835  0.3421  0.6823 -0.0435
17723TIP3   OH274659   3.876   2.251   5.422  0.3026 -0.8189  0.2451
17723TIP3    H174660   3.839   2.273   5.507  0.2740 -1.1410  0.3146
17723TIP3    H274661   3.876   2.156   5.419 -1.6516 -0.8266 -0.9610
17724TIP3   OH274662   6.034   1.184  15.993  0.0133  0.1232  0.3954
17724TIP3    H174663   5.973   1.149  15.928 -0.1027  0.4200  0.3377
17724TIP3    H274664   5.984   1.185  16.075  0.6421 -1.6543  0.8309
17725TIP3   OH274665   0.009   0.384  12.135 -0.2443 -0.1915  0.2333
17725TIP3    H174666  -0.037   0.392  12.051 -0.7667 -0.2715  0.5069
17725TIP3    H274667  -0.029   0.453  12.189 -0.6158 -0.7690  0.7191
17726TIP3   OH274668   5.687   1.790  14.001 -0.2321  0.7796 -0.0526
17726TIP3    H174669   5.599   1.760  13.979  0.6874 -1.7220 -0.6694
17726TIP3    H274670   5.677   1.834  14.086 -2.0801  0.7692 -0.2241
17727TIP3   OH274671   0.234   4.693  11.079  0.4284 -0.4778  0.7229
17727TIP3    H174672   0.258   4.717  10.989 -1.1077  0.0095  0.3986
17727TIP3    H274673   0.176   4.764  11.107  0.0160 -1.1822  1.6970
17728TIP3   OH274674   4.645   3.399   3.479  0.5243 -0.2336  0.4574
17728TIP3    H174675   4.647   3.488   3.514 -1.0607 -0.2347  0.6443
17728TIP3    H274676   4.610   3.346   3.550  1.9249 -1.1178  0.5217
17729TIP3   OH274677   0.035   0.863  10.784 -0.3937 -0.4017  0.3823
17729TIP3    H174678   0.094   0.788  10.775 -0.0635 -0.1401  0.3316
17729TIP3    H274679   0.076   0.919  10.850  1.1139  1.3257 -1.8320
17730TIP3   OH274680   1.592   6.111  15.107 -0.6465 -0.0004  0.4286
17730TIP3    H174681   1.601   6.045  15.176  1.0716 -1.1720 -0.8488
17730TIP3    H274682   1.635   6.073  15.031 -0.5022  2.1879 -0.6710
17731TIP3   OH274683   1.189   0.434   2.388 -0.8027 -0.6279  0.6272
17731TIP3    H174684   1.201   0.511   2.331  1.2198 -1.2797  0.0815
17731TIP3    H274685   1.151   0.469   2.469  1.8803  1.3220  1.1628
17732TIP3   OH274686   5.722   2.332  10.799 -1.0312 -0.6618  0.0652
17732TIP3    H174687   5.805   2.337  10.753 -0.1376 -0.3212  1.6594
17732TIP3    H274688   5.743   2.348  10.891 -2.9556  0.2106  0.4217
17733TIP3   OH274689   2.925   0.857  13.352 -0.4181 -0.3455 -0.3394
17733TIP3    H174690   3.012   0.880  13.386 -0.7875  0.7176 -0.0599
17733TIP3    H274691   2.922   0.762  13.356  0.8602 -0.4162 -0.6684
17734TIP3   OH274692   1.667   3.698   1.518 -0.4019 -0.2530 -0.5344
17734TIP3    H174693   1.696   3.614   1.554 -1.4475 -0.1091  0.7271
17734TIP3    H274694   1.747   3.750   1.511  0.3082 -1.4245 -1.5992
17735TIP3   OH274695   4.164   3.579   0.254 -0.2071  0.3714 -0.3099
17735TIP3    H174696   4.244   3.580   0.307 -0.3816 -3.8397  0.3808
17735TIP3    H274697   4.196   3.578   0.163  0.4744  0.0214 -0.0765
17736TIP3   OH274698   2.065   5.253   1.220  0.0979 -0.1779  0.1193
17736TIP3    H174699   1.971   5.266   1.216  0.2944  1.3895  0.0037
17736TIP3    H274700   2.079   5.166   1.181 -1.1802  0.0373 -0.8886
17737TIP3   OH274701   0.570   4.052   0.391 -0.1562  0.2122  0.1495
17737TIP3    H174702   0.476   4.060   0.378 -0.1716 -0.8952 -0.6424
17737TIP3    H274703   0.588   3.959   0.373  1.0534  0.3716  0.4721
17738TIP3   OH274704   1.512   4.130   2.705  0.4390 -0.2685 -0.1806
17738TIP3    H174705   1.479   4.063   2.646  1.1204 -0.5789 -0.2247
17738TIP3    H274706   1.509   4.089   2.792 -1.3681  0.4869  0.1456
17739TIP3   OH274707   6.830   4.475  16.645  0.2512 -0.2619  0.1171
17739TIP3    H174708   6.860   4.535  16.713  0.2847 -0.1831  0.0335
17739TIP3    H274709   6.740   4.502  16.627  0.3532 -0.0648 -0.1090
17740TIP3   OH274710   3.766   4.148   0.344  0.0233  0.0731 -0.2581
17740TIP3    H174711   3.858   4.125   0.333 -0.2855 -0.7101 -1.3100
17740TIP3    H274712   3.754   4.227   0.291  0.0493  0.0840 -0.2483
17741TIP3   OH274713   4.449   2.487   1.338 -0.0262  0.3581  0.2453
17741TIP3    H174714   4.484   2.513   1.252  1.8159 -0.2931  0.7387
17741TIP3    H274715   4.435   2.569   1.385  1.8189  0.6460  0.3525
17742TIP3   OH274716   4.555   3.231  14.360 -0.6183 -0.2581  0.4036
17742TIP3    H174717   4.620   3.163  14.344 -1.3779 -0.6980 -1.0218
17742TIP3    H274718   4.541   3.230  14.455  1.3570 -0.2155  0.7278
17743TIP3   OH274719   0.364   0.183   2.501  0.0670 -0.1816 -0.1717
17743TIP3    H174720   0.419   0.251   2.541 -0.5715 -1.2193  2.6509
17743TIP3    H274721   0.427   0.122   2.462  0.7620  0.3510  0.0982
17744TIP3   OH274722   2.301   1.608   4.299  0.5225  0.2108  0.2719
17744TIP3    H174723   2.397   1.604   4.300  0.5900  1.2638  1.2558
17744TIP3    H274724   2.273   1.517   4.305  1.4638 -0.1156 -0.0564
17745TIP3   OH274725   0.267   3.171  11.425 -0.7239  0.0009  0.3884
17745TIP3    H174726   0.244   3.111  11.354 -0.3319 -0.9907  1.0777
17745TIP3    H274727   0.267   3.257  11.384  1.1113 -0.7042 -1.2415
17746TIP3   OH274728   6.470   6.444  15.817 -0.9376 -0.1296  0.2491
17746TIP3    H174729   6.505   6.530  15.839  1.4147 -1.2522  1.2119
17746TIP3    H274730   6.512   6.384  15.878 -1.6982 -2.1128 -1.0625
17747TIP3   OH274731   1.883   3.399   4.154  0.2260  0.3184  0.3409
17747TIP3    H174732   1.883   3.320   4.208 -1.3926 -0.4066 -0.6337
17747TIP3    H274733   1.971   3.436   4.166  0.3871 -0.5584  2.3149
17748TIP3   OH274734   5.113   1.927  12.203  0.3287  0.0878  0.6607
17748TIP3    H174735   5.115   1.839  12.240 -0.1206  0.3205  1.2392
17748TIP3    H274736   5.157   1.982  12.268  0.9505  0.2400  0.1320
17749TIP3   OH274737   4.295   6.505   0.259 -0.6633  0.0184  0.0174
17749TIP3    H174738   4.329   6.567   0.195 -1.0337 -0.0196 -0.2164
17749TIP3    H274739   4.216   6.547   0.294 -1.4731 -0.7537 -0.8589
17750TIP3   OH274740   6.703   2.594  14.088  0.1379 -0.1819 -0.1315
17750TIP3    H174741   6.637   2.537  14.127 -0.1587  0.8701  0.9521
17750TIP3    H274742   6.786   2.558  14.118 -0.0342 -0.2168  0.3134
17751TIP3   OH274743   1.053   3.652   0.262  0.8920 -0.1068  0.8635
17751TIP3    H174744   0.981   3.698   0.218  0.3789 -0.7364  1.0347
17751TIP3    H274745   1.061   3.569   0.215  0.2783 -0.8250  1.9893
17752TIP3   OH274746   2.957   0.125  14.231 -0.2328  0.1763  0.6554
17752TIP3    H174747   2.898   0.184  14.183 -0.2931 -0.6147 -0.2690
17752TIP3    H274748   3.033   0.180  14.252 -0.7706  0.8837  0.8140
17753TIP3   OH274749   2.779   0.719  14.473  0.2640 -0.1335 -0.1464
17753TIP3    H174750   2.838   0.733  14.547  1.0735 -0.2972 -0.7460
17753TIP3    H274751   2.714   0.789  14.480  0.6751  0.2040  0.3778
17754TIP3   OH274752   1.547   3.216  12.135  0.4431  0.0394  0.1604
17754TIP3    H174753   1.609   3.204  12.207  0.1891  1.2331  0.5953
17754TIP3    H274754   1.493   3.290  12.162  3.8333  4.3916 -3.5579
17755TIP3   OH274755   0.933   5.692  11.723 -0.5227 -0.2282  0.4097
17755TIP3    H174756   0.943   5.604  11.685  0.3752  0.6355 -1.4435
17755TIP3    H274757   0.839   5.706  11.727 -0.7853  0.5989 -4.0313
17756TIP3   OH274758   1.394   1.764  11.135  0.4365  0.8879 -0.3634
17756TIP3    H174759   1.466   1.826  11.119  0.1784  0.5617 -3.1222
17756TIP3    H274760   1.322   1.797  11.082 -1.0247  0.3815  1.2455
17757TIP3   OH274761   0.077   2.193  16.290 -0.0484 -0.1695  0.0906
17757TIP3    H174762  -0.011   2.229  16.304 -0.5006 -1.0766 -0.2872
17757TIP3    H274763   0.065   2.098  16.299  0.1768 -0.6394 -3.2868
17758TIP3   OH274764   1.594   1.211   4.095  0.0123 -0.2367  0.0256
17758TIP3    H174765   1.537   1.163   4.156  0.0241  0.4080  0.5646
17758TIP3    H274766   1.602   1.154   4.019  0.7221 -1.4698  0.9884
17759TIP3   OH274767   4.973   4.739   1.626  0.7260 -0.0879 -0.5780
17759TIP3    H174768   4.888   4.694   1.630  0.2137  0.9410  2.1639
17759TIP3    H274769   4.963   4.801   1.554 -0.2726 -1.0385 -1.3030
17760TIP3   OH274770   4.838   5.829   6.042  0.3620  1.3396 -0.3236
17760TIP3    H174771   4.744   5.810   6.042  0.5264  0.4072  0.5314
17760TIP3    H274772   4.862   5.830   6.134  1.5431 -0.4718 -0.5554
17761TIP3   OH274773   6.073   5.087   4.364 -0.1624 -0.3713 -0.2751
17761TIP3    H174774   6.116   5.173   4.374 -0.9485  0.1145 -1.0019
17761TIP3    H274775   5.981   5.105   4.381 -0.2220 -1.2514  0.4018
17762TIP3   OH274776   5.783   5.086  14.297 -0.5377 -0.0814 -0.1115
17762TIP3    H174777   5.822   5.100  14.383  0.9292 -1.8118 -0.4336
17762TIP3    H274778   5.826   5.149  14.240  0.1493 -0.4627 -0.0172
17763TIP3   OH274779   4.600   1.096   0.306  0.4074  0.5350  0.3246
17763TIP3    H174780   4.640   1.098   0.220  2.0792 -2.4221  0.8825
17763TIP3    H274781   4.516   1.053   0.292  0.0626  1.2949  0.0075
17764TIP3   OH274782   0.091   6.375  14.262 -0.1203  0.4066  0.1937
17764TIP3    H174783   0.141   6.294  14.258 -1.2741 -0.2955 -0.9211
17764TIP3    H274784   0.067   6.394  14.171 -2.1998  0.4498  0.6836
17765TIP3   OH274785   5.426   5.635  10.852  0.2389  0.3234 -0.1430
17765TIP3    H174786   5.502   5.666  10.900 -0.5083  0.6424  0.8602
17765TIP3    H274787   5.462   5.601  10.770  1.6265 -0.9329  0.9264
17766TIP3   OH274788   2.608   6.096   3.483 -0.4666 -0.1560  0.5070
17766TIP3    H174789   2.545   6.031   3.513  1.1438 -0.6619  3.1545
17766TIP3    H274790   2.586   6.176   3.532  0.4453 -0.1370  0.9195
17767TIP3   OH274791   4.024   5.903   4.706  0.2525  0.0916  0.1429
17767TIP3    H174792   3.988   5.975   4.757  0.7890 -0.5884  1.5114
17767TIP3    H274793   4.010   5.929   4.615  0.5758  1.9764  0.6046
17768TIP3   OH274794   4.375   3.493  15.061 -0.3577 -0.3524 -0.1984
17768TIP3    H174795   4.358   3.399  15.073  1.6955 -0.6877  0.5656
17768TIP3    H274796   4.366   3.530  15.149 -0.0882 -0.0291 -0.3064
17769TIP3   OH274797   2.466   5.415   0.476  0.0994  0.5653 -0.0971
17769TIP3    H174798   2.388   5.433   0.529  0.5050  1.9640  0.0602
17769TIP3    H274799   2.470   5.319   0.472 -1.8444  0.4472 -0.4577
17770TIP3   OH274800   3.804   5.457  14.896  0.1522 -0.8238 -0.2661
17770TIP3    H174801   3.900   5.466  14.900 -0.0012  0.6787  2.5597
17770TIP3    H274802   3.772   5.547  14.887 -1.0065 -1.2395 -0.4150
17771TIP3   OH274803   5.852   6.458   4.735  0.3658 -0.0234 -0.4464
17771TIP3    H174804   5.928   6.411   4.699  0.5752 -0.1527  0.1636
17771TIP3    H274805   5.808   6.394   4.791  1.4613  0.8920  1.5573
17772TIP3   OH274806   5.998   3.038   4.182  0.2651  0.0153 -0.0704
17772TIP3    H174807   5.975   3.025   4.274  0.4758 -0.9496 -0.1446
17772TIP3    H274808   5.921   3.009   4.134  0.3124  0.1265 -0.2135
17773TIP3   OH274809   2.751   1.831  16.829  0.6987  0.2448  0.1058
17773TIP3    H174810   2.762   1.767  16.759 -1.9260  0.4804 -0.6159
17773TIP3    H274811   2.747   1.778  16.909 -2.1035 -0.6838 -0.5401
17774TIP3   OH274812   1.463   2.658  14.077  0.6601  0.1982  0.4242
17774TIP3    H174813   1.382   2.683  14.121 -0.4956  0.2558 -1.6281
17774TIP3    H274814   1.515   2.739  14.076  0.8329  0.1379  1.8390
17775TIP3   OH274815   3.640   3.617   0.093 -0.1565 -0.0751 -0.4419
17775TIP3    H174816   3.679   3.695   0.052 -0.4921 -0.2462 -1.1091
17775TIP3    H274817   3.707   3.549   0.082 -0.3165 -0.1660 -0.8766
17776TIP3   OH274818   1.582   0.351   5.904 -0.3505 -0.0977  0.1094
17776TIP3    H174819   1.618   0.384   5.987 -1.0100  1.0658 -0.0403
17776TIP3    H274820   1.592   0.424   5.843 -0.1831 -0.8239 -0.7515
17777TIP3   OH274821   3.637   0.109   2.689  0.3446  0.5264 -0.2426
17777TIP3    H174822   3.580   0.046   2.645 -0.0129  0.0858  0.8180
17777TIP3    H274823   3.725   0.071   2.682  0.7064  1.6041 -2.6060
17778TIP3   OH274824   3.174   5.506  14.217  0.3025 -0.5432  0.9155
17778TIP3    H174825   3.257   5.527  14.259 -0.0880 -0.3985  1.6431
17778TIP3    H274826   3.111   5.565  14.258 -0.0342 -0.1289 -0.1658
17779TIP3   OH274827   1.112   0.832  12.631 -0.6574 -0.1136  0.1824
17779TIP3    H174828   1.127   0.760  12.692  0.0665  0.2858  0.4840
17779TIP3    H274829   1.176   0.898  12.656  1.0166 -0.7015 -2.2379
17780TIP3   OH274830   3.917   6.175  13.763  0.1043 -0.2521 -0.5049
17780TIP3    H174831   3.893   6.099  13.710  0.8454 -0.4356 -0.5935
17780TIP3    H274832   4.012   6.183  13.751  0.8990 -2.1773  3.2006
17781TIP3   OH274833   5.090   6.539  12.826 -0.6145  0.1931  0.0409
17781TIP3    H174834   5.008   6.519  12.870 -0.4120 -0.3236  0.1854
17781TIP3    H274835   5.101   6.469  12.762  1.1103 -1.3593  1.9289
17782TIP3   OH274836   6.075   2.334  16.971  0.1674  0.4519 -0.0677
17782TIP3    H174837   6.037   2.302  16.889 -1.3147 -0.6572  0.9882
17782TIP3    H274838   6.058   2.428  16.971  1.1078  0.6552 -1.4618
17783TIP3   OH274839   0.741   1.367  16.668 -0.1482  0.3597  0.0445
17783TIP3    H174840   0.704   1.450  16.698  1.1835  0.9510  0.1516
17783TIP3    H274841   0.757   1.317  16.748 -0.4295  0.2262  0.0178
17784TIP3   OH274842   4.380   1.514   1.423  0.0146 -0.3441  0.1818
17784TIP3    H174843   4.465   1.550   1.448 -0.2070  1.7563 -1.7845
17784TIP3    H274844   4.328   1.516   1.504  1.3072 -0.1493  1.0422
17785TIP3   OH274845   3.709   2.809   5.075 -0.4086  0.3194 -0.1134
17785TIP3    H174846   3.688   2.902   5.062 -0.4718  0.2990 -0.1582
17785TIP3    H274847   3.681   2.767   4.994  0.0770  0.3357 -0.2897
17786TIP3   OH274848   6.270   1.103  10.827 -0.3817  0.3213  0.0024
17786TIP3    H174849   6.240   1.055  10.751  0.8744 -1.0891  0.3435
17786TIP3    H274850   6.359   1.131  10.804 -0.8645  1.9981  0.0472
17787TIP3   OH274851   4.898   6.619  14.435 -0.1954 -0.3694 -0.0410
17787TIP3    H174852   4.885   6.653  14.523  0.0809  0.9144 -0.4877
17787TIP3    H274853   4.868   6.528  14.440 -0.9958 -0.0568  1.1561
17788TIP3   OH274854   0.805   1.507   4.314 -0.6634 -0.1127  0.8385
17788TIP3    H174855   0.766   1.584   4.273  0.2950  0.0746  0.2487
17788TIP3    H274856   0.786   1.435   4.253  0.4001  0.0880  0.2564
17789TIP3   OH274857   3.595   2.843  11.711 -0.1910 -0.1254  0.0360
17789TIP3    H174858   3.578   2.750  11.700  0.3901 -0.2938  0.5142
17789TIP3    H274859   3.670   2.847  11.770 -0.7533  0.6565  0.7425
17790TIP3   OH274860   2.266   3.756   0.329  0.1721  0.6366  0.3881
17790TIP3    H174861   2.297   3.716   0.410  0.6246 -0.3648 -0.2593
17790TIP3    H274862   2.177   3.723   0.318  0.8369 -0.9049 -0.5767
17791TIP3   OH274863   3.963   3.625   4.859 -0.6371 -0.2184  0.1589
17791TIP3    H174864   3.961   3.678   4.939 -0.6802  0.8163 -0.5030
17791TIP3    H274865   3.944   3.536   4.888 -1.6219  0.3033  1.1733
17792TIP3   OH274866   0.166   5.805  15.435 -0.0074  0.1209 -0.3677
17792TIP3    H174867   0.109   5.875  15.402  1.5376  1.2919 -0.6842
17792TIP3    H274868   0.186   5.832  15.525 -1.0524 -1.0267  0.2437
17793TIP3   OH274869   4.403   3.822   5.409  0.4180  0.6836  0.3700
17793TIP3    H174870   4.434   3.901   5.365 -0.2189  0.0225 -1.3565
17793TIP3    H274871   4.314   3.844   5.438  0.6136  0.9147  0.8141
17794TIP3   OH274872   1.637   1.744   4.968 -0.0561  0.2283 -0.0197
17794TIP3    H174873   1.611   1.664   4.923 -0.8344 -0.0685  0.9283
17794TIP3    H274874   1.662   1.804   4.897 -2.4838  0.2279 -0.9876
17795TIP3   OH274875   5.019   6.812   2.733  0.4351 -0.0295 -0.4425
17795TIP3    H174876   5.054   6.861   2.659 -0.3989  0.6468 -0.4000
17795TIP3    H274877   4.974   6.877   2.787 -0.0679 -0.7189 -0.0039
17796TIP3   OH274878   6.353   5.708  13.806  0.6043 -0.3728 -0.4279
17796TIP3    H174879   6.427   5.657  13.838 -0.1869 -0.2681  1.7490
17796TIP3    H274880   6.325   5.663  13.727  2.4176 -0.9272 -0.8037
17797TIP3   OH274881   0.728   1.454  15.713 -0.1964 -0.4749 -0.5002
17797TIP3    H174882   0.676   1.405  15.649  1.7281 -1.7987 -1.1494
17797TIP3    H274883   0.723   1.402  15.793  0.0466 -0.5767 -0.5481
17798TIP3   OH274884   2.660   6.454  13.486  0.0731  0.0619  0.1198
17798TIP3    H174885   2.747   6.414  13.498  0.6847  1.4478  0.5614
17798TIP3    H274886   2.633   6.426  13.399  0.8681 -0.5757  0.0641
17799TIP3   OH274887   2.492   0.906   1.601 -0.8275 -0.5864  0.4363
17799TIP3    H174888   2.440   0.955   1.538  0.6024  2.6765  1.6010
17799TIP3    H274889   2.429   0.847   1.643 -2.4936 -0.3309 -1.5350
17800TIP3   OH274890   3.328   6.445   6.017 -0.1050 -0.2380 -0.4333
17800TIP3    H174891   3.348   6.499   5.941  2.7712  0.5145  0.6869
17800TIP3    H274892   3.269   6.499   6.070  0.7802  0.8287 -0.4792
17801TIP3   OH274893   3.275   0.709  14.904  0.1708 -1.0126 -0.1233
17801TIP3    H174894   3.307   0.622  14.882 -1.1066 -1.5542  0.0467
17801TIP3    H274895   3.201   0.694  14.962 -1.4590  0.0466 -1.7752
17802TIP3   OH274896   2.985   2.853  13.325  0.0103 -0.0635 -0.1320
17802TIP3    H174897   2.935   2.924  13.284  1.5500  1.6866  0.8292
17802TIP3    H274898   2.999   2.884  13.415  1.3385 -1.2616  0.1049
17803TIP3   OH274899   6.034   1.519  12.794 -0.0353 -0.0335 -0.3155
17803TIP3    H174900   5.987   1.533  12.877  1.3384  0.3686  0.4283
17803TIP3    H274901   5.969   1.536  12.726 -1.4470 -1.2301  0.6675
17804TIP3   OH274902   1.425   3.489   0.945  0.2892 -0.4005 -0.1629
17804TIP3    H174903   1.421   3.458   1.035  1.2655 -0.8022 -0.2494
17804TIP3    H274904   1.518   3.489   0.923  0.1220  0.3356 -0.9529
17805TIP3   OH274905   2.347   5.264   4.745 -0.1787 -0.2976 -0.1608
17805TIP3    H174906   2.255   5.238   4.744  0.1000 -1.3723  0.4773
17805TIP3    H274907   2.386   5.213   4.816  0.4723  1.6940  1.0127
17806TIP3   OH274908   6.523   5.914   2.232  0.0245 -0.0159  0.0123
17806TIP3    H174909   6.479   5.993   2.201  2.4139  1.0762 -0.8064
17806TIP3    H274910   6.457   5.869   2.285 -1.7125  2.0007 -0.3152
17807TIP3   OH274911   5.078   4.735  10.604  0.2116 -0.2308 -0.4532
17807TIP3    H174912   5.001   4.681  10.625 -0.3924 -0.8501 -3.7526
17807TIP3    H274913   5.137   4.677  10.557  2.1630  0.6195  0.7975
17808TIP3   OH274914   1.091   2.701  11.844 -0.2117 -0.7337  0.5590
17808TIP3    H174915   1.120   2.703  11.753 -3.8771  1.4932 -0.7996
17808TIP3    H274916   1.163   2.741  11.893  0.9929  0.0601 -1.6941
17809TIP3   OH274917   5.670   6.641   4.614 -0.1685 -0.3284  0.4826
17809TIP3    H174918   5.727   6.578   4.659 -1.5846 -0.9958  1.4158
17809TIP3    H274919   5.599   6.657   4.676 -0.4906  1.2586 -0.2553
17810TIP3   OH274920   3.440   4.006   0.645  0.6713  0.1879 -0.2199
17810TIP3    H174921   3.416   3.955   0.568  1.4584  1.0230 -1.0489
17810TIP3    H274922   3.417   3.950   0.720 -1.0460 -0.2397 -1.0089
17811TIP3   OH274923   2.083   2.231  12.515  0.0484  0.2594 -0.0109
17811TIP3    H174924   1.994   2.265  12.508  0.0479  0.1161 -0.7962
17811TIP3    H274925   2.091   2.204  12.606 -0.4934  0.8687  0.2260
17812TIP3   OH274926   0.988   4.183  15.043 -0.3106  0.2880 -0.0682
17812TIP3    H174927   0.996   4.096  15.083  0.8321  1.3924  2.3386
17812TIP3    H274928   1.066   4.191  14.987 -0.5022 -0.2844 -0.4238
17813TIP3   OH274929   4.096   5.083  14.836 -0.5796 -0.0749 -0.5972
17813TIP3    H174930   4.024   5.110  14.778 -0.2725  2.2823  0.0104
17813TIP3    H274931   4.057   5.084  14.923 -0.6631 -2.2167 -0.5605
17814TIP3   OH274932   5.785   6.846   5.855 -0.2605  0.0124  0.2886
17814TIP3    H174933   5.850   6.775   5.863 -1.3513 -0.9383  1.1114
17814TIP3    H274934   5.808   6.891   5.774  0.2314 -1.5545 -0.4860
17815TIP3   OH274935   4.315   0.252  15.898 -0.0376 -0.2216 -0.5266
17815TIP3    H174936   4.247   0.307  15.860  0.1004  0.1137 -0.2849
17815TIP3    H274937   4.270   0.169  15.918 -0.2280 -0.2217 -0.9440
17816TIP3   OH274938   2.279   5.132  14.859  0.6124  0.5574  0.4182
17816TIP3    H174939   2.327   5.118  14.940 -0.1999  0.0676  0.8226
17816TIP3    H274940   2.196   5.086  14.871  0.7717 -0.1541 -0.9830
17817TIP3   OH274941   1.382   5.824  16.841 -0.4714  0.0060 -0.1380
17817TIP3    H174942   1.358   5.819  16.933  0.3394 -0.1600  0.0793
17817TIP3    H274943   1.389   5.917  16.822  2.7436  0.1280  0.9498
17818TIP3   OH274944   3.106   6.617   5.257  0.3741 -0.0366  0.0114
17818TIP3    H174945   3.033   6.620   5.195  1.5083 -0.1417 -1.3835
17818TIP3    H274946   3.170   6.557   5.217  1.1158 -0.1825  1.3323
17819TIP3   OH274947   6.641   1.633   4.389 -0.1909 -0.9782 -0.2305
17819TIP3    H174948   6.634   1.593   4.302  1.0813 -2.8709  0.4738
17819TIP3    H274949   6.704   1.578   4.435  0.5915  1.0990  1.2890
17820TIP3   OH274950   1.993   0.705   2.752 -0.0246 -0.6276  0.1245
17820TIP3    H174951   2.056   0.770   2.720 -1.2951  0.9928  0.7177
17820TIP3    H274952   1.929   0.696   2.681  0.3048 -1.4873 -0.0736
17821TIP3   OH274953   2.364   4.684   1.684 -0.2215  0.2617  0.3478
17821TIP3    H174954   2.351   4.729   1.600 -2.6330 -0.8265  0.0522
17821TIP3    H274955   2.307   4.729   1.745  0.6616  0.3238  1.1469
17822TIP3   OH274956   1.572   5.263  14.294 -0.0954 -0.0373  0.0381
17822TIP3    H174957   1.598   5.172  14.277  2.7054  0.7983 -0.6826
17822TIP3    H274958   1.544   5.296  14.208 -1.3807 -0.2523  0.3526
17823TIP3   OH274959   2.537   4.139  13.389 -0.0543 -0.0343  0.0175
17823TIP3    H174960   2.509   4.182  13.309  0.1916 -1.0718 -0.6536
17823TIP3    H274961   2.456   4.112  13.432 -0.1909  0.6300  0.1877
17824TIP3   OH274962   5.450   4.038  16.577 -0.5296 -0.1728  0.5682
17824TIP3    H174963   5.526   4.035  16.635  0.3164 -2.0670 -0.5724
17824TIP3    H274964   5.423   3.947  16.567 -0.2362 -0.0237 -2.4721
17825TIP3   OH274965   3.414   2.611   4.458 -0.0344  0.5181 -0.0393
17825TIP3    H174966   3.452   2.524   4.467  0.6072  1.0337  3.3372
17825TIP3    H274967   3.350   2.616   4.529 -0.5846  2.5547 -0.6288
17826TIP3   OH274968   0.788   5.297  16.066  0.0811 -0.4137 -0.2359
17826TIP3    H174969   0.835   5.361  16.012  0.5271 -0.3692  0.1977
17826TIP3    H274970   0.724   5.350  16.115  0.2660 -0.3368 -0.0779
17827TIP3   OH274971   3.531   2.964   2.331  0.3054 -0.4007  0.3753
17827TIP3    H174972   3.571   2.877   2.331  3.4429  0.9154 -0.4828
17827TIP3    H274973   3.555   3.002   2.415 -1.8792 -0.6019  1.1716
17828TIP3   OH274974   2.968   5.621   3.235 -0.1249 -0.0593  0.7282
17828TIP3    H174975   3.053   5.600   3.197 -0.7372 -1.3984  0.0515
17828TIP3    H274976   2.949   5.548   3.294 -0.6453  0.4166  1.1603
17829TIP3   OH274977   6.587   4.259   3.844  0.6945 -0.7369  0.3486
17829TIP3    H174978   6.514   4.316   3.867 -0.4886 -1.7970 -0.7120
17829TIP3    H274979   6.591   4.262   3.749  2.4639 -0.2090  0.3947
17830TIP3   OH274980   0.433   0.771   0.969  0.1758  0.1904  0.6663
17830TIP3    H174981   0.444   0.680   0.995 -1.4095 -0.0415  0.6713
17830TIP3    H274982   0.378   0.809   1.037 -1.0834  0.5214 -0.4789
17831TIP3   OH274983   0.068   6.096  13.591 -0.1503  0.4659 -0.5176
17831TIP3    H174984   0.079   6.104  13.686  1.5650  0.0122 -0.6490
17831TIP3    H274985   0.022   6.013  13.579 -0.6352  0.6679 -0.0779
17832TIP3   OH274986   3.427   3.820  16.671  0.0538 -0.2536 -0.2488
17832TIP3    H174987   3.499   3.804  16.732 -1.0967 -1.1370  0.9382
17832TIP3    H274988   3.425   3.915  16.660  0.8026 -0.1503  0.4403
17833TIP3   OH274989   1.123   2.315  14.299  0.1249  0.6018 -0.0759
17833TIP3    H174990   1.197   2.367  14.331 -0.2056  1.0612 -0.0391
17833TIP3    H274991   1.056   2.381  14.278 -0.2039  0.2023 -0.2778
17834TIP3   OH274992   5.498   1.760  12.939  0.2108 -0.0981  0.1270
17834TIP3    H174993   5.519   1.736  13.029 -0.6685  0.5945  0.5269
17834TIP3    H274994   5.409   1.797  12.944  0.4246  0.5858 -0.9114
17835TIP3   OH274995   5.164   3.960  11.690 -0.1796 -0.0471 -0.1288
17835TIP3    H174996   5.104   4.026  11.656 -1.1465 -0.6995  0.2556
17835TIP3    H274997   5.181   3.987  11.780 -1.1607 -0.6878  0.2683
17836TIP3   OH274998   2.250   4.407  13.020  0.1055  0.3018 -0.4121
17836TIP3    H174999   2.258   4.419  12.925 -1.4528  3.0250 -0.3193
17836TIP3    H275000   2.259   4.495  13.056 -3.3960  0.0405  1.5652
17837TIP3   OH275001   4.803   1.710   0.520 -0.1326  0.6484 -0.2282
17837TIP3    H175002   4.725   1.757   0.490 -1.7427 -0.7697  1.4751
17837TIP3    H275003   4.769   1.643   0.579  2.0642 -2.4064 -2.1267
17838TIP3   OH275004   3.151   3.635   4.138  0.0063 -0.2713  0.0680
17838TIP3    H175005   3.104   3.718   4.145  1.3689  0.4603  1.0383
17838TIP3    H275006   3.165   3.606   4.228  0.7265 -0.8536 -0.2099
17839TIP3   OH275007   3.371   5.042   1.450 -0.3247 -0.3556  0.2665
17839TIP3    H175008   3.341   4.952   1.456 -0.4854 -0.5658 -2.4540
17839TIP3    H275009   3.330   5.077   1.371  0.1695  1.9415  0.9320
17840TIP3   OH275010   0.526   1.069  13.692 -0.0415  0.1462 -0.3907
17840TIP3    H175011   0.458   1.134  13.670  0.1227 -0.0050 -1.4253
17840TIP3    H275012   0.496   1.029  13.774 -0.6725  0.8064 -0.2915
17841TIP3   OH275013   5.937   1.904  11.488 -0.8422 -0.1865  0.0610
17841TIP3    H175014   5.912   1.982  11.538 -0.9644  0.8556 -1.5356
17841TIP3    H275015   5.855   1.875  11.447 -0.2192  1.1341 -2.3414
17842TIP3   OH275016   1.816   3.436  14.723 -0.7411  0.2669 -0.4330
17842TIP3    H175017   1.867   3.356  14.709 -2.0329 -0.3940 -1.6894
17842TIP3    H275018   1.848   3.497  14.656 -1.7790 -0.2576 -1.4280
17843TIP3   OH275019   6.565   1.166  16.932  0.6318 -0.4562 -0.3400
17843TIP3    H175020   6.632   1.114  16.887  0.6504 -0.5387 -0.2173
17843TIP3    H275021   6.586   1.157  17.024  0.4415 -0.4920 -0.3007
17844TIP3   OH275022   0.517   3.830   1.003  0.4345  0.6725  0.2778
17844TIP3    H175023   0.530   3.898   1.069  1.2511  0.7114  0.0815
17844TIP3    H275024   0.569   3.858   0.928  0.5054  0.0048  0.0706
17845TIP3   OH275025   6.122   5.012   1.543  0.3120  0.0909  0.2632
17845TIP3    H175026   6.068   4.986   1.618 -0.9532  1.8452  0.0173
17845TIP3    H275027   6.120   5.108   1.544  2.4706  0.1974 -0.4848
17846TIP3   OH275028   2.183   4.048  12.112 -0.2293 -0.4130 -0.5404
17846TIP3    H175029   2.187   4.009  12.025 -2.4478 -1.4497 -0.2400
17846TIP3    H275030   2.092   4.038  12.139  0.1624  0.8539  1.4768
17847TIP3   OH275031   1.774   1.251   0.274  1.1644  0.0291  0.0920
17847TIP3    H175032   1.695   1.267   0.223  1.8087 -0.5170 -1.1262
17847TIP3    H275033   1.744   1.200   0.350  0.3289 -0.0369 -0.2738
17848TIP3   OH275034   6.720   3.324  12.785 -0.4546  0.0139 -0.1595
17848TIP3    H175035   6.706   3.243  12.835  3.2746 -0.6695  0.1166
17848TIP3    H275036   6.814   3.323  12.765 -0.6990  3.2059 -2.1260
17849TIP3   OH275037   4.641   0.895   3.368  0.3298 -0.4632  0.2017
17849TIP3    H175038   4.669   0.906   3.459 -0.7490 -1.0159  0.6137
17849TIP3    H275039   4.548   0.873   3.374  0.4692 -1.4472 -0.9960
17850TIP3   OH275040   3.250   0.412  16.364 -0.0854  0.2214 -0.1563
17850TIP3    H175041   3.276   0.472  16.295  0.8702  0.2905  0.2519
17850TIP3    H275042   3.193   0.463  16.421 -1.6503 -0.0842 -1.3545
17851TIP3   OH275043   3.318   4.185   4.623 -0.2801  0.1221  0.1404
17851TIP3    H175044   3.394   4.183   4.681 -0.1563  0.3702 -0.0109
17851TIP3    H275045   3.243   4.197   4.682  0.0594  3.1648  0.1109
17852TIP3   OH275046   5.474   0.687  12.651 -0.0578 -0.3971 -0.0808
17852TIP3    H175047   5.529   0.704  12.574 -1.7550  1.9044 -0.9107
17852TIP3    H275048   5.422   0.610  12.627 -1.3668  0.9338 -1.8191
17853TIP3   OH275049   6.777   0.253   3.138  0.2262  0.4216 -0.2679
17853TIP3    H175050   6.734   0.338   3.129  0.3374  0.4662 -0.3907
17853TIP3    H275051   6.817   0.238   3.052  0.0180  0.1424 -0.3173
17854TIP3   OH275052   3.699   5.586  13.462  0.1168 -0.0268  0.7143
17854TIP3    H175053   3.769   5.617  13.519  0.3190 -1.2509  1.1761
17854TIP3    H275054   3.706   5.490  13.466 -1.1289 -0.1619  0.2080
17855TIP3   OH275055   5.384   5.103  12.511 -0.0327  0.4210 -0.1170
17855TIP3    H175056   5.369   5.012  12.485 -1.3327  1.2779 -2.7077
17855TIP3    H275057   5.475   5.105  12.541 -0.1458 -1.8053  0.5684
17856TIP3   OH275058   1.549   4.876  12.882 -0.0993  0.2982  0.4363
17856TIP3    H175059   1.532   4.782  12.885  0.7240  0.1375  0.1374
17856TIP3    H275060   1.556   4.897  12.789  1.5599  0.3011  0.5270
17857TIP3   OH275061   4.824   2.990  16.778  0.2181  0.5071 -0.2257
17857TIP3    H175062   4.787   2.938  16.707  0.8270 -0.9785  0.5214
17857TIP3    H275063   4.881   3.053  16.734 -0.2777  0.3583 -1.1097
17858TIP3   OH275064   5.123   4.619   3.579 -0.3487  0.1467 -0.2983
17858TIP3    H175065   5.182   4.563   3.631 -0.1706 -0.7331 -1.4107
17858TIP3    H275066   5.036   4.602   3.616 -0.1872 -0.2402 -0.0799
17859TIP3   OH275067   5.514   4.526  15.422 -0.4407  0.2937 -0.0436
17859TIP3    H175068   5.537   4.487  15.338  0.0832  1.3406 -0.3974
17859TIP3    H275069   5.599   4.547  15.462 -0.6582 -0.6252  0.9746
17860TIP3   OH275070   0.223   5.306   5.266 -0.3766 -0.3327  0.1911
17860TIP3    H175071   0.254   5.396   5.275  0.0791 -0.3481 -1.0177
17860TIP3    H275072   0.130   5.314   5.247  0.3362  0.1739 -3.9441
17861TIP3   OH275073   6.016   5.605  13.724  0.4008 -0.8916  0.3217
17861TIP3    H175074   6.057   5.626  13.808 -1.1363  2.4210  0.3961
17861TIP3    H275075   5.932   5.565  13.748  0.7644 -1.6859  0.2955
17862TIP3   OH275076   2.119   1.243   2.460 -1.0461 -0.8627  0.9948
17862TIP3    H175077   2.160   1.197   2.387  2.0415 -1.3384  2.8474
17862TIP3    H275078   2.054   1.181   2.493 -2.5053 -0.6398 -1.2391
17863TIP3   OH275079   2.618   0.577   0.236  0.3801 -0.5402  0.4548
17863TIP3    H175080   2.611   0.516   0.162 -0.0321 -0.3539  0.3355
17863TIP3    H275081   2.562   0.650   0.212 -0.5707 -0.9297  1.3942
17864TIP3   OH275082   3.402   2.971  12.910  0.1293 -0.4145  0.2281
17864TIP3    H175083   3.436   3.026  12.980  0.7941 -1.7786  1.0316
17864TIP3    H275084   3.346   2.908  12.955  1.1235 -1.7553 -0.3433
17865TIP3   OH275085   5.984   4.241   3.714 -0.0788 -0.4684 -0.2085
17865TIP3    H175086   5.914   4.269   3.656 -0.0818 -1.7982 -0.8706
17865TIP3    H275087   5.945   4.173   3.769  0.4428 -0.5745  0.0473
17866TIP3   OH275088   4.198   3.662  12.274  0.1953  0.0036 -0.6139
17866TIP3    H175089   4.250   3.691  12.349 -0.6198 -0.0461 -0.0132
17866TIP3    H275090   4.192   3.739  12.217  1.6726 -0.2428 -1.1436
17867TIP3   OH275091   1.101   2.308  15.311 -0.1896 -0.4861 -0.0832
17867TIP3    H175092   1.084   2.381  15.372  2.5196  0.2068 -0.0426
17867TIP3    H275093   1.026   2.310  15.251 -2.2934 -0.3545  2.3655
17868TIP3   OH275094   4.594   3.173   4.298  0.2288 -0.5510  0.5410
17868TIP3    H175095   4.612   3.079   4.296 -1.9006 -1.0033 -0.4189
17868TIP3    H275096   4.605   3.198   4.390  0.3735 -1.8355  0.8884
17869TIP3   OH275097   3.596   2.009  14.425 -0.0596  0.1920 -0.2353
17869TIP3    H175098   3.687   1.981  14.436 -0.5045 -0.7085  1.5086
17869TIP3    H275099   3.546   1.952  14.484 -1.7094  0.9746 -0.8150
17870TIP3   OH275100   4.705   5.024  17.076 -0.2872  0.2637 -0.0031
17870TIP3    H175101   4.692   4.935  17.044 -1.5511  0.8529 -1.2555
17870TIP3    H275102   4.744   5.013  17.162 -1.5773 -1.5397  0.4216
17871TIP3   OH275103   2.456   0.318  10.727  0.0960 -0.0040 -1.0376
17871TIP3    H175104   2.396   0.387  10.756 -1.2084 -1.0108 -1.2464
17871TIP3    H275105   2.506   0.357  10.655  2.9308  2.3415  1.9129
17872TIP3   OH275106   1.645   6.668  14.136 -0.2066 -0.4213  0.4815
17872TIP3    H175107   1.585   6.702  14.070  1.4276 -1.2684 -1.5472
17872TIP3    H275108   1.730   6.666  14.093  1.1403 -0.1910  2.9326
17873TIP3   OH275109   2.635   3.687  15.297  0.5404  0.1067  0.6705
17873TIP3    H175110   2.672   3.627  15.363  1.6528 -0.2980 -0.2897
17873TIP3    H275111   2.566   3.635  15.255  1.5435 -0.5457 -0.2016
17874TIP3   OH275112   3.309   6.207  10.540 -0.3962  0.0918 -0.2478
17874TIP3    H175113   3.243   6.276  10.532  0.4877  0.7985 -1.9710
17874TIP3    H275114   3.306   6.161  10.457  0.9811 -0.1176 -0.2027
17875TIP3   OH275115   1.359   3.280  12.353 -0.2666  0.0721 -0.3549
17875TIP3    H175116   1.403   3.332  12.420 -1.7526  0.4355  0.3874
17875TIP3    H275117   1.366   3.190  12.385 -2.5822  0.3855  1.3950
17876TIP3   OH275118   5.537   2.802   1.483  0.1190  0.3975 -0.3734
17876TIP3    H175119   5.592   2.729   1.456  1.4096  0.7377  1.1671
17876TIP3    H275120   5.456   2.760   1.514  0.0714 -0.2227 -1.3031
17877TIP3   OH275121   3.588   2.259  12.175 -0.4117  0.6592  0.3985
17877TIP3    H175122   3.497   2.275  12.203  0.2080  0.0640  3.0047
17877TIP3    H275123   3.631   2.343  12.184 -0.5578  0.8246 -0.3554
17878TIP3   OH275124   2.723   3.911  14.011  0.0146 -0.2586 -0.6783
17878TIP3    H175125   2.635   3.883  14.036 -0.0541 -0.2226 -0.8804
17878TIP3    H275126   2.772   3.829  13.999  0.2692 -0.2691  0.3534
17879TIP3   OH275127   2.339   0.405   1.856 -0.1689  0.1877 -0.6700
17879TIP3    H175128   2.273   0.453   1.808  0.2657 -0.2968 -1.7790
17879TIP3    H275129   2.332   0.438   1.946 -1.5163  0.5387 -0.8825
17880TIP3   OH275130   3.107   1.334  10.763  0.0539  0.5810  0.1997
17880TIP3    H175131   3.199   1.353  10.745  0.4254 -0.8244  0.5082
17880TIP3    H275132   3.077   1.288  10.684  0.4672 -1.6020  1.2213
17881TIP3   OH275133   2.189   3.923  14.669 -0.3807  0.1694 -0.1898
17881TIP3    H175134   2.210   3.877  14.751  0.3705  0.3691 -0.2620
17881TIP3    H275135   2.095   3.911  14.658 -0.2836 -0.8990  0.0718
17882TIP3   OH275136   1.667   1.878   5.578  0.1735 -0.2822 -0.3724
17882TIP3    H175137   1.746   1.832   5.606  0.8291  2.1059  1.9878
17882TIP3    H275138   1.693   1.969   5.570 -2.1750  0.4628 -0.3053
17883TIP3   OH275139   6.253   1.031   0.368  0.0442 -0.2231  0.0795
17883TIP3    H175140   6.301   1.112   0.354  0.3280 -0.0212  1.8783
17883TIP3    H275141   6.281   0.973   0.297  0.6706  0.8924 -0.5989
17884TIP3   OH275142   1.072   2.052   2.627 -0.1924 -0.1364 -0.6668
17884TIP3    H175143   0.999   2.062   2.566 -0.3464 -1.5765 -0.7730
17884TIP3    H275144   1.103   2.141   2.644 -0.9817  0.3784 -1.8223
17885TIP3   OH275145   4.245   6.184  11.254  0.1112 -0.7770 -0.5712
17885TIP3    H175146   4.237   6.280  11.252 -2.0909 -0.8712  0.9078
17885TIP3    H275147   4.314   6.165  11.190  1.8120  1.8897  0.2817
17886TIP3   OH275148   6.817   6.459  15.990 -0.1162 -0.1219 -0.2639
17886TIP3    H175149   6.834   6.396  15.920 -0.5754  0.6411 -1.0947
17886TIP3    H275150   6.891   6.520  15.986 -0.5207  0.3540 -0.5908
17887TIP3   OH275151   0.463   3.595   1.257  0.3123 -0.0953  0.4500
17887TIP3    H175152   0.475   3.621   1.348 -0.1357 -0.1802  0.5385
17887TIP3    H275153   0.407   3.518   1.262 -0.2375  0.2701  0.0768
17888TIP3   OH275154   1.856   1.739   0.156  0.1427  0.3429 -0.0788
17888TIP3    H175155   1.842   1.797   0.082  2.1232  1.0074  0.0174
17888TIP3    H275156   1.923   1.678   0.127  0.2728  0.0189  0.8514
17889TIP3   OH275157   2.669   0.213   0.395  0.2513 -0.3812 -0.1173
17889TIP3    H175158   2.745   0.171   0.355  0.2513  0.1279 -0.6663
17889TIP3    H275159   2.615   0.241   0.321 -0.3141 -0.4474  0.2606
17890TIP3   OH275160   0.358   0.382   1.781 -0.4568 -0.3145  0.8897
17890TIP3    H175161   0.439   0.388   1.831 -1.0373  0.0371  1.8112
17890TIP3    H275162   0.384   0.399   1.691  0.4463  0.0652  1.2104
17891TIP3   OH275163   5.314   6.632  12.209 -0.5344 -0.2407 -0.1431
17891TIP3    H175164   5.303   6.726  12.222 -2.4156 -0.3657 -0.5528
17891TIP3    H275165   5.320   6.596  12.297 -0.2903  0.2008  0.0244
17892TIP3   OH275166   4.774   4.788   0.302  0.1019  0.5774 -0.0885
17892TIP3    H175167   4.695   4.813   0.255  0.2757  0.6785 -0.3282
17892TIP3    H275168   4.744   4.771   0.391 -0.3806 -0.5070 -0.4392
17893TIP3   OH275169   5.607   1.576  14.985  0.5428 -0.0461  0.5973
17893TIP3    H175170   5.660   1.622  15.050 -0.9404 -0.1051  1.9147
17893TIP3    H275171   5.522   1.564  15.028 -0.0896 -1.2197 -0.8971
17894TIP3   OH275172   2.696   3.507  14.524 -0.0563  0.2668  0.5227
17894TIP3    H175173   2.721   3.567  14.594 -1.1988  2.1017 -0.5729
17894TIP3    H275174   2.688   3.562  14.447  1.6782 -1.7707 -1.2496
17895TIP3   OH275175   1.684   1.452  11.904  0.6000 -0.2783  0.2757
17895TIP3    H175176   1.708   1.517  11.971 -0.1691 -0.4107  0.6953
17895TIP3    H275177   1.652   1.377  11.954  1.4122 -0.9648 -0.2080
17896TIP3   OH275178   0.500   1.499   1.468  0.1881  0.5245  0.2811
17896TIP3    H175179   0.489   1.408   1.441  0.7392  0.4019  0.4690
17896TIP3    H275180   0.502   1.548   1.385  0.8024  0.2666  0.1398
17897TIP3   OH275181   5.727   0.208   1.453 -0.0593 -0.4485 -0.3118
17897TIP3    H175182   5.741   0.215   1.359  2.3957  0.3532  0.0554
17897TIP3    H275183   5.744   0.116   1.473 -0.7865 -0.6667 -0.6406
17898TIP3   OH275184   1.718   5.619   1.062  0.1593  0.1115 -0.1677
17898TIP3    H175185   1.687   5.530   1.048 -1.4783  0.4646  0.8410
17898TIP3    H275186   1.639   5.667   1.088  1.4604  1.2168  2.0402
17899TIP3   OH275187   2.378   0.517   0.389  0.0228 -0.2070  0.8355
17899TIP3    H175188   2.330   0.457   0.332 -0.0245  1.0578 -0.5336
17899TIP3    H275189   2.456   0.540   0.339  1.1170 -0.7567  2.2391
17900TIP3   OH275190   1.475   5.021   3.070 -0.6301 -0.1162  0.2091
17900TIP3    H175191   1.464   5.073   2.990 -2.1797 -0.7475 -0.0187
17900TIP3    H275192   1.403   5.048   3.127 -0.7299 -1.1308  0.5833
17901TIP3   OH275193   1.998   0.613  14.056 -0.0451  0.3068  0.0997
17901TIP3    H175194   1.951   0.679  14.107  1.5074  1.5736 -0.0298
17901TIP3    H275195   2.025   0.660  13.976 -1.5519 -1.3540 -1.4905
17902TIP3   OH275196   6.402   6.016   6.486 -0.0116 -0.1887 -0.3522
17902TIP3    H175197   6.482   5.969   6.466  0.0493 -0.6230  0.8693
17902TIP3    H275198   6.430   6.094   6.533 -0.3825 -1.1618  1.5501
17903TIP3   OH275199   1.534   1.235   0.139  0.1935 -0.2971  0.0147
17903TIP3    H175200   1.458   1.184   0.167 -0.5173  1.1908  0.9384
17903TIP3    H275201   1.498   1.319   0.112  1.3618 -0.1472 -1.1537
17904TIP3   OH275202   2.973   4.408  16.141 -0.0671  0.6248  0.0149
17904TIP3    H175203   2.898   4.427  16.084 -0.8996  1.2441  1.2727
17904TIP3    H275204   3.023   4.342  16.093 -2.2476 -1.0056 -0.1733
17905TIP3   OH275205   0.494   6.589  14.819 -0.4636 -0.0006 -0.1321
17905TIP3    H175206   0.461   6.499  14.826 -0.9119  0.2657  1.6744
17905TIP3    H275207   0.435   6.632  14.757  0.0027 -1.0376 -1.3343
17906TIP3   OH275208   1.311   1.835  10.882  0.1769 -0.2005 -0.2700
17906TIP3    H175209   1.261   1.835  10.800 -0.9476  1.8126  0.3643
17906TIP3    H275210   1.403   1.831  10.854 -0.1958  0.2584 -1.6324
17907TIP3   OH275211   4.335   0.369   4.656  1.1795 -0.3125  0.2851
17907TIP3    H175212   4.307   0.300   4.596 -0.8780  0.2670  0.5003
17907TIP3    H275213   4.321   0.450   4.606  0.4018  0.1085  1.1590
17908TIP3   OH275214   0.097   4.122  15.369 -0.0026  0.1229 -0.3304
17908TIP3    H175215   0.156   4.099  15.441  0.2538  0.2779 -0.4909
17908TIP3    H275216   0.068   4.211  15.390 -0.3019 -0.0095 -0.1715
17909TIP3   OH275217   6.488   1.578  12.621  0.4856  0.3909  1.2196
17909TIP3    H175218   6.542   1.515  12.574 -0.1271  1.7640 -1.5576
17909TIP3    H275219   6.544   1.655  12.631 -0.3395  1.1959 -0.0965
17910TIP3   OH275220   4.147   3.223   2.584 -0.0541  0.3344 -0.1931
17910TIP3    H175221   4.215   3.172   2.541  0.2278 -0.4885  1.1617
17910TIP3    H275222   4.131   3.297   2.526  0.1780 -0.8128 -1.7683
17911TIP3   OH275223   6.372   5.579   4.352  0.3639  0.1932  0.1658
17911TIP3    H175224   6.300   5.636   4.377  0.4432 -0.0157  0.9001
17911TIP3    H275225   6.408   5.618   4.272  1.4969  2.1400  1.5481
17912TIP3   OH275226   3.532   1.538  13.141 -0.7782  0.0655  0.2975
17912TIP3    H175227   3.494   1.496  13.065 -0.4430 -1.0438  0.7167
17912TIP3    H275228   3.538   1.631  13.118 -0.2422 -0.3192 -1.2033
17913TIP3   OH275229   0.996   2.220   3.095 -0.4421  0.1285  0.4261
17913TIP3    H175230   1.036   2.289   3.148  1.9264 -1.0790  0.3529
17913TIP3    H275231   0.962   2.266   3.018  1.4462  1.2391  0.1637
17914TIP3   OH275232   0.188   3.339  14.388  0.0067  0.0451 -0.4273
17914TIP3    H175233   0.114   3.323  14.330 -0.2309  1.7634 -0.6425
17914TIP3    H275234   0.251   3.271  14.365 -1.6279 -1.7478  0.0635
17915TIP3   OH275235   4.755   5.287  15.069  0.0099 -0.7049 -0.0095
17915TIP3    H175236   4.797   5.232  15.135 -1.2472 -0.2657  1.2113
17915TIP3    H275237   4.827   5.337  15.031  0.9288 -1.8754  0.1237
17916TIP3   OH275238   3.107   3.621  14.504  0.1406  0.9392 -0.2627
17916TIP3    H175239   3.166   3.551  14.533 -1.8522 -0.8680 -0.3472
17916TIP3    H275240   3.118   3.690  14.570  1.2545  0.0495  0.5221
17917TIP3   OH275241   3.617   1.745  11.384  0.4260 -0.0084 -0.0228
17917TIP3    H175242   3.626   1.679  11.316  0.5006 -0.2654  0.2330
17917TIP3    H275243   3.570   1.817  11.342  0.4046 -0.1956 -0.3220
17918TIP3   OH275244   2.443   4.137  11.919  0.1562 -0.0665 -0.0043
17918TIP3    H175245   2.437   4.045  11.892  0.9258  0.2515 -1.3600
17918TIP3    H275246   2.423   4.136  12.012 -2.0456 -1.3148 -0.4315
17919TIP3   OH275247   6.549   1.350   5.943 -0.2954  0.1412 -0.0280
17919TIP3    H175248   6.466   1.318   5.907 -0.0819  1.4275 -1.8050
17919TIP3    H275249   6.527   1.434   5.983  0.1437  0.5172 -0.5614
17920TIP3   OH275250   5.039   5.998  16.666  1.1070 -0.0508 -0.6445
17920TIP3    H175251   5.035   6.093  16.654  2.6225 -0.1788 -2.8883
17920TIP3    H275252   5.112   5.985  16.728  0.4057  0.2402  0.2658
17921TIP3   OH275253   6.845   4.736   3.559  0.5437 -0.2614 -0.4567
17921TIP3    H175254   6.774   4.758   3.619  1.5850  0.3782  0.5956
17921TIP3    H275255   6.911   4.693   3.614  1.4074  0.0983 -1.1732
17922TIP3   OH275256   4.563   4.233   0.088  0.2632 -0.0822  0.0928
17922TIP3    H175257   4.629   4.167   0.109 -1.7158 -1.8295  1.1930
17922TIP3    H275258   4.552   4.283   0.169  0.7196  0.7175 -0.3154
17923TIP3   OH275259   6.479   0.491  14.354 -0.2198  0.0776 -0.0811
17923TIP3    H175260   6.552   0.518  14.299  0.1088  1.4358  0.9502
17923TIP3    H275261   6.481   0.395  14.353  3.1054 -0.0158  1.7836
17924TIP3   OH275262   2.403   2.250   4.504  0.5717 -0.0437  0.4175
17924TIP3    H175263   2.395   2.209   4.418  1.1434 -0.6923  0.6591
17924TIP3    H275264   2.437   2.337   4.486  0.2890 -0.0271 -0.0445
17925TIP3   OH275265   2.605   1.624   0.923  0.6255 -0.0953 -0.1460
17925TIP3    H175266   2.700   1.641   0.924  0.8247 -1.1733  0.6128
17925TIP3    H275267   2.597   1.530   0.939 -0.5918  0.0064 -0.0709
17926TIP3   OH275268   2.125   2.916  13.147  0.8090  0.3730 -0.4467
17926TIP3    H175269   2.100   2.848  13.084  2.3147 -0.5208 -0.1278
17926TIP3    H275270   2.048   2.973  13.153 -0.4490 -1.2172 -0.8262
17927TIP3   OH275271   1.454   0.895  11.484 -0.2582 -0.2766  0.1722
17927TIP3    H175272   1.399   0.957  11.436 -0.6409 -0.8846 -0.1766
17927TIP3    H275273   1.436   0.810  11.444  0.3996 -0.5914  0.5277
17928TIP3   OH275274   5.245   6.682  16.182  0.0534  0.2503  0.1681
17928TIP3    H175275   5.189   6.757  16.203  1.5459  1.5305 -0.2458
17928TIP3    H275276   5.323   6.694  16.236  0.9265 -0.2079 -0.9540
17929TIP3   OH275277   6.003   1.289   1.051  0.6954 -0.1540 -0.2376
17929TIP3    H175278   6.011   1.239   1.132  1.8052 -0.8603 -0.7555
17929TIP3    H275279   6.070   1.357   1.058  1.2079 -0.5869 -0.8046
17930TIP3   OH275280   5.406   6.098  12.047  0.1871 -0.1682  0.3466
17930TIP3    H175281   5.464   6.113  11.973  2.1703 -0.0764  1.8291
17930TIP3    H275282   5.389   6.003  12.046  0.6248 -0.2447  0.0667
17931TIP3   OH275283   0.003   2.131  15.651 -0.1238 -0.0263  0.3469
17931TIP3    H175284  -0.046   2.128  15.568  1.2435 -0.8888 -0.4598
17931TIP3    H275285  -0.048   2.191  15.706 -1.0923  0.5346 -1.0869
17932TIP3   OH275286   5.396   2.357  14.530 -0.7434  0.0043  0.2224
17932TIP3    H175287   5.365   2.422  14.594 -0.0208 -0.0648  0.6512
17932TIP3    H275288   5.476   2.322  14.568 -1.2579 -1.3357  0.1117
17933TIP3   OH275289   2.894   4.137   2.702 -0.4782  0.1421  0.1102
17933TIP3    H175290   2.819   4.106   2.751  2.0455 -2.2095  2.9091
17933TIP3    H275291   2.933   4.204   2.757  1.2191 -1.0244  0.4200
17934TIP3   OH275292   3.813   5.558   5.676 -0.0237  0.0021  0.0603
17934TIP3    H175293   3.791   5.606   5.756 -0.6543 -1.9276  1.1161
17934TIP3    H275294   3.895   5.597   5.647 -0.1451  1.2309  1.2552
17935TIP3   OH275295   2.023   0.271  10.548 -0.3674 -0.0485  0.4151
17935TIP3    H175296   2.085   0.238  10.613 -0.6249  1.1603  1.3087
17935TIP3    H275297   2.029   0.366  10.555 -3.1095  0.1449  1.3420
17936TIP3   OH275298   4.700   4.438  16.842 -0.2480 -0.0448 -0.8173
17936TIP3    H175299   4.648   4.496  16.787 -0.3604 -0.3931 -1.0837
17936TIP3    H275300   4.662   4.447  16.930  0.2894  0.9357 -0.6742
17937TIP3   OH275301   6.738   6.184  12.560 -0.5723  0.0352  0.5760
17937TIP3    H175302   6.784   6.232  12.629 -0.8481 -0.4863  1.1352
17937TIP3    H275303   6.738   6.243  12.485  1.3405 -0.0727  0.4237
17938TIP3   OH275304   2.314   3.893   0.009  0.2382  0.3282  0.1234
17938TIP3    H175305   2.363   3.975   0.002 -0.7059  0.8945 -0.0478
17938TIP3    H275306   2.232   3.910  -0.038  0.3116 -0.9368 -0.4953
17939TIP3   OH275307   4.328   1.363  14.968  0.3817  0.3678  0.0868
17939TIP3    H175308   4.296   1.452  14.955  0.1619  0.2347 -0.3112
17939TIP3    H275309   4.361   1.336  14.882  0.8265  0.2134  0.3033
17940TIP3   OH275310   1.936   2.567  14.317 -0.5042  0.0209 -0.0056
17940TIP3    H175311   1.994   2.567  14.394 -1.0363  0.3921  0.4058
17940TIP3    H275312   1.886   2.649  14.326 -0.1954  0.3296 -1.0342
17941TIP3   OH275313   1.755   3.029  13.380 -0.1581 -0.1368 -0.1182
17941TIP3    H175314   1.720   2.940  13.385 -0.2966 -0.0066  1.8890
17941TIP3    H275315   1.772   3.054  13.471  2.5574  0.8519 -0.7917
17942TIP3   OH275316   3.549   5.954   2.865 -0.4056 -0.2517 -0.1420
17942TIP3    H175317   3.563   5.974   2.773  2.8891  3.3326  0.8722
17942TIP3    H275318   3.464   5.992   2.886 -0.5884  0.0559 -1.4122
17943TIP3   OH275319   2.084   1.056  15.855 -0.3547  0.0325 -0.1635
17943TIP3    H175320   2.062   1.149  15.861 -0.7410 -0.1186  1.1860
17943TIP3    H275321   2.180   1.055  15.847 -0.4937  0.5887 -2.4961
17944TIP3   OH275322   3.815   0.621  11.045 -0.3365  0.5315  0.2731
17944TIP3    H175323   3.776   0.705  11.071 -0.4206  0.0083  1.9695
17944TIP3    H275324   3.758   0.589  10.974 -0.3007  1.8819 -0.3993
17945TIP3   OH275325   1.077   1.979   4.874  0.3691  0.2328 -0.1813
17945TIP3    H175326   1.129   1.966   4.953 -0.2322  0.3950  0.2520
17945TIP3    H275327   1.039   1.893   4.856  0.0630  0.3192  0.0339
17946TIP3   OH275328   6.001   5.197  16.946  0.2296  0.1109 -0.0447
17946TIP3    H175329   6.025   5.226  16.858 -0.5815 -1.5990 -0.8801
17946TIP3    H275330   5.974   5.276  16.991  0.4313  0.9860 -1.4151
17947TIP3   OH275331   5.706   1.530  14.270  0.8770 -0.1643  0.0660
17947TIP3    H175332   5.743   1.572  14.347 -0.6676  0.8032  0.3260
17947TIP3    H275333   5.763   1.555  14.198 -0.4419  3.2049  0.0431
17948TIP3   OH275334   2.251   6.301  12.096  0.3670 -0.4386  0.6947
17948TIP3    H175335   2.168   6.323  12.053  0.3193 -1.4574  0.2147
17948TIP3    H275336   2.296   6.384  12.106 -1.1448  0.2770  1.9061
17949TIP3   OH275337   4.116   4.725  15.787  0.0187 -0.1407 -0.1873
17949TIP3    H175338   4.182   4.681  15.735  0.8206  0.5323  0.2388
17949TIP3    H275339   4.148   4.719  15.877 -1.1212 -0.8962  0.1947
17950TIP3   OH275340   5.622   2.262  12.365 -0.1592 -0.0990  0.5458
17950TIP3    H175341   5.613   2.207  12.287  1.7775  0.0841  0.1634
17950TIP3    H275342   5.562   2.335  12.350  0.7224  0.3116 -1.1272
17951TIP3   OH275343   5.294   1.778   3.687  0.1718  0.3081 -0.1448
17951TIP3    H175344   5.294   1.776   3.782  0.5037 -0.3736 -0.1542
17951TIP3    H275345   5.279   1.687   3.661 -0.0380  0.5067 -0.7425
17952TIP3   OH275346   2.019   6.122   2.575 -0.2144 -0.2645 -0.0498
17952TIP3    H175347   1.967   6.148   2.500 -0.2677  0.8075  0.3397
17952TIP3    H275348   1.972   6.047   2.612 -1.1110  0.2594 -0.1032
17953TIP3   OH275349   0.997   4.478  14.213  0.0230  0.2174  0.3266
17953TIP3    H175350   0.905   4.492  14.235  0.2067  0.9780  0.6461
17953TIP3    H275351   1.038   4.564  14.224  0.4675  0.2568 -1.3521
17954TIP3   OH275352   1.211   6.774   2.657 -0.0836  0.4306 -0.5698
17954TIP3    H175353   1.244   6.739   2.574 -1.5545 -1.5092 -0.3993
17954TIP3    H275354   1.138   6.831   2.631  0.0241  0.5427 -0.6343
17955TIP3   OH275355   1.340   6.567  15.176 -0.8645  0.3981  0.6786
17955TIP3    H175356   1.269   6.585  15.115  0.3303  1.1497 -0.5466
17955TIP3    H275357   1.298   6.524  15.250 -2.4732  0.1763 -0.3241
17956TIP3   OH275358   5.365   2.710  14.046 -0.5093  0.2020 -0.2835
17956TIP3    H175359   5.413   2.781  14.004 -0.7202  1.4273  1.4465
17956TIP3    H275360   5.371   2.730  14.140 -1.6987 -1.3584  0.1542
17957TIP3   OH275361   3.584   1.283  10.900  0.3200 -0.2477  0.8271
17957TIP3    H175362   3.592   1.256  10.808  0.1864 -2.0586  1.3135
17957TIP3    H275363   3.491   1.300  10.913  0.0724 -1.7288  1.0687
17958TIP3   OH275364   5.956   2.381  10.630 -0.1807 -0.1719  0.4207
17958TIP3    H175365   6.035   2.348  10.673 -0.5243 -0.2559  1.0020
17958TIP3    H275366   5.933   2.313  10.566  0.8287  0.3541 -0.5345
17959TIP3   OH275367   0.684   0.699  10.914 -0.4207 -0.2476 -0.6649
17959TIP3    H175368   0.604   0.733  10.873 -0.3827  1.0158  0.2569
17959TIP3    H275369   0.743   0.774  10.917 -0.0584 -0.5696  0.7708
17960TIP3   OH275370   1.661   3.221  15.463 -0.3705  0.4936  0.5602
17960TIP3    H175371   1.678   3.232  15.557 -0.9131  1.5331  0.5626
17960TIP3    H275372   1.570   3.192  15.459 -0.0323 -0.5627  0.3859
17961TIP3   OH275373   0.445   4.845  12.616  0.0940  0.8764  0.8334
17961TIP3    H175374   0.387   4.796  12.559  0.4580  1.5991 -0.1866
17961TIP3    H275375   0.422   4.816  12.704  1.2466 -2.1914  0.2443
17962TIP3   OH275376   5.554   2.692  15.599  0.0183 -0.7314  0.3191
17962TIP3    H175377   5.597   2.745  15.533  0.5187 -1.9744 -0.3897
17962TIP3    H275378   5.475   2.742  15.623 -0.0406 -0.1426 -1.0305
17963TIP3   OH275379   0.652   1.289   1.677 -0.5912  0.6245 -0.5494
17963TIP3    H175380   0.600   1.209   1.669 -1.3855  1.0743 -0.0644
17963TIP3    H275381   0.650   1.327   1.590 -0.0516  0.0218 -0.8290
17964TIP3   OH275382   2.059   4.824  14.221 -0.4172 -0.2347  0.1808
17964TIP3    H175383   2.097   4.863  14.142  0.1704  0.0244  0.5871
17964TIP3    H275384   2.134   4.811  14.280 -0.4279 -2.7192 -0.2311
17965TIP3   OH275385   5.802   0.233   4.341  0.1472  0.0440 -0.6817
17965TIP3    H175386   5.763   0.281   4.267 -2.6994 -1.1281 -0.0968
17965TIP3    H275387   5.876   0.287   4.368  0.2149  1.4223 -3.2476
17966TIP3   OH275388   1.178   4.465  11.512 -0.3856 -0.3014  0.1458
17966TIP3    H175389   1.100   4.520  11.503 -0.7681 -0.8868 -0.2138
17966TIP3    H275390   1.144   4.376  11.518  0.2374 -0.5204  0.5151
17967TIP3   OH275391   5.292   3.442   1.239  0.7302 -0.6322  0.5110
17967TIP3    H175392   5.343   3.446   1.320  0.8283 -1.0147  0.4724
17967TIP3    H275393   5.291   3.349   1.216  1.2510 -0.4545 -0.2783
17968TIP3   OH275394   4.442   1.844   5.171 -0.2115  0.4881 -0.1596
17968TIP3    H175395   4.450   1.750   5.152  1.0249  0.5075  0.2016
17968TIP3    H275396   4.530   1.879   5.156 -0.6653  1.5992 -0.3087
17969TIP3   OH275397   6.023   6.230   2.958  0.1906 -0.1123  0.1123
17969TIP3    H175398   6.097   6.182   2.922  0.3220  1.1298 -1.3500
17969TIP3    H275399   6.062   6.287   3.025  0.3198 -0.5915  0.4483
17970TIP3   OH275400   5.981   4.402  13.503 -0.0319 -0.7030 -0.6635
17970TIP3    H175401   5.950   4.485  13.466 -1.1729 -1.2553 -0.9890
17970TIP3    H275402   6.041   4.367  13.437  2.8652  1.2189  0.7290
17971TIP3   OH275403   5.361   1.546   4.132 -0.6543  0.2264 -0.0371
17971TIP3    H175404   5.337   1.630   4.171 -1.8415 -0.1488  0.0632
17971TIP3    H275405   5.284   1.520   4.082 -1.3071 -2.0073  1.9722
17972TIP3   OH275406   0.493   2.574   2.789 -0.6584 -0.7476 -0.3253
17972TIP3    H175407   0.540   2.620   2.720 -0.3933 -0.1719  0.2311
17972TIP3    H275408   0.408   2.619   2.793 -0.0107  0.4291  0.9447
17973TIP3   OH275409   2.138   2.668  11.296  0.2898  0.0246  0.1334
17973TIP3    H175410   2.094   2.601  11.245  0.6539 -0.1912  0.1027
17973TIP3    H275411   2.096   2.664  11.382 -1.3767  1.4009 -0.5486
17974TIP3   OH275412   2.000   1.707  10.793  0.7363 -0.3324  0.0029
17974TIP3    H175413   1.936   1.771  10.763  0.6972 -0.8740 -1.1035
17974TIP3    H275414   2.058   1.757  10.851 -1.2268 -0.0420  1.8381
17975TIP3   OH275415   0.367   0.792  16.801 -0.5106 -0.2697  0.3163
17975TIP3    H175416   0.419   0.828  16.872 -0.2380  0.1170 -0.0689
17975TIP3    H275417   0.303   0.735  16.844 -1.3294  1.1186  1.0095
17976TIP3   OH275418   6.677   3.004  12.449 -0.1255 -0.4012  0.2185
17976TIP3    H175419   6.728   3.069  12.400  0.0620 -2.1651 -2.0919
17976TIP3    H275420   6.586   3.024  12.427 -0.0946 -0.5996 -0.1022
17977TIP3   OH275421   6.364   4.788  13.480 -0.4088  0.0482 -0.2304
17977TIP3    H175422   6.454   4.764  13.501  0.6008  0.8458 -3.1831
17977TIP3    H275423   6.362   4.883  13.489 -1.2896 -0.0627  0.8632
17978TIP3   OH275424   6.768   2.749   0.518  0.1184 -0.4407  1.4697
17978TIP3    H175425   6.679   2.771   0.545  0.0913 -0.8946  1.7568
17978TIP3    H275426   6.817   2.831   0.529 -0.5592  0.2069 -0.0529
17979TIP3   OH275427   6.769   0.264  14.450 -0.2647 -0.5006 -0.1052
17979TIP3    H175428   6.767   0.202  14.523 -0.2625  1.1259  1.3491
17979TIP3    H275429   6.799   0.346  14.489 -2.5236  1.0715 -1.4222
17980TIP3   OH275430   2.878   1.760   4.204  0.2720 -0.0080 -0.4704
17980TIP3    H175431   2.793   1.795   4.177  1.4871  0.7365 -3.7793
17980TIP3    H275432   2.942   1.813   4.157  2.4798 -2.2526 -0.1928
17981TIP3   OH275433   3.968   6.192  16.569  0.5832  0.5737 -0.2831
17981TIP3    H175434   4.058   6.200  16.599  1.1400 -0.7831 -1.4456
17981TIP3    H275435   3.975   6.157  16.480 -1.0784  0.9573 -0.6094
17982TIP3   OH275436   3.103   4.084   6.376  0.6977  0.4202 -0.0868
17982TIP3    H175437   3.153   4.094   6.295  2.3990  1.0281  0.9773
17982TIP3    H275438   3.107   4.170   6.418  0.7316 -0.1503  1.1192
17983TIP3   OH275439   4.410   4.055   3.093  0.1075 -0.3058 -0.6049
17983TIP3    H175440   4.338   3.997   3.116  2.5098 -2.7690  1.3539
17983TIP3    H275441   4.450   4.015   3.016  2.0447 -1.7121  1.0146
17984TIP3   OH275442   5.822   4.645  14.469 -0.0043 -0.1549  0.1150
17984TIP3    H175443   5.748   4.694  14.433 -0.3128 -1.3208 -0.8846
17984TIP3    H275444   5.876   4.624  14.393  1.1729  0.3266  0.7770
17985TIP3   OH275445   3.987   3.931   6.277  0.3890  0.0555 -0.2183
17985TIP3    H175446   4.073   3.903   6.307  1.3621  0.7725 -2.1159
17985TIP3    H275447   3.929   3.916   6.351  2.0401 -0.9446  0.9399
17986TIP3   OH275448   5.242   5.824   0.538  0.1684 -0.0765  0.5423
17986TIP3    H175449   5.157   5.780   0.534 -0.2231  0.5525  1.5653
17986TIP3    H275450   5.298   5.773   0.479 -1.1991  0.1486 -1.0349
17987TIP3   OH275451   2.157   5.232  12.799  0.1268 -0.7874 -0.0019
17987TIP3    H175452   2.077   5.284  12.788 -0.5444 -1.4001  1.6953
17987TIP3    H275453   2.207   5.278  12.866  1.0463 -0.6213 -0.7764
17988TIP3   OH275454   2.372   2.305  10.861  0.1389 -0.2636 -0.0672
17988TIP3    H175455   2.409   2.217  10.850  1.0093  0.1291 -0.4749
17988TIP3    H275456   2.293   2.293  10.913  0.0425 -1.3328 -0.4424
17989TIP3   OH275457   0.023   5.801  13.971 -0.0388  0.0898 -0.3230
17989TIP3    H175458   0.033   5.780  14.063 -0.7918  1.3925  0.0888
17989TIP3    H275459   0.082   5.741  13.925 -0.6174 -1.4615  0.8801
17990TIP3   OH275460   4.907   6.825   3.084  0.8926 -0.1279 -0.3930
17990TIP3    H175461   4.941   6.913   3.068  0.4304  0.7278  2.7479
17990TIP3    H275462   4.813   6.838   3.098  0.6606 -1.2685 -0.8298
17991TIP3   OH275463   0.258   2.892   4.170  0.0860 -0.4220 -0.2736
17991TIP3    H175464   0.309   2.813   4.152  3.1694  1.3046  0.2815
17991TIP3    H275465   0.275   2.950   4.096 -1.4511  0.1026 -0.2638
17992TIP3   OH275466   6.033   4.682   5.430 -0.0528 -0.1814  0.6022
17992TIP3    H175467   6.019   4.717   5.518  0.8568 -1.0245  1.0959
17992TIP3    H275468   6.125   4.698   5.412 -0.1519 -0.3321 -0.0632
17993TIP3   OH275469   0.802   4.704   2.704 -0.4191  0.1263 -0.5499
17993TIP3    H175470   0.844   4.638   2.759 -0.2575  0.5152 -0.1980
17993TIP3    H275471   0.791   4.661   2.619  1.4950  0.2734 -0.9233
17994TIP3   OH275472   4.146   0.093   5.260 -0.0504  0.0857 -0.2363
17994TIP3    H175473   4.125   0.114   5.351 -2.0359 -0.1053 -0.6108
17994TIP3    H275474   4.107   0.165   5.210 -3.9286 -2.4345 -1.2700
17995TIP3   OH275475   4.826   6.708   0.092  0.1653  0.2020 -0.0609
17995TIP3    H175476   4.862   6.622   0.069 -2.7751 -1.3340  0.4691
17995TIP3    H275477   4.811   6.702   0.187  1.5341  2.0318  0.3214
17996TIP3   OH275478   5.677   2.304   0.178  0.4270  0.3318 -0.0798
17996TIP3    H175479   5.719   2.220   0.197  1.2187  0.4511 -1.1904
17996TIP3    H275480   5.595   2.281   0.136  0.7746  0.0954 -0.6492
17997TIP3   OH275481   0.483   5.441  14.339 -0.0767  0.2107  0.1529
17997TIP3    H175482   0.434   5.524  14.342 -1.1189 -0.3213 -1.2247
17997TIP3    H275483   0.454   5.394  14.417 -0.9886  0.3365 -0.0970
17998TIP3   OH275484   4.729   0.107   2.171  0.2487  0.2638 -0.0628
17998TIP3    H175485   4.667   0.069   2.109 -2.5484  0.8939  2.1514
17998TIP3    H275486   4.731   0.200   2.149  0.8341  0.1806 -0.4067
17999TIP3   OH275487   1.604   6.636  13.253 -0.4571 -0.2103 -0.0592
17999TIP3    H175488   1.637   6.724  13.272 -2.0432  0.1628  1.1741
17999TIP3    H275489   1.633   6.619  13.163  2.9412  0.0734  0.8319
18000TIP3   OH275490   1.963   2.232  11.325  0.3119 -0.2519 -0.1062
18000TIP3    H175491   1.987   2.314  11.282 -0.3808  0.0680  0.1069
18000TIP3    H275492   1.947   2.256  11.416  0.1715 -0.6408 -0.0256
18001TIP3   OH275493   4.236   2.846  14.564  0.2370  0.5818  0.1049
18001TIP3    H175494   4.268   2.907  14.498 -1.2002 -1.4361 -2.6572
18001TIP3    H275495   4.233   2.761  14.520  1.1924 -1.3789  3.4500
18002TIP3   OH275496   0.558   1.186   3.303  0.1616 -0.0157 -0.0814
18002TIP3    H175497   0.526   1.099   3.328 -1.0137  0.0278 -1.3287
18002TIP3    H275498   0.486   1.224   3.253  0.7025  1.6549  0.3555
18003TIP3   OH275499   1.255   0.481   5.271 -0.8334  0.2557 -0.0018
18003TIP3    H175500   1.217   0.561   5.234  0.1937  0.5871 -0.3924
18003TIP3    H275501   1.207   0.467   5.352 -1.3089  1.0472 -0.1322
18004TIP3   OH275502   5.789   1.746   5.119  0.9474 -0.1005 -0.1040
18004TIP3    H175503   5.721   1.680   5.115  1.1732 -0.3469  0.0916
18004TIP3    H275504   5.748   1.821   5.162  1.1000 -0.6224  0.9724
18005TIP3   OH275505   0.967   3.554   3.886 -0.1768  0.5416 -0.1987
18005TIP3    H175506   0.912   3.476   3.892 -0.1484  0.4219 -1.2807
18005TIP3    H275507   1.053   3.525   3.915 -0.5966  0.6573  1.2240
18006TIP3   OH275508   4.884   1.405   4.090 -0.2127 -0.0384 -0.2482
18006TIP3    H175509   4.892   1.479   4.151 -0.9055 -0.8495  0.8673
18006TIP3    H275510   4.899   1.328   4.144  0.9154 -0.7273 -1.4826
18007TIP3   OH275511   3.960   0.994   5.432 -0.5266  0.5820  0.0161
18007TIP3    H175512   3.865   0.988   5.422 -0.4869  1.1518 -0.8274
18007TIP3    H275513   3.974   1.078   5.476 -0.3216  1.6651 -1.9888
18008TIP3   OH275514   4.379   6.166   2.094  0.1344  0.2135 -0.3264
18008TIP3    H175515   4.449   6.109   2.063 -0.7066  0.4903 -2.9856
18008TIP3    H275516   4.299   6.126   2.059 -0.8514  0.9582  0.9991
18009TIP3   OH275517   0.367   4.890   0.660  0.9137  0.7901  0.3537
18009TIP3    H175518   0.356   4.812   0.714  0.0917  0.6471 -0.0118
18009TIP3    H275519   0.311   4.956   0.701  1.1025  0.9924  0.2875
18010TIP3   OH275520   6.533   3.779  15.975 -0.0997 -0.0049 -0.5115
18010TIP3    H175521   6.560   3.817  15.892 -1.1522  1.0790 -0.3886
18010TIP3    H275522   6.450   3.822  15.995 -0.5944 -1.3069  0.3886
18011TIP3   OH275523   1.716   2.487  11.700  0.4750  0.0205  0.1477
18011TIP3    H175524   1.661   2.423  11.745  1.4666 -0.3665  0.8507
18011TIP3    H275525   1.659   2.562  11.686 -0.1765 -0.2915  1.0188
18012TIP3   OH275526   2.215   3.838   5.268  0.0305  0.3422  0.5362
18012TIP3    H175527   2.292   3.847   5.212  0.2139 -1.0306  0.5270
18012TIP3    H275528   2.205   3.923   5.309 -0.4250  1.5973 -1.9819
18013TIP3   OH275529   3.521   6.782   4.689  0.4840 -0.9392  0.1945
18013TIP3    H175530   3.451   6.720   4.670  1.0402 -1.7779  0.8448
18013TIP3    H275531   3.486   6.867   4.661 -1.8825 -0.8552  2.9612
18014TIP3   OH275532   2.219   5.374   3.967 -0.1715 -0.7584 -0.3539
18014TIP3    H175533   2.194   5.321   3.890 -0.7326 -2.3879  0.8813
18014TIP3    H275534   2.151   5.354   4.031 -0.1089  1.1399  0.3345
18015TIP3   OH275535   0.470   4.616  16.407 -0.0002 -0.1560  0.3171
18015TIP3    H175536   0.493   4.709  16.401  0.7543 -0.4393 -1.9204
18015TIP3    H275537   0.427   4.596  16.325  0.9164 -2.0580  0.2426
18016TIP3   OH275538   2.266   3.342  15.652 -0.1889 -0.0420 -0.2460
18016TIP3    H175539   2.258   3.428  15.610 -0.5204 -1.1761 -2.7101
18016TIP3    H275540   2.359   3.319  15.642 -0.4727 -0.7714 -1.4060
18017TIP3   OH275541   5.781   4.422  10.447  0.0974  0.2009 -0.0144
18017TIP3    H175542   5.700   4.385  10.410 -0.0003  2.1613 -1.9527
18017TIP3    H275543   5.775   4.403  10.541 -1.9300 -0.9306 -0.3101
18018TIP3   OH275544   2.611   2.934  15.508 -0.6256  0.2491 -0.5479
18018TIP3    H175545   2.584   2.976  15.590  0.4969  0.7545 -0.4162
18018TIP3    H275546   2.539   2.951  15.448 -1.6712 -0.5034  0.4404
18019TIP3   OH275547   1.904   2.896  16.299 -0.0668 -0.0643 -0.2893
18019TIP3    H175548   1.984   2.842  16.299 -0.6245 -0.9737  1.2167
18019TIP3    H275549   1.933   2.982  16.329  0.2885 -0.5402  0.7942
18020TIP3   OH275550   4.289   0.618   1.944 -0.0910 -0.5086  0.1188
18020TIP3    H175551   4.281   0.711   1.923  1.1373 -0.2258  0.7898
18020TIP3    H275552   4.300   0.575   1.859  2.5125  0.3543 -0.0699
18021TIP3   OH275553   2.705   5.693   6.501  0.1093 -0.7293  0.3783
18021TIP3    H175554   2.620   5.708   6.541  0.4293 -0.7332  1.0774
18021TIP3    H275555   2.690   5.623   6.438 -0.4959 -0.4118  0.1576
18022TIP3   OH275556   0.243   2.197  12.419 -0.1177  0.3659  0.3693
18022TIP3    H175557   0.188   2.242  12.355 -0.8535  0.2871  0.9270
18022TIP3    H275558   0.313   2.157  12.367 -0.2125  1.0172 -0.2814
18023TIP3   OH275559   5.676   6.064  14.765  0.1966 -0.0406  0.0254
18023TIP3    H175560   5.712   5.988  14.719  1.9264  0.7374  0.0242
18023TIP3    H275561   5.645   6.030  14.848 -2.4049 -1.3673 -1.3572
18024TIP3   OH275562   3.051   4.749  15.871 -0.0694 -0.0356 -0.4609
18024TIP3    H175563   3.035   4.791  15.956 -0.8415  0.6412 -0.9250
18024TIP3    H275564   2.995   4.797  15.810  0.3008 -0.6686 -1.3151
18025TIP3   OH275565   4.546   6.693  15.827 -0.2145 -0.3772 -0.7457
18025TIP3    H175566   4.483   6.732  15.766 -1.2939 -0.3761  0.3079
18025TIP3    H275567   4.566   6.764  15.888  0.2775 -0.5777 -0.6723
18026TIP3   OH275568   6.764   1.679  14.053  0.2767 -0.2439 -0.7522
18026TIP3    H175569   6.852   1.660  14.022  0.5078 -0.7823  0.2115
18026TIP3    H275570   6.743   1.607  14.112 -0.4397  0.3746 -0.2351
18027TIP3   OH275571   3.710   0.246  14.475 -0.0323  0.2760 -0.2541
18027TIP3    H175572   3.731   0.302  14.401  0.1960  0.7577  0.1672
18027TIP3    H275573   3.649   0.299  14.528 -0.8835 -0.3935 -0.5363
18028TIP3   OH275574   2.731   0.851   4.448  0.3179 -0.0531  0.6788
18028TIP3    H175575   2.758   0.916   4.384 -0.8915 -0.2271 -0.0508
18028TIP3    H275576   2.744   0.893   4.533 -2.3293  1.9933  0.2089
18029TIP3   OH275577   4.620   2.054   3.757 -0.7682  0.0530 -0.1983
18029TIP3    H175578   4.670   2.108   3.697  0.1666  0.9396  1.3075
18029TIP3    H275579   4.610   2.108   3.836 -0.3170 -1.7165  1.1444
18030TIP3   OH275580   2.673   1.096   4.299 -0.3293  0.7755  0.0655
18030TIP3    H175581   2.662   1.084   4.393 -0.1327 -1.2497 -0.1055
18030TIP3    H275582   2.585   1.110   4.265 -0.4565  1.0008  0.4887
18031TIP3   OH275583   2.372   4.071   1.476  0.0431  0.0121 -0.3370
18031TIP3    H175584   2.419   4.136   1.423  1.0203  2.2434  2.9853
18031TIP3    H275585   2.282   4.076   1.445  0.5527  1.2630 -1.7248
18032TIP3   OH275586   1.592   2.025   3.200  0.2266 -0.0721 -0.5232
18032TIP3    H175587   1.586   1.949   3.143  0.9142 -0.2512 -0.3695
18032TIP3    H275588   1.513   2.021   3.254  1.1087 -1.7267  0.7519
18033TIP3   OH275589   0.644   6.126  13.190 -0.5221 -0.1083 -0.0916
18033TIP3    H175590   0.570   6.101  13.246  0.4372  0.8508  1.7128
18033TIP3    H275591   0.635   6.221  13.179 -0.3245 -0.1928 -1.0194
18034TIP3   OH275592   4.518   4.074  13.613 -0.0124  0.2423 -0.4595
18034TIP3    H175593   4.572   4.149  13.639 -0.5924  1.2364 -1.9586
18034TIP3    H275594   4.428   4.106  13.619 -0.4531 -1.2459  1.5438
18035TIP3   OH275595   2.927   3.709   4.429 -0.2367  0.1959  0.1386
18035TIP3    H175596   2.831   3.709   4.436 -0.4087 -2.0076 -1.2024
18035TIP3    H275597   2.957   3.662   4.507 -0.2876  0.3319  0.2402
18036TIP3   OH275598   3.377   0.955   0.784 -0.2289  0.0383 -0.1716
18036TIP3    H175599   3.468   0.950   0.813 -0.1806 -1.1192 -0.4441
18036TIP3    H275600   3.349   1.044   0.805  0.7271  0.1672  0.6125
18037TIP3   OH275601   0.476   3.943  12.938  0.0316  0.1294  0.2365
18037TIP3    H175602   0.483   4.037  12.926 -0.1875  0.0251 -0.7975
18037TIP3    H275603   0.424   3.913  12.863  0.5677 -0.8782  0.2500
18038TIP3   OH275604   6.741   5.299   1.025 -0.0069 -0.2641  0.2212
18038TIP3    H175605   6.665   5.350   0.999  0.5786 -0.0450 -1.1726
18038TIP3    H275606   6.707   5.211   1.040 -0.5990 -0.0838 -0.0372
18039TIP3   OH275607   1.528   3.037   3.771 -0.1924  0.3289 -0.9893
18039TIP3    H175608   1.441   3.008   3.743 -1.0661  1.0568  0.7745
18039TIP3    H275609   1.512   3.085   3.852  1.8333  0.8100 -0.8146
18040TIP3   OH275610   1.122   6.519  15.013  0.0939  0.3165 -0.7447
18040TIP3    H175611   1.044   6.473  15.044  0.7998 -0.2322  0.2918
18040TIP3    H275612   1.154   6.465  14.941  0.5675 -0.5221  0.0612
18041TIP3   OH275613   4.491   6.290   0.208  0.2026 -0.6637  0.4682
18041TIP3    H175614   4.429   6.347   0.253 -0.6124 -2.0119  1.1130
18041TIP3    H275615   4.437   6.234   0.153  0.9440 -1.1481  0.2187
18042TIP3   OH275616   3.266   5.243   5.294 -0.3644  0.0639  0.1968
18042TIP3    H175617   3.304   5.159   5.318 -2.1802 -0.3584  1.9063
18042TIP3    H275618   3.208   5.224   5.220  1.3834  0.4112 -1.3330
18043TIP3   OH275619   4.958   2.797  16.970 -0.0470  0.6906 -0.1818
18043TIP3    H175620   4.879   2.745  16.985  0.7500 -0.5588 -0.1303
18043TIP3    H275621   4.953   2.824  16.878 -0.2033  0.0242 -0.3724
18044TIP3   OH275622   1.961   5.858   3.559  0.4143  0.3982 -0.7495
18044TIP3    H175623   1.988   5.770   3.587  1.2983  1.5909  2.6882
18044TIP3    H275624   1.866   5.858   3.572  0.5597  0.2764  0.4831
18045TIP3   OH275625   0.448   2.336  13.429  0.2932  0.4020  0.3757
18045TIP3    H175626   0.400   2.262  13.467 -0.6996  0.2581 -1.0715
18045TIP3    H275627   0.388   2.410  13.437  0.1262  0.4031 -0.7274
18046TIP3   OH275628   0.293   3.220  15.232  0.5539 -0.1403 -0.0759
18046TIP3    H175629   0.274   3.152  15.296 -0.6961  0.4758  0.2195
18046TIP3    H275630   0.381   3.251  15.256 -0.6333  1.4330  2.6034
18047TIP3   OH275631   3.346   2.772  15.202 -0.2524  0.0653  0.5294
18047TIP3    H175632   3.264   2.745  15.244 -0.0477 -1.3108  0.0987
18047TIP3    H275633   3.411   2.768  15.271 -0.2802 -0.2980  0.5368
18048TIP3   OH275634   2.798   5.120   4.253 -0.0441  0.3672  0.0700
18048TIP3    H175635   2.817   5.104   4.346 -0.3153  0.2723  0.1107
18048TIP3    H275636   2.826   5.211   4.239  0.4547  0.2240  0.1188
18049TIP3   OH275637   0.418   6.092  16.784 -0.2928 -0.2748  0.2740
18049TIP3    H175638   0.481   6.021  16.768 -0.4514 -0.4611  0.4712
18049TIP3    H275639   0.333   6.048  16.788 -0.3762 -0.0890  0.5383
18050TIP3   OH275640   5.670   5.973  15.802  0.3672 -0.7277  0.4592
18050TIP3    H175641   5.756   5.953  15.839 -0.6368 -1.2383  2.6485
18050TIP3    H275642   5.673   6.067  15.783  1.5466 -0.8246  0.0720
18051TIP3   OH275643   6.110   2.762   5.574  0.6267 -0.2637 -0.4853
18051TIP3    H175644   6.152   2.749   5.489  0.4026 -0.4939 -0.5634
18051TIP3    H275645   6.032   2.815   5.554  0.7615 -0.0192 -0.3724
18052TIP3   OH275646   3.128   2.111   1.114 -0.5794  0.7032  0.2435
18052TIP3    H175647   3.050   2.102   1.060 -0.9496  1.6626  0.5848
18052TIP3    H275648   3.124   2.201   1.148 -0.3843  0.1383  1.8942
18053TIP3   OH275649   3.799   2.007  10.755  0.0140 -0.2925  0.2270
18053TIP3    H175650   3.781   2.080  10.696  0.0128  0.5784  1.2757
18053TIP3    H275651   3.834   1.939  10.698 -1.1139  0.0721 -0.9653
18054TIP3   OH275652   3.823   6.848   5.347 -0.1484  0.1612 -0.0839
18054TIP3    H175653   3.793   6.845   5.438  0.1251  2.1217  0.1063
18054TIP3    H275654   3.916   6.865   5.353 -0.2015  0.7127 -0.7306
18055TIP3   OH275655   5.601   5.037   4.655 -0.0035  0.3882  0.1206
18055TIP3    H175656   5.656   5.053   4.732  0.3311 -0.0293 -0.0255
18055TIP3    H275657   5.613   5.114   4.600  2.5736 -0.8188 -1.1661
18056TIP3   OH275658   2.163   3.737  12.997  0.3166  0.0360  0.0561
18056TIP3    H175659   2.181   3.677  13.069  2.8525  1.2764  0.5935
18056TIP3    H275660   2.074   3.768  13.012  0.9410  0.6743  3.0401
18057TIP3   OH275661   6.212   4.159   2.686  0.0735  1.1207  0.0240
18057TIP3    H175662   6.272   4.202   2.747  1.1276 -1.7148  1.1453
18057TIP3    H275663   6.265   4.092   2.644 -1.3144  1.3047 -2.1730
18058TIP3   OH275664   5.978   6.152  16.097  0.3021 -0.2562 -0.1760
18058TIP3    H175665   6.063   6.129  16.060  0.0690  1.4986 -1.9581
18058TIP3    H275666   5.988   6.243  16.125 -1.4826  0.6629 -2.2494
18059TIP3   OH275667   5.355   5.324  14.472 -0.1516 -0.0545  0.0678
18059TIP3    H175668   5.378   5.233  14.491 -0.3701  0.2535  2.0483
18059TIP3    H275669   5.262   5.330  14.494 -0.4996  0.3149 -1.4341
18060TIP3   OH275670   5.794   4.561  15.508 -0.7059 -0.2583 -0.5574
18060TIP3    H175671   5.804   4.470  15.536 -0.0041 -0.1460 -0.4313
18060TIP3    H275672   5.878   4.602  15.529 -1.7741  0.9879  1.4968
18061TIP3   OH275673   3.681   1.991   3.977 -0.0064  0.4899 -0.2601
18061TIP3    H175674   3.740   1.919   4.002 -0.5860  0.2401  0.4181
18061TIP3    H275675   3.706   2.011   3.887  1.7925  1.0572  0.3120
18062TIP3   OH275676   2.215   4.915   4.787  0.1744 -0.1072 -0.1096
18062TIP3    H175677   2.131   4.882   4.818  0.5820 -2.0169 -0.9604
18062TIP3    H275678   2.279   4.882   4.850  0.4350  0.3172 -0.1434
18063TIP3   OH275679   2.022   3.683   3.879  0.4530 -0.2726 -0.2033
18063TIP3    H175680   1.944   3.701   3.826 -1.8013  0.1542  2.9894
18063TIP3    H275681   2.059   3.604   3.841 -2.3192 -1.2791 -1.0771
18064TIP3   OH275682   1.465   6.826   1.850  0.3473 -0.2648  0.1819
18064TIP3    H175683   1.529   6.897   1.846  0.6779 -0.5500  0.3431
18064TIP3    H275684   1.489   6.767   1.779  0.0508 -0.1947  0.0247
18065TIP3   OH275685   2.959   5.708   3.901 -0.4790  0.3234 -0.0671
18065TIP3    H175686   3.008   5.643   3.850 -1.2163  1.3976 -2.2719
18065TIP3    H275687   2.898   5.656   3.952 -0.6172 -0.7840 -1.2938
18066TIP3   OH275688   6.284   0.640  13.853 -1.0118 -0.1854 -0.7657
18066TIP3    H175689   6.232   0.717  13.876 -0.8807 -0.7051  1.5198
18066TIP3    H275690   6.369   0.656  13.892  0.5015  0.3687 -3.9318
18067TIP3   OH275691   5.738   2.538  14.641  0.7035  0.1003 -0.3000
18067TIP3    H175692   5.752   2.631  14.624  0.1710  0.1089 -0.6878
18067TIP3    H275693   5.667   2.535  14.705  1.4734 -0.0068  0.5847
18068TIP3   OH275694   1.890   1.187  12.004  0.2675 -0.2864  0.3287
18068TIP3    H175695   1.964   1.243  11.981  1.1345 -2.4466 -2.8476
18068TIP3    H275696   1.826   1.246  12.043  3.0393  1.9131  1.9348
18069TIP3   OH275697   3.231   1.617  14.503  0.0556  0.5514 -0.0339
18069TIP3    H175698   3.283   1.691  14.470 -1.7972  1.6364 -0.7014
18069TIP3    H275699   3.281   1.540  14.478  0.5313  1.4747 -2.2588
18070TIP3   OH275700   0.966   3.610   5.304  0.9248 -0.2163 -0.1484
18070TIP3    H175701   0.961   3.534   5.246 -0.5069 -0.5829  0.3863
18070TIP3    H275702   0.949   3.574   5.391  1.6395  0.5224  0.3091
18071TIP3   OH275703   1.069   2.550   5.218 -0.0722 -0.8100 -0.4358
18071TIP3    H175704   0.977   2.550   5.242  0.0048 -1.7537 -0.1095
18071TIP3    H275705   1.109   2.615   5.276 -0.4687 -0.6265 -0.3640
18072TIP3   OH275706   6.849   6.218  15.777  0.2417  0.6396 -0.3885
18072TIP3    H175707   6.909   6.149  15.748 -1.7032 -0.5909 -1.7246
18072TIP3    H275708   6.840   6.275  15.701  2.4849  2.9931  0.9576
18073TIP3   OH275709   3.289   1.584  15.420  1.0856 -0.5352  1.1527
18073TIP3    H175710   3.304   1.501  15.375 -0.5416  0.6343 -1.8456
18073TIP3    H275711   3.359   1.642  15.387  0.9833 -0.1489  1.6066
18074TIP3   OH275712   2.706   2.437  11.762  0.3457  0.1733  1.0657
18074TIP3    H175713   2.762   2.514  11.766  0.0894  0.5036 -0.7985
18074TIP3    H275714   2.631   2.458  11.817  0.2799  1.2541  0.5805
18075TIP3   OH275715   6.553   3.384   5.073 -0.1253  0.2077 -0.5006
18075TIP3    H175716   6.519   3.439   5.144 -1.2080  1.8828 -2.2402
18075TIP3    H275717   6.496   3.401   4.999  0.2546 -2.3771 -1.5181
18076TIP3   OH275718   6.731   5.171   2.266  0.7415 -0.4708  0.5398
18076TIP3    H175719   6.642   5.207   2.256  1.0696 -0.0639 -1.2763
18076TIP3    H275720   6.776   5.236   2.320  0.2321 -0.1448  0.5895
18077TIP3   OH275721   6.360   3.482   4.044  0.4006 -0.1392 -0.7187
18077TIP3    H175722   6.344   3.555   3.985  0.2374 -0.3184 -0.9010
18077TIP3    H275723   6.273   3.447   4.063  0.2989  0.9405  0.9675
18078TIP3   OH275724   0.101   0.305  17.006 -0.2690 -0.4584  0.3287
18078TIP3    H175725   0.091   0.392  17.044  0.3781 -0.1740 -0.1397
18078TIP3    H275726   0.195   0.288  17.009 -0.5438 -1.8926  2.0425
18079TIP3   OH275727   3.245   4.916  13.551  0.3635  0.1171  0.6199
18079TIP3    H175728   3.328   4.956  13.576  2.6232 -1.8360 -2.8997
18079TIP3    H275729   3.235   4.842  13.610  1.1203  0.4203  1.1419
18080TIP3   OH275730   5.523   4.354   1.787  0.0570 -0.6300 -0.6220
18080TIP3    H175731   5.453   4.340   1.851  0.1588  1.2411 -0.0427
18080TIP3    H275732   5.590   4.290   1.811 -1.4847 -2.6267 -1.3263
18081TIP3   OH275733   4.516   4.017  10.578  0.6547  0.2590  0.1564
18081TIP3    H175734   4.449   4.083  10.562  1.7112  1.2692 -0.2559
18081TIP3    H275735   4.475   3.934  10.554 -1.4374  0.4296  2.6364
18082TIP3   OH275736   5.737   0.694  15.130 -0.1136 -0.0237  0.3190
18082TIP3    H175737   5.790   0.725  15.203  2.4357 -0.5679 -1.1682
18082TIP3    H275738   5.710   0.606  15.155  2.2013 -0.8850 -0.0195
18083TIP3   OH275739   4.250   4.816  11.416 -0.3824 -0.2845 -0.0756
18083TIP3    H175740   4.265   4.721  11.418  1.6279 -0.0243 -0.4255
18083TIP3    H275741   4.320   4.852  11.471 -0.8393  1.0354 -0.3213
18084TIP3   OH275742   2.268   0.204   3.569 -0.3706 -0.0481  0.6168
18084TIP3    H175743   2.313   0.202   3.485 -1.2997 -1.4935  0.1278
18084TIP3    H275744   2.199   0.269   3.557 -1.7994 -1.6908 -0.4736
18085TIP3   OH275745   0.613   1.698   1.798  0.2722 -0.9885  0.0426
18085TIP3    H175746   0.650   1.682   1.711 -1.4893 -1.1849 -0.7014
18085TIP3    H275747   0.565   1.781   1.790 -0.6772 -1.4708  0.5617
18086TIP3   OH275748   3.394   6.286  16.293  0.2228  0.9675  0.2342
18086TIP3    H175749   3.462   6.350  16.275  3.6357 -2.4600 -0.5665
18086TIP3    H275750   3.412   6.214  16.232 -3.5782 -0.6391  0.6983
18087TIP3   OH275751   4.234   3.763   2.468 -0.1287  0.8108  0.2744
18087TIP3    H175752   4.218   3.688   2.524  3.1767  0.6991  1.2653
18087TIP3    H275753   4.194   3.740   2.384  0.2443 -1.7653  0.7403
18088TIP3   OH275754   5.779   5.558  15.117  0.1624  0.4474 -1.0231
18088TIP3    H175755   5.788   5.480  15.173 -0.8014 -0.3051 -1.8955
18088TIP3    H275756   5.710   5.609  15.158  0.9705  0.9936 -0.3045
18089TIP3   OH275757   6.160   6.256   0.703 -0.0161 -0.2816 -0.3903
18089TIP3    H175758   6.188   6.221   0.618 -0.2045  0.2379 -0.6746
18089TIP3    H275759   6.098   6.192   0.737  0.9921 -1.1108 -0.0664
18090TIP3   OH275760   1.099   5.645  10.521 -0.2375 -0.5901 -0.0379
18090TIP3    H175761   1.025   5.635  10.581  0.3692 -2.1189  0.5105
18090TIP3    H275762   1.171   5.599  10.564  0.9285  0.4852 -0.7656
18091TIP3   OH275763   0.580   2.473   3.944 -0.5041  0.0153 -0.2678
18091TIP3    H175764   0.510   2.537   3.953 -0.8125 -0.4264  0.6499
18091TIP3    H275765   0.599   2.470   3.850 -1.9124 -0.0645 -0.5751
18092TIP3   OH275766   1.592   4.197   4.952 -0.2331 -0.0398  0.2953
18092TIP3    H175767   1.562   4.126   4.896 -1.4141 -0.7986  1.8176
18092TIP3    H275768   1.527   4.266   4.941  1.8674  1.7154 -2.6249
18093TIP3   OH275769   3.256   6.628  16.309  0.4800  0.4711  0.4240
18093TIP3    H175770   3.339   6.674  16.303  1.0423 -0.5074  0.4891
18093TIP3    H275771   3.265   6.572  16.386  0.5662 -1.1675 -0.7350
18094TIP3   OH275772   5.895   2.548   5.200  0.8639 -0.1785 -0.2875
18094TIP3    H175773   5.944   2.466   5.209  1.2975 -0.0131 -1.0340
18094TIP3    H275774   5.850   2.558   5.283  0.7286 -1.2300 -0.2145
18095TIP3   OH275775   1.159   2.145   4.673 -0.4794 -0.3301 -0.1609
18095TIP3    H175776   1.135   2.094   4.750  1.3209  0.3990  0.9344
18095TIP3    H275777   1.166   2.235   4.705  2.6585 -0.3399 -0.5453
18096TIP3   OH275778   3.792   4.080  11.035  0.0343 -0.3415 -0.0391
18096TIP3    H175779   3.758   4.045  10.953 -1.7206  1.4515 -0.1606
18096TIP3    H275780   3.773   4.174  11.031  0.3468 -0.1269  2.1976
18097TIP3   OH275781   6.440   1.170  12.618  0.3482  0.5451  0.3225
18097TIP3    H175782   6.373   1.227  12.655  0.2942 -0.2387  1.5139
18097TIP3    H275783   6.462   1.110  12.690  0.7473 -0.6147 -0.7378
18098TIP3   OH275784   2.433   1.033   0.569 -0.4528  0.2282 -0.0984
18098TIP3    H175785   2.526   1.053   0.573 -0.2880 -0.5621  0.3451
18098TIP3    H275786   2.426   0.967   0.500 -0.6689  0.1955 -0.0463
18099TIP3   OH275787   2.454   2.659  16.265 -0.4246 -0.2541 -0.4341
18099TIP3    H175788   2.486   2.568  16.256 -0.2097 -0.3339  0.9607
18099TIP3    H275789   2.410   2.660  16.349  0.5624  1.2218  0.0942
18100TIP3   OH275790   0.894   1.268  14.015 -0.4461 -0.3389  0.4109
18100TIP3    H175791   0.824   1.319  14.057 -0.2439 -0.5151  0.9686
18100TIP3    H275792   0.956   1.334  13.985 -0.5277 -0.2169  0.5053
18101TIP3   OH275793   5.166   3.691   0.883  0.3159 -0.0154  0.5252
18101TIP3    H175794   5.181   3.696   0.978  1.8830 -1.7332  0.4271
18101TIP3    H275795   5.253   3.679   0.846 -0.4887 -2.0160 -0.8869
18102TIP3   OH275796   4.893   0.315   0.615  0.2015 -0.9492  1.1023
18102TIP3    H175797   4.910   0.237   0.563  0.1536 -0.0897 -0.2303
18102TIP3    H275798   4.948   0.383   0.578  1.0612 -0.5717  2.9326
18103TIP3   OH275799   6.640   6.019   5.125  0.1965  0.0775 -0.0031
18103TIP3    H175800   6.620   6.100   5.172  1.1105 -0.4875  1.4398
18103TIP3    H275801   6.734   6.006   5.139  0.0730 -1.2059 -0.2289
18104TIP3   OH275802   1.533   2.317   0.438 -0.1232 -0.6170 -0.1417
18104TIP3    H175803   1.449   2.272   0.454  0.0033 -0.1606  2.2743
18104TIP3    H275804   1.595   2.246   0.422 -0.9024 -0.9677 -1.8082
18105TIP3   OH275805   6.568   4.102   1.618  0.3940 -0.0822 -0.4266
18105TIP3    H175806   6.622   4.056   1.683  1.7713  0.4567 -1.1529
18105TIP3    H275807   6.630   4.154   1.567 -0.6760 -0.3341 -2.0599
18106TIP3   OH275808   3.732   1.725  12.342 -0.1846 -0.3706 -0.4996
18106TIP3    H175809   3.769   1.710  12.429 -1.4900  1.6990  0.4857
18106TIP3    H275810   3.805   1.760  12.290 -0.2829  2.3791  1.0181
18107TIP3   OH275811   1.573   3.677  12.961  0.6151  0.1997 -0.2783
18107TIP3    H175812   1.660   3.654  12.995  0.6437  1.0358  0.2485
18107TIP3    H275813   1.520   3.599  12.975  0.7470  0.3581  1.3018
18108TIP3   OH275814   1.144   6.172  12.801  0.3114  0.3579 -0.2108
18108TIP3    H175815   1.089   6.205  12.729 -1.0436 -1.0717  0.1177
18108TIP3    H275816   1.132   6.077  12.798 -0.5868  0.3181  2.4987
18109TIP3   OH275817   0.767   4.872   0.033 -0.5792 -0.5889  0.1676
18109TIP3    H175818   0.704   4.854  -0.038 -0.0917 -2.0707  0.0780
18109TIP3    H275819   0.731   4.826   0.108 -0.8843  0.6525  0.8160
18110TIP3   OH275820   6.631   2.969   4.234 -0.5689  0.4655 -0.2956
18110TIP3    H175821   6.538   2.957   4.251 -0.0821 -2.1169  1.1876
18110TIP3    H275822   6.655   2.897   4.176  0.2883  1.8593 -1.7318
18111TIP3   OH275823   1.292   2.492   2.328 -0.1840 -0.4072 -0.4581
18111TIP3    H175824   1.298   2.582   2.295  1.2030 -0.5687 -0.7021
18111TIP3    H275825   1.244   2.444   2.260 -1.3860  0.2393 -0.0917
18112TIP3   OH275826   4.918   4.582   3.742 -0.2544  0.4481  0.2954
18112TIP3    H175827   4.841   4.582   3.799 -0.1731  0.9181  0.4144
18112TIP3    H275828   4.992   4.580   3.802 -0.1709  0.3648  0.1900
18113TIP3   OH275829   1.772   6.049  14.893  0.2251 -0.4401 -0.6380
18113TIP3    H175830   1.783   6.092  14.808 -0.2448  0.2954 -0.3366
18113TIP3    H275831   1.848   5.991  14.901  0.1323 -0.7295 -1.6796
18114TIP3   OH275832   2.434   5.400  13.732  0.4748  0.3143 -0.4035
18114TIP3    H175833   2.402   5.330  13.789  2.5618  1.0871  1.9180
18114TIP3    H275834   2.368   5.469  13.739  0.2385  0.0217  0.3315
18115TIP3   OH275835   6.153   2.257  12.202 -0.1947 -0.1224  0.1623
18115TIP3    H175836   6.061   2.274  12.182 -0.2825  0.2143  0.8214
18115TIP3    H275837   6.175   2.322  12.268  0.9516  0.7793 -1.0693
18116TIP3   OH275838   5.177   6.222  16.149 -0.0186 -0.5015  0.5688
18116TIP3    H175839   5.119   6.189  16.218  1.1618  0.2078  1.9449
18116TIP3    H275840   5.124   6.287  16.103 -1.1828 -1.7456  0.0620
18117TIP3   OH275841   2.519   3.668   2.239 -0.3348 -0.0261 -0.3404
18117TIP3    H175842   2.614   3.670   2.223 -0.5755 -0.0760 -1.9152
18117TIP3    H275843   2.502   3.578   2.267 -0.1325 -0.4905 -1.6428
18118TIP3   OH275844   5.586   3.214   1.308 -0.4526 -0.0637  0.3154
18118TIP3    H175845   5.592   3.213   1.403 -1.9206  0.6768  0.4461
18118TIP3    H275846   5.541   3.133   1.285 -0.3462 -0.1110  0.2721
18119TIP3   OH275847   4.249   3.108   3.031 -0.7736 -0.4478  0.9486
18119TIP3    H175848   4.239   3.071   2.943 -2.3347  1.1292  0.4186
18119TIP3    H275849   4.206   3.045   3.089 -2.5323  0.0215  0.1853
18120TIP3   OH275850   0.086   3.410  13.171  0.3620  0.2513  0.1939
18120TIP3    H175851   0.010   3.451  13.211 -0.4860 -2.2070  1.2624
18120TIP3    H275852   0.160   3.442  13.223 -0.2106  0.7082  0.7413
18121TIP3   OH275853   0.146   3.995   5.002 -0.2473 -0.1659 -0.2045
18121TIP3    H175854   0.218   4.045   5.042 -0.2615 -2.0219  2.3477
18121TIP3    H275855   0.187   3.950   4.928  0.8849 -0.1211  0.3793
18122TIP3   OH275856   4.053   5.924   0.473 -0.1263 -0.2040  0.2260
18122TIP3    H175857   3.979   5.890   0.525  0.2131  0.9771  1.5590
18122TIP3    H275858   4.071   6.010   0.512  0.6013  0.4309 -1.4556
18123TIP3   OH275859   0.445   6.572  13.974  0.2964 -0.0410  0.0293
18123TIP3    H175860   0.454   6.655  13.927 -0.1841 -0.5117 -0.9132
18123TIP3    H275861   0.504   6.581  14.049  0.0810  1.2371  0.0712
18124TIP3   OH275862   1.692   3.226   0.719 -0.1755  0.6993 -0.1985
18124TIP3    H175863   1.747   3.147   0.717  1.1076  1.5460  0.2816
18124TIP3    H275864   1.622   3.208   0.657 -0.4070 -1.1751  0.5462
18125TIP3   OH275865   4.556   5.316   0.805 -0.0075  0.1841  0.1329
18125TIP3    H175866   4.489   5.380   0.828  1.2227  1.5405  0.1225
18125TIP3    H275867   4.625   5.368   0.763  0.6993 -1.2714 -0.5933
18126TIP3   OH275868   3.182   0.621  14.274 -0.1100  0.2485  0.0168
18126TIP3    H175869   3.087   0.609  14.279 -0.0104 -0.5175  0.0572
18126TIP3    H275870   3.192   0.701  14.222 -0.7964  0.8321  0.7514
18127TIP3   OH275871   4.104   3.327   2.133 -0.0204 -0.2949  0.4981
18127TIP3    H175872   4.147   3.409   2.158  0.2505 -0.9668  2.4294
18127TIP3    H275873   4.125   3.315   2.041  2.2697  0.4285  0.8769
18128TIP3   OH275874   1.968   2.530   5.969 -0.1213 -0.9265 -0.1616
18128TIP3    H175875   1.985   2.453   6.023  0.0912 -0.0525  1.0491
18128TIP3    H275876   1.887   2.567   6.004 -0.3965 -0.7607 -0.9384
18129TIP3   OH275877   1.270   3.482   6.040  0.2524 -0.3520 -0.2042
18129TIP3    H175878   1.335   3.455   5.975  1.8162  2.8819 -0.1720
18129TIP3    H275879   1.297   3.439   6.121  1.1074 -0.6681 -0.6468
18130TIP3   OH275880   2.731   4.072  15.097 -1.0606  0.6498  0.0824
18130TIP3    H175881   2.797   4.019  15.142 -1.1367  0.8139  0.3875
18130TIP3    H275882   2.647   4.030  15.120 -0.9926 -0.3277 -1.3260
18131TIP3   OH275883   2.680   6.250  15.922 -0.0174  0.7999  0.2999
18131TIP3    H175884   2.771   6.251  15.951 -0.2918  0.3460  1.2448
18131TIP3    H275885   2.633   6.297  15.992 -0.4296  1.5612 -0.4734
18132TIP3   OH275886   3.600   6.520   2.489  0.0635  0.1069 -0.0247
18132TIP3    H175887   3.681   6.528   2.439  0.1504 -4.2161 -0.9271
18132TIP3    H275888   3.550   6.452   2.444 -1.9542 -0.7230  3.1173
18133TIP3   OH275889   2.927   6.358  12.067 -0.1816  0.4166  0.4469
18133TIP3    H175890   2.884   6.359  12.153  1.4401  0.1789  1.3063
18133TIP3    H275891   2.974   6.275  12.065  0.2218  0.6592 -0.4542
18134TIP3   OH275892   1.333   2.395  14.459  0.2279  0.0692  0.3069
18134TIP3    H175893   1.408   2.383  14.517  0.4953 -2.3041 -0.4153
18134TIP3    H275894   1.370   2.391  14.371 -0.7429 -1.4683 -0.0650
18135TIP3   OH275895   3.357   1.062  16.240  0.4157  0.1191 -0.6366
18135TIP3    H175896   3.417   1.097  16.307  0.7885 -0.8652 -0.4251
18135TIP3    H275897   3.414   1.041  16.166 -0.0633  1.6305 -1.4575
18136TIP3   OH275898   1.313   5.027   1.895 -0.2151  0.4345  0.4310
18136TIP3    H175899   1.394   5.074   1.912  0.4952 -0.4357 -0.3826
18136TIP3    H275900   1.331   4.937   1.922 -0.2913 -0.1561 -1.3254
18137TIP3   OH275901   5.548   0.381  15.884  0.4490 -0.3965  0.1610
18137TIP3    H175902   5.515   0.371  15.973 -0.9768 -2.2603 -0.5179
18137TIP3    H275903   5.640   0.355  15.890  0.5235  0.0137  1.1489
18138TIP3   OH275904   2.773   4.879  13.624  0.3415  0.2630 -0.0934
18138TIP3    H175905   2.825   4.835  13.691 -2.0006  0.0187  1.6642
18138TIP3    H275906   2.727   4.808  13.579 -0.6517  0.6357  0.3091
18139TIP3   OH275907   4.353   3.544  14.177 -0.2434  0.3635 -0.5866
18139TIP3    H175908   4.357   3.637  14.199  5.1655  0.3995 -0.4318
18139TIP3    H275909   4.349   3.499  14.261  3.7445  0.6303 -0.0679
18140TIP3   OH275910   0.614   2.111  11.285  0.0511  0.0626  0.5371
18140TIP3    H175911   0.629   2.206  11.280 -0.1776  0.0517 -0.4323
18140TIP3    H275912   0.530   2.103  11.330 -1.0622  0.4272 -1.3559
18141TIP3   OH275913   2.396   0.508   3.565 -0.4565  0.5860 -0.2653
18141TIP3    H175914   2.305   0.481   3.552 -1.2085  2.0028  1.5495
18141TIP3    H275915   2.434   0.438   3.618 -0.3570 -0.1670 -1.2924
18142TIP3   OH275916   4.305   0.043   4.838 -0.1151 -0.3104 -0.0762
18142TIP3    H175917   4.307   0.124   4.889 -0.8725 -0.2929 -0.0554
18142TIP3    H275918   4.242   0.061   4.768 -1.3005 -1.3038  0.6840
18143TIP3   OH275919   0.975   5.441   2.375  0.3297  0.0561 -0.6307
18143TIP3    H175920   1.015   5.526   2.353 -0.0137  0.5516  0.5596
18143TIP3    H275921   1.001   5.383   2.303  0.6743  1.1342 -1.4123
18144TIP3   OH275922   2.935   2.541  13.627 -0.0786 -0.0949  0.0158
18144TIP3    H175923   3.011   2.583  13.588 -0.2357  0.5744  0.4231
18144TIP3    H275924   2.971   2.474  13.685  0.1828 -0.0420 -0.0843
18145TIP3   OH275925   4.661   4.362   1.544  0.1847 -0.1444 -0.3912
18145TIP3    H175926   4.676   4.401   1.457  1.9941  0.8313  0.2919
18145TIP3    H275927   4.570   4.333   1.542  0.3872 -0.8321 -2.8665
18146TIP3   OH275928   1.071   2.471   0.183  0.1257 -0.2996  0.4703
18146TIP3    H175929   1.005   2.437   0.243  0.4144 -1.5290  0.1054
18146TIP3    H275930   1.147   2.414   0.196  1.4393  1.5812  1.4945
18147TIP3   OH275931   2.106   2.767  15.056 -0.0964 -0.1378  0.8913
18147TIP3    H175932   2.098   2.861  15.042 -1.0302 -0.3425 -0.1315
18147TIP3    H275933   2.177   2.740  14.997 -1.0570 -0.3312 -0.2074
18148TIP3   OH275934   1.220   6.085  10.590 -0.3870 -0.1015  0.0543
18148TIP3    H175935   1.164   6.084  10.512 -0.2302  0.3869 -0.0689
18148TIP3    H275936   1.294   6.142  10.565 -0.4510  0.2394  0.6326
18149TIP3   OH275937   6.742   4.469   0.094  0.2219 -0.1702 -0.4077
18149TIP3    H175938   6.735   4.442   0.186  2.8225 -2.5599 -0.7937
18149TIP3    H275939   6.692   4.403   0.046 -1.6413  1.4027 -0.7854
18150TIP3   OH275940   6.620   0.278  16.890 -0.4544  0.0294  0.5582
18150TIP3    H175941   6.681   0.205  16.902  0.3069  0.7438  1.2675
18150TIP3    H275942   6.592   0.272  16.799 -0.2642 -1.0325  0.5554
18151TIP3   OH275943   4.062   0.072   4.667 -0.0493  0.3136 -0.2704
18151TIP3    H175944   3.981   0.047   4.622 -0.2687 -1.5174  1.0534
18151TIP3    H275945   4.131   0.052   4.604 -0.4539 -0.6631 -0.4149
18152TIP3   OH275946   6.556   4.949  14.182 -0.4224  0.4052  0.1405
18152TIP3    H175947   6.547   4.856  14.160 -1.6422  0.5844 -0.2085
18152TIP3    H275948   6.606   4.986  14.110  1.5617 -0.2720  1.1111
18153TIP3   OH275949   6.576   2.885  16.805 -0.0163  0.2895  0.0949
18153TIP3    H175950   6.629   2.873  16.726  1.4117 -0.3989  1.1250
18153TIP3    H275951   6.567   2.980  16.814  2.0109  0.4684  0.5044
18154TIP3   OH275952   4.205   1.507  14.129  0.1208 -0.1433  0.4749
18154TIP3    H175953   4.199   1.552  14.213  0.7054 -0.2723  0.5903
18154TIP3    H275954   4.272   1.440  14.142  0.8714  0.4224 -0.3465
18155TIP3   OH275955   5.541   5.996  13.850 -0.0435  0.1641  0.2235
18155TIP3    H175956   5.591   6.042  13.917  0.2775 -1.5691  1.2381
18155TIP3    H275957   5.449   6.005  13.878  0.0897 -0.5656  0.9554
18156TIP3   OH275958   2.028   5.655  15.977 -0.3347 -0.2310 -0.4143
18156TIP3    H175959   2.038   5.671  16.070 -0.1667 -1.6074 -0.1746
18156TIP3    H275960   1.946   5.607  15.969  1.7393 -4.2873 -0.3474
18157TIP3   OH275961   3.457   6.777  13.434  0.4052 -0.3299 -0.5541
18157TIP3    H175962   3.443   6.685  13.409  0.9874 -0.6992  0.4021
18157TIP3    H275963   3.439   6.826  13.354 -0.2874 -1.2447 -0.9856
18158TIP3   OH275964   1.603   4.637   1.132  0.5586 -0.1797 -0.0663
18158TIP3    H175965   1.613   4.671   1.043  2.6250 -0.8635 -0.1456
18158TIP3    H275966   1.633   4.546   1.126  1.6176  0.0328  1.5001
18159TIP3   OH275967   4.165   3.588   3.966  0.0775  0.9420 -0.7778
18159TIP3    H175968   4.202   3.631   3.888  1.9129 -1.1267 -1.1543
18159TIP3    H275969   4.240   3.578   4.025 -0.3549 -1.1581 -0.5091
18160TIP3   OH275970   6.711   6.395  13.216  0.4824 -0.8271  0.2628
18160TIP3    H175971   6.723   6.323  13.153  0.2983 -2.0799  1.5893
18160TIP3    H275972   6.752   6.362  13.296 -0.5511  0.1325  1.2073
18161TIP3   OH275973   5.711   1.597   4.861 -0.6340  0.5076 -0.6907
18161TIP3    H175974   5.636   1.656   4.869 -1.0270  0.1756 -1.7953
18161TIP3    H275975   5.754   1.622   4.779  0.1274  0.3084 -0.3633
18162TIP3   OH275976   3.466   6.826  12.638 -0.1363 -0.1039  0.1085
18162TIP3    H175977   3.450   6.807  12.545  1.4381  0.0693 -0.2316
18162TIP3    H275978   3.442   6.746  12.684  0.4124 -0.6876 -0.6062
18163TIP3   OH275979   4.030   4.656   3.070 -0.0174 -0.2518 -0.3306
18163TIP3    H175980   4.075   4.694   3.146  2.3090 -0.1610 -1.6654
18163TIP3    H275981   4.036   4.723   3.002 -2.6605 -0.0599 -0.4833
18164TIP3   OH275982   2.738   1.982  14.383  0.1363 -0.1252  0.7605
18164TIP3    H175983   2.754   1.932  14.303  2.0732 -2.7025  2.5834
18164TIP3    H275984   2.660   1.944  14.421 -1.1259  1.4843 -0.0829
18165TIP3   OH275985   1.444   4.719  14.052 -0.4014 -0.5256 -0.0755
18165TIP3    H175986   1.516   4.720  13.989  1.2035  1.5580  1.6581
18165TIP3    H275987   1.374   4.671  14.007  1.7367 -1.9083 -2.1620
18166TIP3   OH275988   0.834   3.538  16.763 -0.1439  0.4326  0.1584
18166TIP3    H175989   0.752   3.574  16.730 -0.6154 -0.1262  0.6830
18166TIP3    H275990   0.891   3.613  16.775 -1.4401  1.1633  2.2153
18167TIP3   OH275991   6.006   1.845   2.305  0.0621 -0.5247  0.0700
18167TIP3    H175992   6.012   1.842   2.401  0.7285 -1.8218  0.0128
18167TIP3    H275993   5.915   1.824   2.286 -0.3080  0.6640  0.4285
18168TIP3   OH275994   4.591   1.116  13.227  0.1646  0.1218 -0.0225
18168TIP3    H175995   4.523   1.162  13.178 -0.4527 -1.4786 -0.7360
18168TIP3    H275996   4.575   1.140  13.318 -0.5505  0.7803 -0.3071
18169TIP3   OH275997   5.159   4.383  16.841  0.8197  0.1215  0.0233
18169TIP3    H175998   5.094   4.447  16.871 -1.1335 -1.2470 -1.0792
18169TIP3    H275999   5.213   4.431  16.779 -1.1341  0.5767 -1.4369
18170TIP3   OH276000   2.695   2.736   4.032  0.9985  0.0910 -0.2783
18170TIP3    H176001   2.636   2.759   3.960  0.2455  0.0948  0.3230
18170TIP3    H276002   2.649   2.665   4.078  1.8165 -0.4261 -0.2419
18171TIP3   OH276003   2.807   5.483   1.233 -0.4250 -0.4956 -0.4291
18171TIP3    H176004   2.786   5.446   1.147 -0.1589  0.1462 -0.7787
18171TIP3    H276005   2.873   5.550   1.214 -0.0882 -0.6101  0.3271
18172TIP3   OH276006   1.664   1.193  16.568  0.3315 -0.2132 -0.0004
18172TIP3    H176007   1.712   1.197  16.651  0.2097  1.6466  0.0244
18172TIP3    H276008   1.572   1.199  16.594  0.2639 -0.1945 -0.2478
18173TIP3   OH276009   2.501   1.405  13.950 -0.6480  0.3169 -0.1549
18173TIP3    H176010   2.590   1.403  13.986  0.1662  1.9747 -1.8680
18173TIP3    H276011   2.446   1.368  14.019  1.2956 -0.2335  1.1795
18174TIP3   OH276012   2.978   3.075   1.036  0.4544  0.1391  0.0022
18174TIP3    H176013   2.964   3.000   1.095 -1.7186  1.5459  1.4117
18174TIP3    H276014   3.054   3.050   0.984  0.2424 -2.7458  0.8898
18175TIP3   OH276015   2.296   2.981  12.705  0.1198  0.2019 -0.1059
18175TIP3    H176016   2.275   2.973  12.612 -0.6065 -0.1943  0.0828
18175TIP3    H276017   2.372   3.039  12.708  0.1950  0.1549 -0.9494
18176TIP3   OH276018   5.727   5.556   2.868 -0.0608 -0.0873 -0.3073
18176TIP3    H176019   5.795   5.619   2.841 -0.5580  0.5174 -0.1702
18176TIP3    H276020   5.645   5.605   2.860 -0.3897 -0.5028  0.4672
18177TIP3   OH276021   1.504   0.349   4.657  0.1288  0.0053  0.3142
18177TIP3    H176022   1.515   0.417   4.723 -2.0742  0.8963 -0.1647
18177TIP3    H276023   1.451   0.282   4.699 -1.5618  0.7250 -0.5928
18178TIP3   OH276024   3.486   0.526  10.840  0.0360 -0.1594 -0.3579
18178TIP3    H176025   3.455   0.510  10.929  0.2111 -0.8989 -0.4221
18178TIP3    H276026   3.408   0.519  10.786 -0.1154  0.5442 -0.2423
18179TIP3   OH276027   0.861   6.324   0.407 -0.6005 -0.2315  0.3323
18179TIP3    H176028   0.770   6.297   0.397 -0.2748 -0.7899 -1.3951
18179TIP3    H276029   0.856   6.414   0.438 -1.7866  0.5135 -1.8164
18180TIP3   OH276030   1.092   1.246  11.105  0.2929 -0.2568  0.4069
18180TIP3    H176031   1.110   1.262  11.198  0.1761 -1.2287  0.6043
18180TIP3    H276032   1.175   1.262  11.061  0.7927 -1.4172  0.8922
18181TIP3   OH276033   3.103   0.342  12.647  0.0255  0.2271 -0.3953
18181TIP3    H176034   3.112   0.332  12.553 -1.2388  0.7515 -0.5886
18181TIP3    H276035   3.028   0.288  12.670  0.1964  0.2687  0.2843
18182TIP3   OH276036   5.924   5.719   3.258  0.0289 -0.2290 -0.4694
18182TIP3    H176037   6.018   5.726   3.275  0.3705 -0.9418 -1.9190
18182TIP3    H276038   5.902   5.798   3.209  0.3676 -1.0807 -2.0667
18183TIP3   OH276039   6.454   6.708  12.925  0.9931 -1.2590  0.1174
18183TIP3    H176040   6.443   6.641  12.858  0.9024 -0.3388 -0.8062
18183TIP3    H276041   6.548   6.708  12.944  0.9050 -2.0735  0.5852
18184TIP3   OH276042   2.472   0.884  16.038 -0.3106 -0.5803 -0.0090
18184TIP3    H176043   2.466   0.848  15.949 -2.7143 -0.4303  0.0331
18184TIP3    H276044   2.390   0.932  16.049  0.7283  0.8933  1.6721
18185TIP3   OH276045   3.445   0.347  13.244 -0.0600 -0.0695  0.4204
18185TIP3    H176046   3.538   0.329  13.249  0.7806  3.3030 -0.1657
18185TIP3    H276047   3.425   0.397  13.323 -1.2608 -0.3312  0.3115
18186TIP3   OH276048   1.998   5.702  12.509  0.6037 -0.6591 -0.2703
18186TIP3    H176049   1.989   5.668  12.420  1.5334 -3.2864  0.5604
18186TIP3    H276050   2.092   5.700  12.525  0.5351  0.7748  0.4548
18187TIP3   OH276051   6.309   0.236   5.816  0.5917  0.0671  0.0412
18187TIP3    H176052   6.367   0.272   5.749  0.7393  0.9421  0.6279
18187TIP3    H276053   6.283   0.311   5.868  0.0537 -0.5299  0.6484
18188TIP3   OH276054   2.964   0.816   3.854  0.3223 -0.6998  0.5847
18188TIP3    H176055   3.059   0.821   3.847  0.2098  1.6440 -0.0692
18188TIP3    H276056   2.931   0.864   3.777 -1.3103  0.8852  2.1625
18189TIP3   OH276057   0.318   2.860  16.655  0.1247  0.4777 -0.0600
18189TIP3    H176058   0.368   2.928  16.610  2.9641 -1.1414  0.3979
18189TIP3    H276059   0.385   2.799  16.688 -2.2118 -2.4068 -0.2337
18190TIP3   OH276060   5.334   5.138  11.423 -0.0826 -0.1068 -0.0823
18190TIP3    H176061   5.347   5.043  11.422  1.1598  0.0267  0.4547
18190TIP3    H276062   5.389   5.170  11.351 -0.2944  0.2249 -0.0986
18191TIP3   OH276063   5.896   0.625  12.165  0.0767  0.0110 -0.8181
18191TIP3    H176064   5.942   0.643  12.247 -1.2795 -1.1095  0.2560
18191TIP3    H276065   5.877   0.531  12.169 -0.0378 -0.0495 -2.4224
18192TIP3   OH276066   0.710   6.591  14.564  0.0611 -0.3525  0.5910
18192TIP3    H176067   0.713   6.554  14.652 -1.6224 -0.6999  0.5439
18192TIP3    H276068   0.686   6.517  14.508 -0.2126  0.1448  0.0438
18193TIP3   OH276069   0.585   2.479  15.449  1.0600 -0.1650 -0.3058
18193TIP3    H176070   0.587   2.393  15.491 -1.4748 -0.6159 -0.8886
18193TIP3    H276071   0.597   2.459  15.356 -1.1004 -0.1771 -0.6482
18194TIP3   OH276072   6.180   4.336  11.543  0.2873 -0.3485 -0.0902
18194TIP3    H176073   6.272   4.315  11.527  0.3783  0.4524 -0.6492
18194TIP3    H276074   6.168   4.316  11.636  1.8451  2.2901  0.8140
18195TIP3   OH276075   1.376   2.772  11.005  0.0090  0.0615  0.1775
18195TIP3    H176076   1.453   2.811  10.963 -0.5918  1.7250  0.5437
18195TIP3    H276077   1.315   2.757  10.933  1.3738 -3.2730 -0.4603
18196TIP3   OH276078   2.087   3.344  16.433 -0.1928 -0.8819 -0.2944
18196TIP3    H176079   2.174   3.371  16.463 -0.5213  0.3000 -0.3776
18196TIP3    H276080   2.104   3.273  16.371  0.7763 -0.0415 -1.0206
18197TIP3   OH276081   4.460   4.306   4.045 -0.4972  0.3409 -0.1694
18197TIP3    H176082   4.446   4.236   3.981 -1.3930  0.8200 -0.5091
18197TIP3    H276083   4.424   4.384   4.004  0.3422  0.9794  0.2771
18198TIP3   OH276084   3.536   5.986  12.845  0.4974  0.1134  0.1842
18198TIP3    H176085   3.501   6.017  12.762  1.1889  0.6167  0.0759
18198TIP3    H276086   3.568   5.897  12.826 -2.7864 -1.3690  0.8305
18199TIP3   OH276087   4.462   6.241  16.986 -0.2781  0.6066 -0.1297
18199TIP3    H176088   4.475   6.329  16.950  0.8181  1.4490  2.1685
18199TIP3    H276089   4.541   6.193  16.961  0.5602  1.2415  1.2104
18200TIP3   OH276090   0.100   1.466  13.662  0.1515 -0.3448 -0.2889
18200TIP3    H176091   0.117   1.378  13.629  2.1024  0.0633 -0.5526
18200TIP3    H276092   0.104   1.457  13.758 -2.4822 -0.9923 -0.1769
18201TIP3   OH276093   3.566   5.821   3.460 -0.4503 -0.3491 -0.3965
18201TIP3    H176094   3.574   5.860   3.373 -0.8568 -1.4163 -0.9321
18201TIP3    H276095   3.650   5.777   3.474  0.2794  1.2458  0.5034
18202TIP3   OH276096   0.267   1.325   5.366  0.2776  0.0543 -0.0101
18202TIP3    H176097   0.224   1.310   5.450  0.0225 -2.2940 -0.5036
18202TIP3    H276098   0.271   1.239   5.325  2.8643  0.6566 -1.2365
18203TIP3   OH276099   2.128   0.423   3.466 -0.1793  0.0727 -0.1986
18203TIP3    H176100   2.032   0.421   3.461 -0.1846  0.1289 -0.1202
18203TIP3    H276101   2.155   0.465   3.385 -0.2458  0.5934  0.0436
18204TIP3   OH276102   5.170   2.159  14.073  0.3812  0.0392  0.7077
18204TIP3    H176103   5.147   2.175  13.982 -0.6934 -0.5844  0.8529
18204TIP3    H276104   5.166   2.245  14.115  1.1987  0.3757  0.1077
18205TIP3   OH276105   0.987   6.847  11.304  0.4410 -0.0886 -0.0322
18205TIP3    H176106   1.073   6.879  11.274  0.5040 -0.3405 -0.1247
18205TIP3    H276107   0.932   6.851  11.225  0.8850 -1.7407 -0.4748
18206TIP3   OH276108   4.987   5.894  15.621 -0.7458 -0.4991  0.0667
18206TIP3    H176109   5.045   5.827  15.656 -1.3349 -1.5811 -0.9587
18206TIP3    H276110   5.012   5.902  15.529  0.4334  1.9240  0.5108
18207TIP3   OH276111   1.558   2.470  11.982 -0.4601  0.4863 -0.7517
18207TIP3    H176112   1.650   2.443  11.978 -0.6487 -0.2873 -0.2306
18207TIP3    H276113   1.510   2.387  11.981 -1.0296  0.6662  2.4903
18208TIP3   OH276114   3.788   3.793   3.093 -0.4606 -0.1885 -0.1495
18208TIP3    H176115   3.754   3.873   3.133  1.4697  0.5022  0.2299
18208TIP3    H276116   3.712   3.751   3.053 -1.9060  0.7156  1.5344
18209TIP3   OH276117   1.789   2.174  16.913 -0.1604  0.0652  0.2021
18209TIP3    H176118   1.835   2.099  16.876  0.3349  0.4018  0.1355
18209TIP3    H276119   1.767   2.229  16.838 -0.9956 -0.2656  0.1906
18210TIP3   OH276120   0.873   5.641   3.097  0.1928 -0.2717 -0.4322
18210TIP3    H176121   0.958   5.601   3.081  0.8422  1.2305 -0.8271
18210TIP3    H276122   0.875   5.724   3.050 -0.9127  0.4968  0.7887
18211TIP3   OH276123   6.305   4.641  11.268  0.1703 -0.3116  0.1575
18211TIP3    H176124   6.257   4.575  11.217 -0.1892 -0.2847  0.4593
18211TIP3    H276125   6.254   4.652  11.348  2.2911 -2.6396  2.0312
18212TIP3   OH276126   0.107   2.367  12.189  0.1965 -0.0997  0.8440
18212TIP3    H176127   0.193   2.410  12.188 -0.5243  1.4153  1.4035
18212TIP3    H276128   0.109   2.308  12.114  0.7836  1.7991 -0.7026
18213TIP3   OH276129   4.714   3.147   0.579  0.7621  0.1675  0.4335
18213TIP3    H176130   4.726   3.053   0.577 -1.6544 -0.2048 -0.3313
18213TIP3    H276131   4.782   3.182   0.523 -0.2250 -1.4426 -1.9279
18214TIP3   OH276132   1.758   1.828  13.901 -0.0033 -0.1679 -1.2782
18214TIP3    H176133   1.793   1.772  13.971  0.3257  0.8808 -0.5740
18214TIP3    H276134   1.668   1.797  13.888 -0.2476 -0.0625 -0.0140
18215TIP3   OH276135   3.979   0.297  12.937  0.7868 -0.5297  0.0854
18215TIP3    H176136   3.973   0.237  13.012  1.1230  0.2973  0.7937
18215TIP3    H276137   4.067   0.281  12.901  1.2884  0.2374  0.9099
18216TIP3   OH276138   2.029   2.276  12.848 -0.2891  0.4682  0.2348
18216TIP3    H176139   1.951   2.234  12.884 -1.1971  1.4081 -0.5658
18216TIP3    H276140   2.010   2.370  12.852 -1.4075  0.6780 -4.4610
18217TIP3   OH276141   6.029   3.795  16.165 -0.0031 -0.1558  0.1728
18217TIP3    H176142   6.009   3.740  16.089 -0.2805  0.3538 -0.1187
18217TIP3    H276143   5.980   3.875  16.152 -1.0694 -0.5478  1.5230
18218TIP3   OH276144   4.088   4.168  11.378  1.2719  0.2821 -0.6851
18218TIP3    H176145   4.101   4.173  11.473  4.3796 -1.7082 -0.8498
18218TIP3    H276146   4.000   4.130  11.368  1.0642  0.0866  1.4166
18219TIP3   OH276147   6.153   2.081  14.191  0.8587 -0.5190  0.0223
18219TIP3    H176148   6.074   2.055  14.144  1.7900 -0.1621 -1.8260
18219TIP3    H276149   6.149   2.032  14.273 -0.7310 -1.3365 -0.5016
18220TIP3   OH276150   0.041   5.452   5.015  0.0638 -0.1512 -0.4015
18220TIP3    H176151   0.134   5.441   4.993  0.6745 -0.5373  2.0981
18220TIP3    H276152  -0.005   5.423   4.937  2.0160  2.5523 -2.7647
18221TIP3   OH276153   1.033   5.514  10.838 -0.2833 -0.3773  0.0661
18221TIP3    H176154   1.123   5.495  10.811 -0.7887 -1.8401 -0.7252
18221TIP3    H276155   1.042   5.572  10.914  1.3280 -0.7250  0.1767
18222TIP3   OH276156   2.853   1.156  13.979 -0.5338 -0.2213 -0.9100
18222TIP3    H176157   2.909   1.233  13.987  0.1202 -0.8642  1.7821
18222TIP3    H276158   2.805   1.152  14.062 -2.2766 -1.4348 -1.9082
18223TIP3   OH276159   6.805   6.635  14.688  0.7636  0.2754 -0.0888
18223TIP3    H176160   6.857   6.590  14.622  1.7111  1.0062  0.1400
18223TIP3    H276161   6.835   6.726  14.685  0.3568  0.4632  0.8843
18224TIP3   OH276162   5.007   3.168   5.078 -0.1753  0.1477  0.2338
18224TIP3    H176163   4.926   3.215   5.057  0.0772  1.3171  1.6840
18224TIP3    H276164   5.065   3.236   5.114  1.7200 -0.5186 -1.3893
18225TIP3   OH276165   0.495   0.747   2.532 -0.0382 -0.5315 -0.2875
18225TIP3    H176166   0.418   0.785   2.489  0.1580 -1.6603 -1.6752
18225TIP3    H276167   0.489   0.780   2.622 -1.7018  0.0539 -0.5625
18226TIP3   OH276168   0.364   6.671   4.004 -0.3018  0.5006 -0.6001
18226TIP3    H176169   0.272   6.697   4.011 -0.0238  1.1398  1.0519
18226TIP3    H276170   0.363   6.576   4.013 -0.8457  0.4247 -1.3322
18227TIP3   OH276171   3.134   3.789   2.779  0.1687  0.3952 -0.6724
18227TIP3    H176172   3.098   3.760   2.862  2.7832  0.6123  0.6493
18227TIP3    H276173   3.090   3.736   2.713 -2.1780  0.4167  0.7904
18228TIP3   OH276174   1.385   0.945  15.663 -0.2512 -0.2613  0.6952
18228TIP3    H176175   1.348   0.934  15.751  0.3249 -2.4598  0.7070
18228TIP3    H276176   1.463   0.999  15.677  0.0960 -0.9745  1.6110
18229TIP3   OH276177   4.926   1.989   1.691 -0.2746  0.5605  0.0791
18229TIP3    H176178   4.952   1.907   1.732  3.3784  0.6336 -1.6765
18229TIP3    H276179   4.854   1.965   1.633 -0.1196 -1.1394  0.5343
18230TIP3   OH276180   5.555   4.312  12.406 -0.2259 -0.0171 -0.8366
18230TIP3    H176181   5.607   4.358  12.472 -0.7958 -1.2452  0.5235
18230TIP3    H276182   5.604   4.231  12.388  0.5412  0.8143 -2.8784
18231TIP3   OH276183   2.726   5.970   2.164 -0.7005  0.6461  0.1867
18231TIP3    H176184   2.640   5.962   2.123 -0.7571  1.6763  0.0724
18231TIP3    H276185   2.784   5.994   2.091 -0.4508  0.6316  0.3813
18232TIP3   OH276186   4.013   2.618  11.523  0.6831  0.3795 -0.3442
18232TIP3    H176187   4.038   2.633  11.432  1.1821 -1.1256 -0.4814
18232TIP3    H276188   4.082   2.659  11.574  1.2188 -0.0998 -0.6723
18233TIP3   OH276189   1.279   4.477   2.174  0.3625  0.2160 -0.0665
18233TIP3    H176190   1.199   4.498   2.223 -0.5042 -1.8945 -0.4795
18233TIP3    H276191   1.341   4.547   2.198 -1.5931  1.9341  0.2120
18234TIP3   OH276192   3.928   3.612  14.629 -0.0780 -0.1768  0.2923
18234TIP3    H176193   3.874   3.553  14.682  1.7086 -0.9988  1.2909
18234TIP3    H276194   3.920   3.697  14.672 -0.4145 -0.3300  0.5380
18235TIP3   OH276195   5.590   2.700  12.014 -0.1777  0.6684  0.7426
18235TIP3    H176196   5.540   2.722  11.935  0.0837  0.6732  0.5742
18235TIP3    H276197   5.528   2.652  12.069 -0.3027  0.4703  0.4379
18236TIP3   OH276198   5.177   5.868  12.635 -0.0017 -0.1288 -0.0816
18236TIP3    H176199   5.197   5.944  12.581 -0.1108 -0.3268 -0.4032
18236TIP3    H276200   5.090   5.887  12.672  0.0498 -0.0170 -0.0181
18237TIP3   OH276201   3.426   4.097  16.532 -0.2323  0.1721 -0.5354
18237TIP3    H176202   3.352   4.040  16.511 -0.7487  0.2926  0.8136
18237TIP3    H276203   3.485   4.089  16.457 -0.6882 -1.4726 -0.7685
18238TIP3   OH276204   2.957   1.746  12.968  0.4731  0.3001  0.7293
18238TIP3    H176205   2.976   1.839  12.972 -0.2437  0.5263 -0.7004
18238TIP3    H276206   2.870   1.737  13.006  0.7786  0.0998  1.4243
18239TIP3   OH276207   0.121   5.840   3.748 -0.8117 -0.4236  0.3456
18239TIP3    H176208   0.110   5.853   3.654 -1.7968 -0.6742  0.4180
18239TIP3    H276209   0.140   5.746   3.757 -0.6686 -0.3901  0.3914
18240TIP3   OH276210   6.606   3.627   3.871 -0.3347  0.0336 -0.4853
18240TIP3    H176211   6.596   3.703   3.928  0.0542  0.9821 -1.6243
18240TIP3    H276212   6.645   3.559   3.926 -0.9043  0.5868  0.6121
18241TIP3   OH276213   0.972   1.361   4.617 -0.0576 -0.7823 -0.2328
18241TIP3    H176214   1.059   1.399   4.614 -0.5949  0.4401 -0.6250
18241TIP3    H276215   0.985   1.271   4.585  0.7978 -0.1254 -1.8580
18242TIP3   OH276216   4.177   1.237  15.966 -0.4270  0.3027 -0.2336
18242TIP3    H176217   4.235   1.180  15.915 -1.2454 -0.3029 -0.5114
18242TIP3    H276218   4.171   1.194  16.052 -0.3536  0.4472 -0.1546
18243TIP3   OH276219   2.642   3.144   1.203 -0.3446  0.3214  0.0064
18243TIP3    H176220   2.662   3.183   1.288 -0.4741 -0.1556  0.2581
18243TIP3    H276221   2.647   3.217   1.142  0.7581  0.4779  0.2685
18244TIP3   OH276222   0.573   2.246   4.973 -0.3549  0.3431 -0.5407
18244TIP3    H176223   0.561   2.153   4.954  0.4951  0.4540 -1.8452
18244TIP3    H276224   0.637   2.248   5.044  0.9438 -0.0845 -1.6486
18245TIP3   OH276225   5.571   1.520   6.210  0.3244  0.2592  0.1504
18245TIP3    H176226   5.575   1.425   6.205 -1.1023  0.2034 -0.2697
18245TIP3    H276227   5.614   1.550   6.129 -1.9164 -0.1299 -1.2622
18246TIP3   OH276228   5.296   4.029   4.619  0.2931  0.3097  0.0848
18246TIP3    H176229   5.205   4.053   4.604 -0.4360 -2.8889 -1.6037
18246TIP3    H276230   5.346   4.090   4.564 -1.0487  0.5724 -0.9015
18247TIP3   OH276231   2.051   5.318   0.173  0.9284 -0.3065  0.1338
18247TIP3    H176232   2.067   5.275   0.256 -0.9132 -0.7313  0.2957
18247TIP3    H276233   2.114   5.391   0.171  0.2428  0.4041  2.4004
18248TIP3   OH276234   0.404   4.382   5.581 -0.4065  0.2872 -0.7174
18248TIP3    H176235   0.367   4.423   5.658 -0.8973 -0.0690 -0.7642
18248TIP3    H276236   0.484   4.340   5.612  1.0349  2.6547 -0.9665
18249TIP3   OH276237   0.914   1.550  16.551 -0.0978  0.2291 -0.4834
18249TIP3    H176238   0.849   1.494  16.593  0.9447 -1.5560 -1.1481
18249TIP3    H276239   0.902   1.533  16.457  0.4009  0.9547 -0.6834
18250TIP3   OH276240   0.146   3.075   2.432  0.0286 -0.5743 -0.2644
18250TIP3    H176241   0.119   3.134   2.503 -0.2152  1.0266 -1.6177
18250TIP3    H276242   0.198   3.130   2.374  0.3843 -1.8960 -1.2354
18251TIP3   OH276243   2.677   5.951  14.261  0.0132 -0.3867 -0.1618
18251TIP3    H176244   2.715   5.940  14.349 -0.6381  1.2346  0.3737
18251TIP3    H276245   2.603   5.891  14.259 -0.0501 -0.3414  0.4645
18252TIP3   OH276246   6.192   4.817  16.065 -0.5844  0.0254 -0.1776
18252TIP3    H176247   6.271   4.867  16.049 -1.4291  1.7602  0.8171
18252TIP3    H276248   6.174   4.773  15.981  0.9765  0.2184 -0.6323
18253TIP3   OH276249   2.131   5.281   0.454 -0.0704 -0.4368  0.1032
18253TIP3    H176250   2.147   5.190   0.428 -0.2990 -0.2339 -0.7982
18253TIP3    H276251   2.116   5.277   0.548 -0.0272 -1.3298  0.0810
18254TIP3   OH276252   0.399   4.132   0.899  0.7596  0.0524 -0.4136
18254TIP3    H176253   0.471   4.194   0.915  0.5199  0.3778 -0.5811
18254TIP3    H276254   0.424   4.054   0.948  1.2619  0.1379 -0.5184
18255TIP3   OH276255   4.567   3.620   3.640  0.6404 -0.4564  0.2787
18255TIP3    H176256   4.595   3.562   3.711  0.7983 -0.4777  0.1992
18255TIP3    H276257   4.480   3.588   3.615  0.3476 -0.1131  0.8304
18256TIP3   OH276258   3.030   0.971  10.925  0.3979  0.5814  0.2754
18256TIP3    H176259   2.961   1.035  10.937  0.7211  0.7231  1.5973
18256TIP3    H276260   3.081   1.003  10.851  0.1071  1.4410  0.4398
18257TIP3   OH276261   6.644   4.756  13.541 -0.1771 -0.1839 -0.0162
18257TIP3    H176262   6.677   4.737  13.453 -0.4197 -0.2692 -0.0918
18257TIP3    H276263   6.661   4.849  13.554  0.6729 -0.3674  0.2019
18258TIP3   OH276264   5.362   3.282   5.451  0.6061  0.8256  0.1870
18258TIP3    H176265   5.363   3.191   5.421 -0.9988  0.3337  1.4880
18258TIP3    H276266   5.426   3.326   5.396  2.3122 -1.3366  0.3341
18259TIP3   OH276267   6.629   5.961  12.718 -0.0935  0.8419 -0.4398
18259TIP3    H176268   6.671   6.037  12.678 -1.1406  2.1937  0.8914
18259TIP3    H276269   6.539   5.964  12.684 -0.7812  1.5771  1.3207
18260TIP3   OH276270   6.709   6.329   1.094 -0.4397 -0.1777 -0.2261
18260TIP3    H176271   6.711   6.242   1.134  0.0042 -0.2203 -0.3437
18260TIP3    H276272   6.636   6.374   1.138 -2.0952 -1.3196 -1.6686
18261TIP3   OH276273   0.874   3.585  12.099  0.5499  0.1183  0.0231
18261TIP3    H176274   0.846   3.665  12.056 -2.1308  0.5387  2.2598
18261TIP3    H276275   0.879   3.607  12.192 -0.8128 -2.3707  0.7938
18262TIP3   OH276276   1.783   3.667   6.007 -0.3153  0.3492 -0.2538
18262TIP3    H176277   1.806   3.685   5.916 -0.3558 -0.7374 -0.4886
18262TIP3    H276278   1.763   3.753   6.043  1.5998  1.0509 -0.7240
18263TIP3   OH276279   5.667   5.650   0.152 -0.9666  0.0968 -0.2349
18263TIP3    H176280   5.751   5.608   0.172 -2.1333 -2.0364  0.4910
18263TIP3    H276281   5.691   5.737   0.120  1.5020 -0.3792  0.1073
18264TIP3   OH276282   6.065   3.299   3.827 -0.6906 -0.5387 -0.4411
18264TIP3    H176283   6.108   3.304   3.742 -0.6394 -0.3704 -0.4062
18264TIP3    H276284   6.126   3.251   3.882  0.8958  2.2834  0.4712
18265TIP3   OH276285   5.875   4.287  12.403 -0.2874 -0.5674 -0.1906
18265TIP3    H176286   5.928   4.253  12.331  0.5752 -0.4191  0.3480
18265TIP3    H276287   5.803   4.224  12.413  0.7444 -1.7451  0.1696
18266TIP3   OH276288   3.598   6.506   0.705 -0.2049  0.3399  0.2311
18266TIP3    H176289   3.547   6.446   0.759 -0.2529  1.2779  1.2611
18266TIP3    H276290   3.659   6.450   0.657 -1.0367 -0.6318  0.2663
18267TIP3   OH276291   4.104   5.783   4.407  0.3062 -0.3806 -0.2393
18267TIP3    H176292   4.087   5.751   4.318 -0.3211 -0.2988 -0.1499
18267TIP3    H276293   4.055   5.865   4.413  1.1114  0.1075 -0.1342
18268TIP3   OH276294   2.683   3.950  12.869 -0.0470 -0.1242 -0.3896
18268TIP3    H176295   2.739   3.889  12.820  0.1620  0.4939 -0.9313
18268TIP3    H276296   2.596   3.911  12.866  0.1568 -0.5857 -0.4058
18269TIP3   OH276297   3.949   0.996  17.090 -0.0101  0.0841  0.1391
18269TIP3    H176298   4.001   0.981  17.011  0.5075  1.7643  0.1214
18269TIP3    H276299   3.956   0.913  17.138  0.2755 -0.7193 -1.2082
18270TIP3   OH276300   0.831   6.292  14.198  0.0025 -0.6416 -0.1796
18270TIP3    H176301   0.870   6.205  14.191  0.2615 -0.4150 -2.0123
18270TIP3    H276302   0.737   6.276  14.201  0.0232 -0.9900 -1.0213
18271TIP3   OH276303   2.494   0.337   0.596 -0.1166  0.3251 -0.1721
18271TIP3    H176304   2.426   0.385   0.548 -1.0128 -0.4113  0.3380
18271TIP3    H276305   2.564   0.324   0.532  0.1150  2.1855 -0.3647
18272TIP3   OH276306   3.884   3.489  14.061 -0.2160 -0.0508  0.2488
18272TIP3    H176307   3.900   3.497  13.967 -1.7800  3.7321  0.0964
18272TIP3    H276308   3.813   3.425  14.068 -1.0438  0.6281 -1.3558
18273TIP3   OH276309   1.750   4.687   2.582  0.6795  0.3075  0.1564
18273TIP3    H176310   1.659   4.674   2.554 -0.2683  2.9981  1.5637
18273TIP3    H276311   1.801   4.628   2.527 -1.9461 -1.6813 -0.3546
18274TIP3   OH276312   0.172   4.701  12.089 -0.0647 -0.0119 -0.0442
18274TIP3    H176313   0.157   4.785  12.133 -1.3243  0.0275 -0.5298
18274TIP3    H276314   0.267   4.700  12.073  0.0565  1.0411  0.5069
18275TIP3   OH276315   6.550   2.051   4.152 -0.8642 -0.3596  0.4300
18275TIP3    H176316   6.520   2.130   4.107 -0.7397 -0.8122 -0.4738
18275TIP3    H276317   6.524   2.063   4.243 -1.3534  0.4673  0.1839
18276TIP3   OH276318   2.790   0.034   5.124 -0.1622 -0.6619  0.3664
18276TIP3    H176319   2.845   0.027   5.202 -0.0362  1.0016  0.4677
18276TIP3    H276320   2.723   0.098   5.148  1.8362  2.5684 -1.8946
18277TIP3   OH276321   1.366   1.623   6.036  0.1790  0.1675  0.4751
18277TIP3    H176322   1.445   1.632   5.983  0.2338 -0.4318  0.4523
18277TIP3    H276323   1.380   1.544   6.088 -1.4234 -1.3851 -1.3185
18278TIP3   OH276324   1.890   1.580   3.623  0.3621 -0.7175 -0.1043
18278TIP3    H176325   1.946   1.567   3.546 -1.4277  0.5819 -1.7359
18278TIP3    H276326   1.922   1.662   3.662  0.4422 -0.6776 -0.2508
18279TIP3   OH276327   1.002   3.610  11.176 -0.3507 -0.0902  0.5813
18279TIP3    H176328   0.939   3.633  11.108 -2.0333 -3.7539  0.6930
18279TIP3    H276329   0.949   3.582  11.250  1.4594  2.4004  3.0671
18280TIP3   OH276330   1.379   6.075  14.307  0.0794 -0.4261 -0.0104
18280TIP3    H176331   1.460   6.035  14.338 -0.0185  0.1000  0.9497
18280TIP3    H276332   1.408   6.144  14.247  0.3193 -0.5231 -0.0062
18281TIP3   OH276333   1.556   1.874   2.448  0.3417  0.0530  0.2654
18281TIP3    H176334   1.539   1.881   2.354  1.6110 -1.3124 -0.1094
18281TIP3    H276335   1.501   1.801   2.476  0.4247  0.0610  0.4471
18282TIP3   OH276336   4.354   3.079   1.844  0.0264 -0.4668 -0.1880
18282TIP3    H176337   4.324   3.034   1.922  0.2933  1.1108  0.8607
18282TIP3    H276338   4.447   3.057   1.838  0.4435  0.8321  1.0049
18283TIP3   OH276339   0.862   0.772  14.996 -0.4681 -0.9154  0.4977
18283TIP3    H176340   0.846   0.866  15.010  0.5847 -0.6940  0.2700
18283TIP3    H276341   0.927   0.748  15.062 -3.2068 -2.3324  2.9264
18284TIP3   OH276342   3.091   5.520  11.658  0.2218  0.4298  0.0597
18284TIP3    H176343   3.108   5.563  11.574  0.4477  1.0030  0.3995
18284TIP3    H276344   3.032   5.448  11.635 -0.7328  1.3325 -0.4234
18285TIP3   OH276345   3.860   4.586  14.667 -0.1175  0.4125 -0.1268
18285TIP3    H176346   3.775   4.546  14.652 -1.5366  3.7062 -1.9874
18285TIP3    H276347   3.921   4.535  14.614 -1.1745 -1.0623  0.0218
18286TIP3   OH276348   0.517   5.631  14.597  0.1531  0.1329  0.2214
18286TIP3    H176349   0.598   5.664  14.559 -1.0706  0.7938 -1.9882
18286TIP3    H276350   0.477   5.708  14.638  0.0413  0.0759  0.2202
18287TIP3   OH276351   1.939   4.241  14.791  0.0833  0.0634 -0.3878
18287TIP3    H176352   1.999   4.232  14.718  2.1919 -0.0633  1.2616
18287TIP3    H276353   1.949   4.159  14.840 -1.9952 -0.2690 -0.3931
18288TIP3   OH276354   1.526   5.725   5.734 -0.3231  0.3825 -0.0659
18288TIP3    H176355   1.519   5.804   5.787 -0.7189  1.2091 -1.3030
18288TIP3    H276356   1.581   5.751   5.659  0.5940 -0.8693  0.1407
18289TIP3   OH276357   5.122   4.172  11.917  0.2656 -0.1795  0.1721
18289TIP3    H176358   5.211   4.197  11.894 -0.0828  0.5953 -0.3740
18289TIP3    H276359   5.066   4.226  11.862 -0.5538 -0.4637  0.6933
18290TIP3   OH276360   2.886   5.932  16.891  0.4018 -0.4507  0.0835
18290TIP3    H176361   2.955   5.920  16.826 -0.6388 -0.8227 -0.9854
18290TIP3    H276362   2.825   5.994  16.851 -0.5847 -1.1704  0.4191
18291TIP3   OH276363   4.587   3.200  12.671  0.2058 -0.1989 -0.6314
18291TIP3    H176364   4.496   3.221  12.649 -1.1781 -1.8882  2.6348
18291TIP3    H276365   4.595   3.225  12.763  2.5067 -1.6693 -0.3545
18292TIP3   OH276366   5.006   1.187   0.393  0.0787 -0.5377 -0.0807
18292TIP3    H176367   4.991   1.282   0.395 -2.2601 -0.8364  2.8944
18292TIP3    H276368   5.101   1.179   0.384  0.2951  2.0166 -1.2390
18293TIP3   OH276369   6.287   4.853  15.359 -0.3448  0.5869  0.5787
18293TIP3    H176370   6.339   4.926  15.324  1.5228  0.1738  2.2390
18293TIP3    H276371   6.322   4.775  15.316 -1.0521  0.4964  0.1648
18294TIP3   OH276372   2.175   0.102  11.826  0.6399 -0.2813 -0.1686
18294TIP3    H176373   2.233   0.103  11.902 -0.0249  1.1134  0.3599
18294TIP3    H276374   2.105   0.042  11.850  1.9746 -2.2425 -0.9474
18295TIP3   OH276375   3.202   3.610  11.713 -0.4156 -0.1010  0.2871
18295TIP3    H176376   3.266   3.563  11.660 -0.3395 -0.0844  0.3656
18295TIP3    H276377   3.248   3.632  11.794  1.2649  4.5734 -1.6163
18296TIP3   OH276378   0.501   3.458  11.945  0.0003  0.8735 -0.0840
18296TIP3    H176379   0.493   3.528  12.009 -0.1109  2.0936 -1.3804
18296TIP3    H276380   0.592   3.430  11.951 -0.4886 -0.4406  1.9838
18297TIP3   OH276381   1.993   1.180  13.441  0.0755  0.1756 -0.1918
18297TIP3    H176382   2.013   1.126  13.365 -0.5998 -1.2951  0.6359
18297TIP3    H276383   2.056   1.252  13.437  1.8123 -1.3158 -0.6681
18298TIP3   OH276384   6.126   2.694   0.036  0.3002  0.5793 -0.3579
18298TIP3    H176385   6.140   2.611   0.082  0.6682 -0.3298 -2.0212
18298TIP3    H276386   6.056   2.676  -0.026 -0.5329  1.9257  0.1388
18299TIP3   OH276387   1.383   3.700  14.314 -0.1258 -1.0327  0.2570
18299TIP3    H176388   1.444   3.634  14.347  0.0632 -1.9810 -1.8151
18299TIP3    H276389   1.310   3.649  14.279 -1.2786  0.0139  1.0442
18300TIP3   OH276390   1.986   0.147  13.497  0.7118 -0.1176 -0.0543
18300TIP3    H176391   1.996   0.091  13.574  1.4838 -0.9397 -0.7172
18300TIP3    H276392   1.973   0.235  13.532 -4.1239 -1.0471  1.1533
18301TIP3   OH276393   2.135   5.967   5.104 -0.1618  0.0009  0.1519
18301TIP3    H176394   2.085   6.018   5.040  0.9979  1.2552  0.2022
18301TIP3    H276395   2.069   5.938   5.167 -0.6989  3.1437  1.2298
18302TIP3   OH276396   0.803   6.636   1.054  0.3211  0.2357 -0.2458
18302TIP3    H176397   0.720   6.594   1.074  0.4953 -0.5992 -1.2177
18302TIP3    H276398   0.868   6.585   1.103  0.4421 -0.1449 -0.7967
18303TIP3   OH276399   3.069   6.235   4.005 -0.3802 -0.0214 -0.4355
18303TIP3    H176400   3.057   6.141   3.994 -1.9471 -0.0831  1.2613
18303TIP3    H276401   3.095   6.266   3.919 -2.3745 -1.6732 -1.7317
18304TIP3   OH276402   5.807   3.206   6.571  0.1561  0.0059 -0.6173
18304TIP3    H176403   5.809   3.282   6.513  1.6876  1.0885  0.7425
18304TIP3    H276404   5.877   3.149   6.538  0.1663  0.0135 -0.6087
18305TIP3   OH276405   4.534   3.636   4.968 -0.0886  0.3619  0.7435
18305TIP3    H176406   4.551   3.548   4.936 -0.9809  0.4242  0.0560
18305TIP3    H276407   4.575   3.639   5.054 -0.0731 -0.7305  0.7871
18306TIP3   OH276408   0.098   0.157  11.873  0.1409 -0.5871 -0.0976
18306TIP3    H176409   0.189   0.178  11.891  0.2109 -1.0034  0.0411
18306TIP3    H276410   0.053   0.242  11.870  0.4904 -0.3986  0.0470
18307TIP3   OH276411   2.760   3.078   3.137  0.0743  0.0996  0.0312
18307TIP3    H176412   2.696   3.040   3.197  0.1691 -0.0504  0.0373
18307TIP3    H276413   2.842   3.034   3.158  0.4545  1.1616  0.8553
18308TIP3   OH276414   4.489   4.931   4.724  0.1012  0.1642  0.7226
18308TIP3    H176415   4.555   4.963   4.785 -0.2961  1.0273  0.7092
18308TIP3    H276416   4.454   4.852   4.767 -0.1387  0.7285  1.5943
18309TIP3   OH276417   5.426   4.835  12.960  0.1132 -0.4925  0.0509
18309TIP3    H176418   5.508   4.881  12.943 -0.2146 -0.1608 -0.6620
18309TIP3    H276419   5.386   4.885  13.032 -0.0305  0.0862 -0.4199
18310TIP3   OH276420   5.839   5.978   5.174  0.0794 -0.3252 -0.0293
18310TIP3    H176421   5.803   5.918   5.238 -0.0071 -0.5008 -0.2395
18310TIP3    H276422   5.883   6.046   5.225 -1.6359  0.6069  0.2796
18311TIP3   OH276423   0.557   2.025  14.923  0.1148  0.4879  0.0326
18311TIP3    H176424   0.479   2.080  14.916  2.0050  3.4754  0.5272
18311TIP3    H276425   0.542   1.955  14.860 -1.7019  2.6520 -2.1588
18312TIP3   OH276426   2.112   6.536  14.787 -0.4376  0.3360  0.0636
18312TIP3    H176427   2.198   6.511  14.819 -1.0026 -1.0568  0.5520
18312TIP3    H276428   2.096   6.623  14.825  0.6591  0.5237  0.1066
18313TIP3   OH276429   4.105   5.949  15.917 -0.4839 -0.0333 -0.1248
18313TIP3    H176430   4.168   5.896  15.868  0.9112  1.0404  0.4405
18313TIP3    H276431   4.034   5.888  15.937 -0.4230 -0.8733 -2.1823
18314TIP3   OH276432   0.019   0.344   5.578 -0.0856  0.4997 -0.4115
18314TIP3    H176433  -0.023   0.409   5.521 -1.2853 -0.1472 -0.2959
18314TIP3    H276434   0.033   0.268   5.522 -0.1631  0.2870 -0.1448
18315TIP3   OH276435   0.481   6.776  12.887  0.4549 -0.4597  0.0982
18315TIP3    H176436   0.443   6.693  12.859 -2.1232  0.5114  0.4130
18315TIP3    H276437   0.553   6.751  12.945 -1.0763 -2.5111  1.2737
18316TIP3   OH276438   3.401   4.309   3.259  0.0075 -0.3740  0.4435
18316TIP3    H176439   3.312   4.330   3.229 -0.1639 -1.3670  0.2199
18316TIP3    H276440   3.447   4.392   3.257 -0.0567 -0.3234 -2.3324
18317TIP3   OH276441   1.776   3.610   2.673  0.1094 -0.4632  0.0003
18317TIP3    H176442   1.822   3.584   2.593  0.1686 -1.3112  0.2975
18317TIP3    H276443   1.818   3.559   2.742  0.7929  1.0769  0.7512
18318TIP3   OH276444   6.246   1.159  15.803  0.5683  0.0170  0.3470
18318TIP3    H176445   6.304   1.083  15.806  0.2255 -0.2810 -0.3530
18318TIP3    H276446   6.190   1.151  15.880  0.2004 -0.7125  0.0078
18319TIP3   OH276447   2.089   0.298  14.978  0.4506  0.3951 -0.4020
18319TIP3    H176448   2.130   0.380  14.952  0.0992  1.0235  0.9561
18319TIP3    H276449   2.012   0.290  14.923 -0.7338  2.1134  0.9095
18320TIP3   OH276450   1.370   2.428  10.452 -0.7210 -0.3794 -0.1510
18320TIP3    H176451   1.275   2.424  10.464 -0.7408 -2.2825 -0.5159
18320TIP3    H276452   1.381   2.438  10.358 -0.5377  1.2992  0.0278
18321TIP3   OH276453   4.977   0.493  13.155 -0.5910  0.2803 -0.0401
18321TIP3    H176454   5.001   0.477  13.063 -0.3798 -0.8667  0.2006
18321TIP3    H276455   4.888   0.527  13.151 -0.8399 -0.4235 -0.6281
18322TIP3   OH276456   2.847   1.552  10.515  0.1740  0.1316 -0.3857
18322TIP3    H176457   2.816   1.501  10.589  0.4035 -0.1882 -0.5106
18322TIP3    H276458   2.767   1.584  10.472  0.0408  0.6250  0.2055
18323TIP3   OH276459   2.668   5.704  14.453 -0.5364  0.3935  0.3601
18323TIP3    H176460   2.685   5.629  14.396  0.4294  2.3924 -2.1687
18323TIP3    H276461   2.715   5.684  14.534 -0.4398 -1.7678 -0.1839
18324TIP3   OH276462   0.563   1.043  16.533 -0.2178  0.7167 -0.4729
18324TIP3    H176463   0.546   1.054  16.439 -1.7392 -1.5424 -0.5477
18324TIP3    H276464   0.642   0.988  16.536 -1.2634 -0.8436 -0.5323
18325TIP3   OH276465   4.405   6.420  12.063  0.1242 -0.3735 -0.0082
18325TIP3    H176466   4.400   6.413  11.968 -0.7498  0.3278 -0.0234
18325TIP3    H276467   4.322   6.384  12.094  0.4271 -0.6499  0.4978
18326TIP3   OH276468   4.228   3.588   3.492 -0.0087  0.0471  0.2771
18326TIP3    H176469   4.299   3.581   3.429  1.4052  2.1652  1.5312
18326TIP3    H276470   4.175   3.509   3.477  1.4749 -0.6088 -2.0106
18327TIP3   OH276471   3.252   1.189   1.091  0.4201 -0.3271  0.1652
18327TIP3    H176472   3.181   1.183   1.155  0.1817 -1.2705 -0.1742
18327TIP3    H276473   3.315   1.121   1.118  0.7656 -0.0992 -0.0599
18328TIP3   OH276474   3.268   5.189  12.448  0.5257 -0.2810  0.0070
18328TIP3    H176475   3.254   5.149  12.362  0.2536 -0.7137  0.2468
18328TIP3    H276476   3.313   5.121  12.499 -0.1718 -0.3922  0.5032
18329TIP3   OH276477   4.873   0.479  14.203  0.0386  0.5931 -0.2540
18329TIP3    H176478   4.947   0.434  14.244 -0.1640  0.4244 -0.0743
18329TIP3    H276479   4.810   0.410  14.184 -0.7196  0.9255  0.9734
18330TIP3   OH276480   4.529   3.472   1.778  0.2699  0.4915  0.2210
18330TIP3    H176481   4.545   3.470   1.684 -1.5921  0.4661 -0.1153
18330TIP3    H276482   4.616   3.486   1.816  0.9638  1.2304 -1.5245
18331TIP3   OH276483   2.785   1.995  13.137 -0.0097  0.2866 -0.0219
18331TIP3    H176484   2.814   2.079  13.172  0.1217  0.8476 -1.4071
18331TIP3    H276485   2.845   1.978  13.064  0.0570 -1.0877  0.3233
18332TIP3   OH276486   5.802   4.387   2.218  0.4941 -0.1865  0.3596
18332TIP3    H176487   5.788   4.354   2.307 -1.5105  0.8190  0.4792
18332TIP3    H276488   5.895   4.407   2.214  1.0788 -2.3263  1.4617
18333TIP3   OH276489   4.251   1.957   5.014  0.1988 -0.5080  0.3008
18333TIP3    H176490   4.316   1.934   5.081 -1.4367 -0.3657  2.0312
18333TIP3    H276491   4.173   1.907   5.039 -0.7276  0.2268 -1.0112
18334TIP3   OH276492   1.893   4.468  16.169  0.9783 -0.0891 -0.4349
18334TIP3    H176493   1.987   4.458  16.154  1.3058 -0.6107  1.5979
18334TIP3    H276494   1.887   4.523  16.247 -0.2925 -1.6416  0.6411
18335TIP3   OH276495   6.189   4.625  11.796 -0.0212 -0.2279  0.1099
18335TIP3    H176496   6.148   4.547  11.833  0.4147 -0.4742  0.0775
18335TIP3    H276497   6.155   4.697  11.850 -1.5705 -0.2448 -0.7780
18336TIP3   OH276498   2.547   0.803   6.061 -0.3976 -0.1426  0.4541
18336TIP3    H176499   2.553   0.869   6.130 -0.6530 -0.9442  1.2565
18336TIP3    H276500   2.557   0.719   6.106 -1.2545 -0.7208 -0.3813
18337TIP3   OH276501   2.554   4.743  12.643 -0.0094 -0.2283  0.1586
18337TIP3    H176502   2.563   4.683  12.717  0.1204  1.1223  1.2996
18337TIP3    H276503   2.588   4.827  12.676  0.1279  0.4008 -1.4703
18338TIP3   OH276504   1.729   6.420   0.232  0.0722  0.4168  0.3285
18338TIP3    H176505   1.683   6.461   0.306 -1.6349 -1.7945  0.6037
18338TIP3    H276506   1.752   6.493   0.174  0.0305  2.0437  2.2563
18339TIP3   OH276507   0.480   4.375  14.409 -0.2578  0.0091  0.0497
18339TIP3    H176508   0.421   4.436  14.453  0.4943 -0.0601  1.2033
18339TIP3    H276509   0.506   4.314  14.478  0.3483 -0.5752 -0.6844
18340TIP3   OH276510   5.975   2.608   2.786 -0.2685  0.3417 -0.2848
18340TIP3    H176511   6.000   2.595   2.878 -3.0580  0.6041  0.6345
18340TIP3    H276512   6.040   2.668   2.752  1.4633 -0.5742  1.1845
18341TIP3   OH276513   1.647   3.501  15.312 -0.5384 -0.2132  0.5321
18341TIP3    H176514   1.650   3.446  15.390  0.1884 -0.4951  0.3081
18341TIP3    H276515   1.721   3.561  15.322 -1.0734  0.4508  0.5698
18342TIP3   OH276516   3.598   4.475  14.634  0.0446 -0.3689  0.3719
18342TIP3    H176517   3.525   4.445  14.581 -1.0559  0.0186  1.6087
18342TIP3    H276518   3.597   4.571  14.625  0.5844 -0.3828  0.1522
18343TIP3   OH276519   2.578   5.193   2.568  0.2245 -0.3430  0.3672
18343TIP3    H176520   2.667   5.217   2.594 -0.1771  1.4094  0.2918
18343TIP3    H276521   2.522   5.255   2.615 -0.9543 -1.3839  0.3717
18344TIP3   OH276522   0.188   1.258   4.755 -0.5821 -1.0574  0.1902
18344TIP3    H176523   0.231   1.173   4.741 -1.1867 -1.8512  2.6460
18344TIP3    H276524   0.095   1.237   4.759 -1.0125  0.1902 -1.9534
18345TIP3   OH276525   5.850   5.297  15.546  0.1320  0.5190  0.3456
18345TIP3    H176526   5.923   5.249  15.585 -0.5030 -0.6190  0.1841
18345TIP3    H276527   5.773   5.243  15.565 -0.3394  0.4510 -1.5916
18346TIP3   OH276528   1.801   4.318  15.792 -0.4439  0.0315  0.0243
18346TIP3    H176529   1.882   4.367  15.778 -0.8830  0.4923 -0.9693
18346TIP3    H276530   1.739   4.382  15.826 -0.8688  0.0692 -0.7929
18347TIP3   OH276531   2.323   3.270  15.377 -0.2236 -0.0972 -0.2660
18347TIP3    H176532   2.332   3.342  15.439  1.4865 -0.8476  0.4401
18347TIP3    H276533   2.384   3.291  15.306  0.6889 -1.0527  0.2016
18348TIP3   OH276534   4.946   0.987   3.494 -0.0138  0.1564  0.0193
18348TIP3    H176535   4.997   1.029   3.563 -0.6507  2.0095 -0.5672
18348TIP3    H276536   4.860   0.973   3.533  0.1114 -0.3651  0.1186
18349TIP3   OH276537   6.043   0.822  11.973  0.1613 -0.1569 -0.2015
18349TIP3    H176538   6.023   0.808  12.066  1.0804 -1.2462 -0.1493
18349TIP3    H276539   6.138   0.810  11.967 -0.1672 -2.6648 -1.6841
18350TIP3   OH276540   1.276   3.026   2.365 -0.4909 -0.8792  0.1871
18350TIP3    H176541   1.258   3.104   2.417 -0.2221 -0.3251 -0.5351
18350TIP3    H276542   1.190   2.986   2.351 -0.6951 -0.4132  0.1007
18351TIP3   OH276543   4.979   4.668  11.188  0.0014 -0.2287  0.4439
18351TIP3    H176544   4.935   4.752  11.202  1.5687  0.7335 -0.0825
18351TIP3    H276545   4.982   4.658  11.093 -0.5846 -1.1339  0.5078
18352TIP3   OH276546   3.394   2.986  11.876 -0.9053 -0.6980  0.3681
18352TIP3    H176547   3.470   2.953  11.827  0.3412  1.5022  0.7086
18352TIP3    H276548   3.329   2.916  11.867  0.2713 -1.6330 -1.9899
18353TIP3   OH276549   5.066   0.777  11.404  0.4376  0.1154  0.1177
18353TIP3    H176550   5.076   0.867  11.372  0.1628  0.0179 -0.2580
18353TIP3    H276551   4.971   0.767  11.416  0.4080 -0.3247 -0.4432
18354TIP3   OH276552   3.559   0.588   0.252 -0.5585 -0.4461 -0.0670
18354TIP3    H176553   3.556   0.673   0.296 -0.4255 -0.9331  0.9135
18354TIP3    H276554   3.469   0.555   0.258 -0.6541 -0.2873 -0.6238
18355TIP3   OH276555   4.506   6.641  15.486  0.3559 -0.1461  0.1763
18355TIP3    H176556   4.456   6.710  15.529  0.7777 -0.0648  0.5415
18355TIP3    H276557   4.565   6.687  15.427 -0.9504 -0.2983 -1.3023
18356TIP3   OH276558   4.114   0.853   3.945 -0.1727  0.1194  0.0578
18356TIP3    H176559   4.149   0.791   4.008  1.6600 -0.0526 -1.0586
18356TIP3    H276560   4.182   0.860   3.877 -1.7710  0.7673 -1.5718
18357TIP3   OH276561   6.615   0.903   3.706 -1.1816  0.2225  0.7757
18357TIP3    H176562   6.624   0.971   3.639 -0.0701  0.7791  1.4687
18357TIP3    H276563   6.582   0.827   3.658  1.0465  0.1148 -0.7221
18358TIP3   OH276564   6.178   4.232   1.265 -0.4314  0.1809  0.1566
18358TIP3    H176565   6.129   4.275   1.195 -0.2645  0.0829 -0.0203
18358TIP3    H276566   6.210   4.151   1.226 -1.2214 -0.3919  0.6478
18359TIP3   OH276567   4.882   2.985   1.066 -0.2195  0.6169 -1.2741
18359TIP3    H176568   4.916   3.024   1.146  1.1177 -1.0741 -0.9564
18359TIP3    H276569   4.854   3.059   1.013 -0.3199  1.8273  0.3786
18360TIP3   OH276570   0.307   6.453   2.244 -0.3129  0.2633  0.1729
18360TIP3    H176571   0.323   6.375   2.297  2.8439 -1.1928 -2.5323
18360TIP3    H276572   0.225   6.435   2.198 -0.4659 -0.6934  0.7987
18361TIP3   OH276573   2.899   4.468  16.394  0.0806 -0.8860 -0.2787
18361TIP3    H176574   2.849   4.545  16.365  2.7550  0.8716 -0.5990
18361TIP3    H276575   2.943   4.437  16.315  1.3715 -0.8438  0.3929
18362TIP3   OH276576   4.689   3.099   4.859  0.3207  0.3985  0.1358
18362TIP3    H176577   4.650   3.099   4.947 -0.0939  1.6233 -0.0286
18362TIP3    H276578   4.755   3.030   4.862  0.3824  0.4935  1.4369
18363TIP3   OH276579   1.486   1.573  12.448 -0.2021  0.4009 -0.2642
18363TIP3    H176580   1.563   1.534  12.490  0.2109 -0.3908 -1.6740
18363TIP3    H276581   1.505   1.667  12.445  0.0151  0.3968  0.7607
18364TIP3   OH276582   1.159   6.447  15.354  0.4549  0.8432 -0.0600
18364TIP3    H176583   1.091   6.407  15.300  1.7700  0.9101 -1.8560
18364TIP3    H276584   1.180   6.381  15.420 -0.5649  0.3875 -0.1826
18365TIP3   OH276585   3.737   0.170  15.287  0.0208  0.0158 -0.3436
18365TIP3    H176586   3.726   0.074  15.285 -2.0534  0.2011 -0.3366
18365TIP3    H276587   3.824   0.185  15.251  0.2534 -1.8605 -0.6640
18366TIP3   OH276588   1.842   3.658  15.436  0.1432  0.0100  0.3075
18366TIP3    H176589   1.796   3.665  15.520  2.9160 -0.2128  1.9398
18366TIP3    H276590   1.874   3.746  15.419  0.8280 -0.2433  0.2516
18367TIP3   OH276591   4.036   4.602   2.214 -0.3377  0.3804 -0.8446
18367TIP3    H176592   4.104   4.665   2.233 -0.0917  0.2381 -1.2329
18367TIP3    H276593   4.018   4.613   2.121  0.2718 -0.6573 -1.1069
18368TIP3   OH276594   3.072   0.747  10.709  0.2452  0.4153  0.1521
18368TIP3    H176595   2.981   0.760  10.684 -0.0423 -0.2255  0.8739
18368TIP3    H276596   3.107   0.836  10.715 -0.3327  0.6669 -0.0940
18369TIP3   OH276597   2.125   2.275   2.192  0.1091  0.0238  0.1476
18369TIP3    H176598   2.214   2.243   2.209  0.0950  0.1247  0.4211
18369TIP3    H276599   2.069   2.199   2.204  0.1647 -0.0488 -0.0643
18370TIP3   OH276600   4.433   3.590   0.298  0.0183 -0.0905  0.0704
18370TIP3    H176601   4.498   3.634   0.243  0.1947  0.3454  0.6183
18370TIP3    H276602   4.470   3.593   0.386 -0.6108 -0.1109  0.3395
18371TIP3   OH276603   5.059   3.267  11.340  0.7439  0.5149  0.2728
18371TIP3    H176604   5.083   3.235  11.253  1.2049 -0.2324  0.6660
18371TIP3    H276605   5.075   3.193  11.398 -0.7320  0.5968  0.8297
18372TIP3   OH276606   5.335   0.189   4.824 -1.5045 -0.5031 -0.2928
18372TIP3    H176607   5.341   0.282   4.848 -0.4338 -1.1167  2.1708
18372TIP3    H276608   5.389   0.182   4.745 -0.2492  0.7252  0.3972
18373TIP3   OH276609   1.277   1.776  16.200  0.0497 -0.3423  0.6372
18373TIP3    H176610   1.204   1.728  16.241 -0.7033 -1.8931 -2.2531
18373TIP3    H276611   1.319   1.712  16.143  1.7099  1.3861 -0.1875
18374TIP3   OH276612   1.348   6.321  13.239  0.1546  0.0089 -0.2977
18374TIP3    H176613   1.298   6.316  13.157 -1.3433 -0.4475  0.6007
18374TIP3    H276614   1.398   6.239  13.240 -0.6033 -0.4705 -0.2928
18375TIP3   OH276615   2.701   1.691   3.887  0.0543  0.6738  0.1807
18375TIP3    H176616   2.639   1.642   3.941  2.2582 -1.7821  0.6689
18375TIP3    H276617   2.775   1.631   3.875  1.7131  2.9109 -1.6028
18376TIP3   OH276618   3.548   2.206   1.577 -0.1508 -0.1605  0.0951
18376TIP3    H176619   3.552   2.157   1.494 -0.3928 -0.3026  0.1661
18376TIP3    H276620   3.628   2.258   1.578  0.0887 -0.5223 -0.0053
18377TIP3   OH276621   5.411   2.554  15.210  0.1320  0.5135 -0.5571
18377TIP3    H176622   5.392   2.465  15.239  1.7005  0.8465  1.7471
18377TIP3    H276623   5.506   2.554  15.194  0.1875  1.8312 -0.2940
18378TIP3   OH276624   2.190   3.358   3.533 -0.3750 -0.2396  0.5418
18378TIP3    H176625   2.207   3.264   3.538 -0.2482 -0.1644  1.5310
18378TIP3    H276626   2.103   3.364   3.492 -1.1135 -0.8539  1.9401
18379TIP3   OH276627   5.819   5.733   0.816 -0.6407  0.1509  0.0250
18379TIP3    H176628   5.884   5.690   0.760  0.2331  0.4229  0.8209
18379TIP3    H276629   5.789   5.664   0.875  1.2078  0.6895  1.7131
18380TIP3   OH276630   0.019   3.878  10.491 -0.1376  0.0778 -0.0064
18380TIP3    H176631   0.097   3.927  10.519 -0.8533  1.4904 -0.3652
18380TIP3    H276632  -0.049   3.908  10.551 -0.6806 -0.2116 -0.4766
18381TIP3   OH276633   3.102   1.909   5.260  0.1673 -0.5220  0.0709
18381TIP3    H176634   3.055   1.887   5.341  0.1711 -1.6470 -0.2269
18381TIP3    H276635   3.143   1.993   5.280 -1.1212 -0.0074  0.6927
18382TIP3   OH276636   0.927   5.710  12.432 -0.4049  0.1745 -0.3335
18382TIP3    H176637   0.909   5.789  12.382  1.9844  1.0154  0.0347
18382TIP3    H276638   0.863   5.712  12.503  0.2197  2.2990  0.2206
18383TIP3   OH276639   0.457   1.474   1.823  0.2194 -0.7224  0.4948
18383TIP3    H176640   0.531   1.534   1.810  0.6606 -1.1633  0.9302
18383TIP3    H276641   0.397   1.494   1.751  0.5453 -0.0379  0.4050
18384TIP3   OH276642   4.074   3.329   5.858  0.1313 -0.3333 -0.4142
18384TIP3    H176643   4.111   3.399   5.805 -1.5805  0.1856 -0.9767
18384TIP3    H276644   3.999   3.297   5.808 -0.7536 -0.7151  1.0803
18385TIP3   OH276645   4.538   1.794  16.320  0.5181  0.4836 -0.8326
18385TIP3    H176646   4.537   1.881  16.359 -0.1395  1.7965 -3.4945
18385TIP3    H276647   4.448   1.764  16.326  0.6241  0.2404 -0.4454
18386TIP3   OH276648   0.255   6.378   6.471  0.3057  0.1780  0.0927
18386TIP3    H176649   0.349   6.393   6.482  0.5962 -0.4446 -1.2948
18386TIP3    H276650   0.247   6.284   6.456 -0.2839  0.4903 -1.8299
18387TIP3   OH276651   1.164   0.301  14.935 -0.7136  0.1939  0.0746
18387TIP3    H176652   1.250   0.272  14.964  0.1235  1.3345 -1.1249
18387TIP3    H276653   1.126   0.345  15.012  0.1021  0.3596  0.3899
18388TIP3   OH276654   3.690   0.264   4.267  0.1643 -0.2751 -0.0648
18388TIP3    H176655   3.614   0.301   4.223  0.1659  0.1913  0.3200
18388TIP3    H276656   3.717   0.331   4.330  0.7626 -0.5248 -0.0460
18389TIP3   OH276657   5.686   4.884  10.564  0.2277  0.2406  0.0343
18389TIP3    H176658   5.704   4.807  10.510 -2.3015  0.0027 -0.5970
18389TIP3    H276659   5.760   4.942  10.548  0.3638 -0.4891 -2.4913
18390TIP3   OH276660   1.595   0.504   5.420 -0.0975 -0.7211  0.0076
18390TIP3    H176661   1.509   0.543   5.434 -0.2906 -1.1173 -0.0635
18390TIP3    H276662   1.603   0.439   5.490  0.8188  0.4236  1.0108
18391TIP3   OH276663   2.328   0.799   0.434  0.1700  0.2815  0.1302
18391TIP3    H176664   2.239   0.833   0.429 -0.0686 -0.4811 -2.2072
18391TIP3    H276665   2.318   0.704   0.424  1.1970  0.1080  0.5884
18392TIP3   OH276666   5.297   5.652   5.439 -0.5173 -0.0732  0.1298
18392TIP3    H176667   5.368   5.632   5.499 -1.2489 -0.9999  0.7191
18392TIP3    H276668   5.218   5.655   5.494 -1.0862 -0.1417 -0.6563
18393TIP3   OH276669   3.720   3.282  13.657  0.1206 -0.5028  0.6613
18393TIP3    H176670   3.654   3.216  13.678 -0.1668  0.2299  2.1809
18393TIP3    H276671   3.802   3.246  13.690 -0.2040  0.3020  2.4719
18394TIP3   OH276672   6.385   6.107   1.186 -0.6695 -0.0430 -0.0782
18394TIP3    H176673   6.362   6.068   1.271 -1.1418 -1.0742 -0.6652
18394TIP3    H276674   6.315   6.080   1.127 -0.7896  1.3707 -0.6183
18395TIP3   OH276675   0.728   1.522   2.330 -0.2091 -0.3720 -0.0447
18395TIP3    H176676   0.638   1.502   2.355  0.0174 -2.7556 -0.8311
18395TIP3    H276677   0.721   1.583   2.257 -1.1268  0.2417  0.5429
18396TIP3   OH276678   6.063   1.730  14.168  0.2390  0.3969  0.7843
18396TIP3    H176679   6.148   1.741  14.126  0.8354  0.4360  1.9555
18396TIP3    H276680   6.016   1.667  14.113  0.1220  2.0720 -1.1442
18397TIP3   OH276681   5.675   1.482   1.501  0.1828 -0.1795 -0.1229
18397TIP3    H176682   5.696   1.551   1.564 -1.2586 -0.4200  0.6550
18397TIP3    H276683   5.755   1.471   1.450  0.9937  0.8555  0.8816
18398TIP3   OH276684   1.657   3.710  14.532  0.0094  0.0110 -0.4049
18398TIP3    H176685   1.733   3.754  14.494  0.5589  0.4447  1.1009
18398TIP3    H276686   1.643   3.633  14.476  0.4658  0.8470 -1.7203
18399TIP3   OH276687   5.730   4.212   1.961  0.0891 -0.2889 -0.1143
18399TIP3    H176688   5.751   4.299   1.994 -0.3436 -0.0759 -0.3863
18399TIP3    H276689   5.804   4.157   1.987 -0.4808 -0.2511  1.6652
18400TIP3   OH276690   1.027   6.351   4.370 -0.9229  0.0830  0.1330
18400TIP3    H176691   1.116   6.384   4.380 -1.5542  1.2779  2.7008
18400TIP3    H276692   1.035   6.256   4.386 -0.1456  0.2208  0.6394
18401TIP3   OH276693   5.085   1.466  16.482  0.2238 -0.6403  0.2804
18401TIP3    H176694   5.143   1.432  16.414  1.4670 -0.0102  0.9876
18401TIP3    H276695   5.137   1.462  16.562  0.0284  1.7877  0.6072
18402TIP3   OH276696   6.013   2.664  10.604  0.2152 -0.2713 -0.5209
18402TIP3    H176697   6.080   2.699  10.545  2.6695  0.0843  2.1803
18402TIP3    H276698   6.022   2.569  10.597  1.7065 -0.2428  0.3904
18403TIP3   OH276699   2.384   3.372  16.416  0.0178 -0.4342 -0.3589
18403TIP3    H176700   2.373   3.440  16.351  2.5736 -0.3887 -0.8258
18403TIP3    H276701   2.475   3.343  16.407 -0.2775 -2.2164  1.4581
18404TIP3   OH276702   3.583   0.928   4.370  0.2583 -0.3755 -0.4278
18404TIP3    H176703   3.609   0.846   4.328  0.7181 -0.4705  0.0283
18404TIP3    H276704   3.502   0.953   4.326  0.6201 -0.5776 -1.2363
18405TIP3   OH276705   5.254   6.071  13.020 -0.0604  0.1396 -0.0327
18405TIP3    H176706   5.322   6.101  13.080 -0.3687  1.2387 -0.2052
18405TIP3    H276707   5.173   6.111  13.054 -1.0139 -2.6872  1.3256
18406TIP3   OH276708   1.983   5.966   4.311  0.2687 -0.5197 -0.2407
18406TIP3    H176709   1.962   6.060   4.309 -0.9229 -0.7530  0.2323
18406TIP3    H276710   1.980   5.939   4.219  0.5149 -0.1211 -0.3688
18407TIP3   OH276711   0.381   3.337  15.833  0.2607  0.4476 -0.4494
18407TIP3    H176712   0.322   3.306  15.902  0.0814  2.4597  0.3656
18407TIP3    H276713   0.347   3.298  15.753 -0.9020 -0.1119  0.2909
18408TIP3   OH276714   1.507   3.548   3.559 -0.2021  0.6943 -0.0342
18408TIP3    H176715   1.539   3.582   3.476  1.7000  0.1704  0.4402
18408TIP3    H276716   1.513   3.623   3.619  1.9339  0.1844  0.4798
18409TIP3   OH276717   1.725   0.896  15.892  0.3648 -0.0785  0.0631
18409TIP3    H176718   1.682   0.952  15.956  0.8204 -0.1806  0.4654
18409TIP3    H276719   1.683   0.917  15.809  1.3572  1.7455 -0.0119
18410TIP3   OH276720   4.918   5.416  16.188  0.0061 -0.3535 -0.4890
18410TIP3    H176721   4.828   5.441  16.165 -0.3328 -1.7833 -0.8232
18410TIP3    H276722   4.907   5.343  16.249  0.9346 -0.8802 -0.9374
18411TIP3   OH276723   4.996   4.605   2.486  0.3202  0.5215  0.7031
18411TIP3    H176724   4.967   4.608   2.577  2.2518  0.2331  1.3689
18411TIP3    H276725   5.003   4.697   2.460 -0.6186  0.5982  0.7017
18412TIP3   OH276726   3.227   6.065  15.927 -0.3116  0.2827 -0.1639
18412TIP3    H176727   3.227   6.130  15.857  1.5301 -0.9309 -1.3734
18412TIP3    H276728   3.186   5.988  15.888  0.5518 -0.3381  0.1294
18413TIP3   OH276729   6.224   6.412   4.271  0.8101  0.3935  1.1173
18413TIP3    H176730   6.188   6.500   4.284  1.0342  0.3854  1.8378
18413TIP3    H276731   6.275   6.418   4.191  1.8337  1.2491  1.8148
18414TIP3   OH276732   0.867   5.615   0.908 -0.4488  0.8088 -0.0441
18414TIP3    H176733   0.954   5.584   0.934 -0.9135 -0.6187 -0.1268
18414TIP3    H276734   0.815   5.610   0.988 -0.6656  0.9059 -0.1787
18415TIP3   OH276735   4.085   6.433  15.319 -0.1745 -0.2576  0.1154
18415TIP3    H176736   4.012   6.490  15.294  0.0133 -0.4059 -0.8117
18415TIP3    H276737   4.058   6.346  15.289 -0.8002 -0.8404  2.1817
18416TIP3   OH276738   5.908   2.503   0.901  0.4171  0.0213  0.3170
18416TIP3    H176739   5.954   2.572   0.851  0.2062 -1.9199 -2.8441
18416TIP3    H276740   5.972   2.474   0.966  0.6855  2.7588  1.4223
18417TIP3   OH276741   6.614   2.900   2.276  0.4490 -0.4006  0.2367
18417TIP3    H176742   6.645   2.921   2.364  1.9705 -2.3181  0.2166
18417TIP3    H276743   6.524   2.870   2.289  0.7941 -1.0637  1.2046
18418TIP3   OH276744   3.652   3.522   5.244 -0.1057 -0.3289  0.1878
18418TIP3    H176745   3.747   3.506   5.247 -0.3112 -2.1903 -1.1682
18418TIP3    H276746   3.615   3.438   5.219 -2.3112 -0.1024  2.3766
18419TIP3   OH276747   5.781   1.971  12.209 -0.3084  0.0612 -0.3205
18419TIP3    H176748   5.703   1.926  12.176 -0.0726 -0.9984  0.5330
18419TIP3    H276749   5.779   2.056  12.165 -3.4754  1.2148  1.6204
18420TIP3   OH276750   5.120   0.442  16.810  0.0940  0.0195 -0.5469
18420TIP3    H176751   5.195   0.425  16.754  0.5298 -0.0476  0.0534
18420TIP3    H276752   5.049   0.391  16.770  0.4958 -0.3381 -0.8153
18421TIP3   OH276753   1.769   4.511   1.441 -0.3942  0.4279 -0.2260
18421TIP3    H176754   1.848   4.505   1.495  0.1068  2.2552 -0.6874
18421TIP3    H276755   1.794   4.568   1.368 -2.0907  0.9000 -0.4832
18422TIP3   OH276756   3.756   4.675  11.596 -0.2760  0.1717  0.0830
18422TIP3    H176757   3.662   4.673  11.577 -0.6691  1.2051  1.6885
18422TIP3    H276758   3.763   4.727  11.676  1.6104 -0.4432  0.3712
18423TIP3   OH276759   2.931   6.478  11.363 -0.4977  0.4998 -0.1349
18423TIP3    H176760   3.023   6.499  11.375 -0.8347  1.5838  0.6279
18423TIP3    H276761   2.896   6.467  11.452 -0.6351 -2.1589 -0.4215
18424TIP3   OH276762   6.032   1.583  15.345 -0.3608  0.2436 -0.1887
18424TIP3    H176763   6.120   1.572  15.383 -0.4532 -0.8809 -0.2796
18424TIP3    H276764   6.006   1.495  15.320 -0.5340  0.8670 -2.3697
18425TIP3   OH276765   4.321   2.246  12.101 -0.1243 -0.2287  0.6805
18425TIP3    H176766   4.259   2.176  12.081 -1.4443  0.6149  1.6148
18425TIP3    H276767   4.391   2.235  12.038 -1.8868 -0.3962 -1.3767
18426TIP3   OH276768   3.842   6.776   4.560 -0.6762 -0.1051 -0.9231
18426TIP3    H176769   3.748   6.794   4.560 -0.7793 -0.4141  1.2119
18426TIP3    H276770   3.848   6.682   4.572 -0.1261  0.0806  0.4813
18427TIP3   OH276771   5.621   5.426   4.107 -0.0480 -0.0392  0.2291
18427TIP3    H176772   5.600   5.511   4.144 -1.6158  0.7723 -2.2932
18427TIP3    H276773   5.542   5.374   4.118  0.6177 -0.9316  0.9961
18428TIP3   OH276774   6.519   2.870   0.396 -1.3517 -0.2683  0.1952
18428TIP3    H176775   6.611   2.881   0.373 -0.7956 -1.4152  1.7387
18428TIP3    H276776   6.481   2.824   0.320 -0.3243 -1.0311  0.1160
18429TIP3   OH276777   2.947   1.903  16.362 -0.1242 -0.0435  0.4137
18429TIP3    H176778   2.853   1.892  16.378 -0.0625 -0.5578  0.4351
18429TIP3    H276779   2.987   1.824  16.397  0.3119  0.1368  0.3308
18430TIP3   OH276780   1.846   6.444   2.841 -0.1848 -0.0585 -0.3993
18430TIP3    H176781   1.925   6.426   2.893  0.2791  0.2386 -0.9898
18430TIP3    H276782   1.803   6.359   2.832 -0.3564 -0.0923  0.5950
18431TIP3   OH276783   5.825   6.774   3.224 -0.3285 -0.2308  0.6389
18431TIP3    H176784   5.816   6.698   3.281 -2.0015 -0.2784  0.3650
18431TIP3    H276785   5.865   6.841   3.280 -0.9423 -0.6058  1.5545
18432TIP3   OH276786   5.433   2.148  12.894 -0.1982  0.0828  0.0478
18432TIP3    H176787   5.491   2.202  12.948 -0.8722 -0.2608  1.1533
18432TIP3    H276788   5.425   2.197  12.812  2.6199 -0.4658 -0.6733
18433TIP3   OH276789   6.341   0.375   2.360 -0.3229 -0.1185  0.0207
18433TIP3    H176790   6.365   0.334   2.443  0.6832  1.2062  0.4362
18433TIP3    H276791   6.425   0.394   2.317 -0.8311 -0.9440 -1.3999
18434TIP3   OH276792   1.175   4.783  13.104  0.3184 -0.7474 -0.4333
18434TIP3    H176793   1.105   4.788  13.170  0.7846  2.5617  0.0231
18434TIP3    H276794   1.185   4.690  13.086 -1.1348 -1.6820  2.7922
18435TIP3   OH276795   3.430   5.828  10.912  0.5171 -0.1690  0.1206
18435TIP3    H176796   3.459   5.820  10.821 -1.2856  1.3589 -0.6444
18435TIP3    H276797   3.373   5.752  10.925 -0.7743  0.6034 -0.7141
18436TIP3   OH276798   6.278   0.408   1.425 -0.1702 -0.2016 -0.6919
18436TIP3    H176799   6.219   0.454   1.365 -0.7367 -1.0548 -0.8167
18436TIP3    H276800   6.296   0.325   1.381  0.2336 -0.4158 -0.1370
18437TIP3   OH276801   5.344   3.646  11.507 -1.1417  0.2999  1.0638
18437TIP3    H176802   5.357   3.726  11.457 -2.6477  0.3647  0.7453
18437TIP3    H276803   5.426   3.634  11.555 -0.7700  1.8321  0.8436
18438TIP3   OH276804   1.816   2.588  13.558  0.7183 -0.0482 -0.3228
18438TIP3    H176805   1.749   2.597  13.626 -0.3038  0.8267 -1.4137
18438TIP3    H276806   1.825   2.494  13.545  0.0654 -0.1846  0.1852
18439TIP3   OH276807   5.832   3.696   4.021  0.6591  0.2803  0.1146
18439TIP3    H176808   5.842   3.679   3.927  2.5972  0.3704  0.2635
18439TIP3    H276809   5.779   3.775   4.026  0.1246  0.0006 -0.8809
18440TIP3   OH276810   5.990   5.959  14.489  0.3747  0.1381 -0.1948
18440TIP3    H176811   5.897   5.960  14.512  0.4537  1.3142  0.0927
18440TIP3    H276812   6.013   5.866  14.490 -1.4096 -0.4525 -2.8592
18441TIP3   OH276813   6.855   1.535  12.687  0.2760 -0.2443 -0.1553
18441TIP3    H176814   6.911   1.457  12.685 -1.9072 -1.9162 -0.3851
18441TIP3    H276815   6.782   1.511  12.745 -0.0831  1.9539  0.4105
18442TIP3   OH276816   4.105   1.298   2.578 -0.2905 -0.1151 -0.4748
18442TIP3    H176817   4.031   1.359   2.579 -1.8173 -1.8895 -0.4755
18442TIP3    H276818   4.161   1.330   2.507 -1.9630  0.2818 -1.6708
18443TIP3   OH276819   0.250   0.484   4.023  0.5630 -0.0760 -0.3297
18443TIP3    H176820   0.243   0.576   3.997  0.0601 -0.3650 -1.2567
18443TIP3    H276821   0.342   0.474   4.049  0.5449  0.7605  0.0787
18444TIP3   OH276822   4.517   6.358   0.739 -0.1197  0.7262 -1.0934
18444TIP3    H176823   4.492   6.440   0.698 -1.3682  1.7283  1.4295
18444TIP3    H276824   4.583   6.383   0.804 -1.2329 -0.0318  0.3998
18445TIP3   OH276825   2.440   5.052   6.594  0.6296 -0.3109 -0.2324
18445TIP3    H176826   2.438   4.957   6.591  1.4542 -0.3133 -1.1756
18445TIP3    H276827   2.407   5.074   6.682  0.5775 -1.4522  0.0508
18446TIP3   OH276828   1.502   3.322   1.657  0.2103 -0.1509 -0.1133
18446TIP3    H176829   1.481   3.303   1.748 -0.6101 -0.3279 -0.3264
18446TIP3    H276830   1.425   3.370   1.625 -0.3348 -1.6683 -1.2044
18447TIP3   OH276831   6.530   6.547  12.717 -0.0998 -0.0316  0.2839
18447TIP3    H176832   6.625   6.559  12.722 -0.0038 -0.9495  0.7919
18447TIP3    H276833   6.507   6.573  12.627  0.2839  2.4421  0.8393
18448TIP3   OH276834   1.548   6.409   5.771  0.0103 -0.5974 -0.7359
18448TIP3    H176835   1.492   6.472   5.816 -1.1893 -0.2228 -2.6401
18448TIP3    H276836   1.608   6.378   5.839  0.8499  2.7551  0.2405
18449TIP3   OH276837   3.211   2.193   3.633  0.0395  0.4017  0.8042
18449TIP3    H176838   3.203   2.125   3.566 -1.6760  0.2814  1.0938
18449TIP3    H276839   3.305   2.199   3.649  0.2594 -1.9743  0.8369
18450TIP3   OH276840   4.854   1.550   4.623 -0.1131 -0.2899  0.0821
18450TIP3    H176841   4.909   1.492   4.570  0.2612  0.3855 -0.2753
18450TIP3    H276842   4.854   1.509   4.710  0.5411 -0.5719 -0.0434
18451TIP3   OH276843   1.054   5.043   2.005  0.1297  0.1735 -0.3786
18451TIP3    H176844   1.140   5.050   1.963  0.7222 -1.4754  0.5006
18451TIP3    H276845   1.006   4.981   1.951 -1.4915  2.8476 -2.3058
18452TIP3   OH276846   5.383   2.109  13.314 -0.9968 -0.5281 -0.4248
18452TIP3    H176847   5.337   2.062  13.383 -0.6308 -0.8541 -0.4002
18452TIP3    H276848   5.437   2.043  13.271  0.8105  0.1570  0.6741
18453TIP3   OH276849   1.222   4.833  15.158  0.0819  0.2468 -0.2926
18453TIP3    H176850   1.295   4.858  15.215  0.7243  0.4142 -1.1596
18453TIP3    H276851   1.264   4.810  15.075 -0.7199 -1.1332 -0.3593
18454TIP3   OH276852   2.888   4.417   3.099 -0.0291  0.1513 -0.1076
18454TIP3    H176853   2.828   4.343   3.112 -0.2898  0.4457  0.4372
18454TIP3    H276854   2.865   4.478   3.170  0.4149  0.5976 -0.3447
18455TIP3   OH276855   0.260   4.853   1.790  0.3759  0.4441  0.3706
18455TIP3    H176856   0.213   4.879   1.869  0.3383  1.9186 -0.1001
18455TIP3    H276857   0.339   4.809   1.823 -0.7893 -1.1571  1.1663
18456TIP3   OH276858   5.126   1.892   1.019  0.4367 -0.5562 -0.0625
18456TIP3    H176859   5.074   1.816   0.994  0.1261 -0.5070  0.4237
18456TIP3    H276860   5.074   1.967   0.991  0.9649 -0.5145 -0.9850
18457TIP3   OH276861   1.738   5.967   1.589  0.2077 -0.5852 -0.8843
18457TIP3    H176862   1.732   5.913   1.668 -0.2136  0.2861 -0.3034
18457TIP3    H276863   1.757   5.905   1.519 -0.5787 -1.5185 -0.2890
18458TIP3   OH276864   0.361   3.611  15.825  0.3496 -0.1411  0.1886
18458TIP3    H176865   0.391   3.520  15.826 -0.8839 -0.6390  3.2231
18458TIP3    H276866   0.268   3.606  15.801  0.7934  0.6052 -1.8496
18459TIP3   OH276867   4.590   0.929  12.372 -0.1521 -0.1235  0.2804
18459TIP3    H176868   4.534   1.005  12.384  1.3385  0.7423  2.3907
18459TIP3    H276869   4.543   0.857  12.415 -0.7134  0.0093 -0.0979
18460TIP3   OH276870   0.523   0.021  13.574 -0.7679  0.2802  0.0497
18460TIP3    H176871   0.504   0.003  13.482 -1.6776  1.6460 -0.0669
18460TIP3    H276872   0.617   0.007  13.583 -0.8499 -0.9607 -0.8057
18461TIP3   OH276873   3.166   1.450  11.966 -0.4604  0.7090 -0.5080
18461TIP3    H176874   3.194   1.406  12.047 -2.9917  0.1734  0.1756
18461TIP3    H276875   3.156   1.542  11.990 -0.2648  0.7233 -0.4824
18462TIP3   OH276876   0.740   4.609   5.537  0.0033 -0.5746  0.0145
18462TIP3    H176877   0.774   4.522   5.513 -0.6081 -0.7101 -0.3808
18462TIP3    H276878   0.720   4.602   5.631 -4.7689 -2.5460 -0.8585
18463TIP3   OH276879   5.220   1.557  15.575 -0.3269 -0.3299 -0.4527
18463TIP3    H176880   5.276   1.600  15.511 -0.0333 -1.5617 -1.0608
18463TIP3    H276881   5.275   1.548  15.653  0.0313 -0.7429 -0.7502
18464TIP3   OH276882   2.529   2.432   4.162  0.4957  0.7880 -0.6769
18464TIP3    H176883   2.531   2.393   4.250 -1.0619  1.7809 -0.1542
18464TIP3    H276884   2.576   2.370   4.107  2.2514  0.5415  0.9973
18465TIP3   OH276885   6.027   4.177  13.859  0.8595  0.1672 -0.1626
18465TIP3    H176886   6.017   4.230  13.938 -0.2431  0.0613 -0.2236
18465TIP3    H276887   6.063   4.237  13.794  0.3667  0.6417 -0.0044
18466TIP3   OH276888   0.760   0.239   2.740 -0.0539 -0.0486  0.0707
18466TIP3    H176889   0.752   0.307   2.807 -0.0082  0.5249 -0.4930
18466TIP3    H276890   0.797   0.164   2.786 -0.9156  0.0112  0.8987
18467TIP3   OH276891   4.327   4.681   2.697 -0.4948 -0.3967  0.0255
18467TIP3    H176892   4.422   4.676   2.705 -0.3419  0.7491 -0.8116
18467TIP3    H276893   4.295   4.601   2.739  0.8119 -0.6480  0.5973
18468TIP3   OH276894   0.380   2.290  11.152 -0.0035 -0.2342  0.6016
18468TIP3    H176895   0.470   2.322  11.156 -0.2706  0.5624  0.6026
18468TIP3    H276896   0.361   2.285  11.058 -0.1225  0.1019  0.6059
18469TIP3   OH276897   0.169   5.379  15.280  0.4478  0.2939 -0.0997
18469TIP3    H176898   0.234   5.419  15.222 -0.2646  0.8734 -0.5273
18469TIP3    H276899   0.102   5.446  15.290  0.8939  0.5055  2.0284
18470TIP3   OH276900   3.305   0.160  15.341 -0.5977  0.1443 -0.2580
18470TIP3    H176901   3.310   0.226  15.410 -0.1882  0.4980 -0.6238
18470TIP3    H276902   3.236   0.191  15.282 -0.2733  0.3489 -0.5336
18471TIP3   OH276903   6.510   2.890   1.980  0.3477  0.1636  0.4067
18471TIP3    H176904   6.451   2.965   1.987  1.9225  1.6223 -1.0689
18471TIP3    H276905   6.582   2.910   2.041  1.0920  0.1864 -0.4615
18472TIP3   OH276906   0.307   4.692  12.872  0.1452  0.3506  0.0994
18472TIP3    H176907   0.262   4.755  12.929  0.4933  0.4988  0.2155
18472TIP3    H276908   0.259   4.610  12.883 -1.3434  0.9871 -1.3086
18473TIP3   OH276909   5.709   5.161  16.693  0.2938  0.0086  0.7159
18473TIP3    H176910   5.678   5.240  16.649 -2.8455 -1.3585  0.1915
18473TIP3    H276911   5.653   5.152  16.770  2.0867 -0.5636  2.0164
18474TIP3   OH276912   5.647   3.188   1.582 -0.1251  0.3312 -0.2430
18474TIP3    H176913   5.700   3.267   1.573  0.9039 -0.4283 -1.0312
18474TIP3    H276914   5.603   3.198   1.666  1.2360  1.0005  0.4141
18475TIP3   OH276915   4.285   1.452   2.393 -0.1451  0.5475  0.0020
18475TIP3    H176916   4.325   1.526   2.348 -2.0094  0.5800 -1.7500
18475TIP3    H276917   4.302   1.377   2.336  1.0053 -0.2873  1.3522
18476TIP3   OH276918   5.234   0.333  13.737  0.0846 -0.2284  0.1811
18476TIP3    H176919   5.192   0.355  13.820 -0.9953 -0.5749 -0.2611
18476TIP3    H276920   5.249   0.418  13.695 -3.4632 -0.1118 -1.2188
18477TIP3   OH276921   5.628   5.465   4.791  0.8219  0.2211 -0.0293
18477TIP3    H176922   5.662   5.505   4.711  0.9595 -2.3303 -1.3455
18477TIP3    H276923   5.549   5.515   4.812 -0.4281 -0.2990 -3.0231
18478TIP3   OH276924   1.690   2.058  10.614 -0.3632  0.4421  0.1575
18478TIP3    H176925   1.735   2.084  10.694 -2.7308 -2.0200  2.5061
18478TIP3    H276926   1.628   2.129  10.596 -1.3392  0.0755  1.8862
18479TIP3   OH276927   2.387   1.636  10.663  0.1568  0.1528 -0.5515
18479TIP3    H176928   2.365   1.729  10.667  2.0388  0.6110  0.3741
18479TIP3    H276929   2.350   1.606  10.580 -2.9476  1.0029  0.4071
18480TIP3   OH276930   1.805   4.009  11.536 -0.1198 -0.4288  0.1121
18480TIP3    H176931   1.785   3.924  11.497 -0.8464 -0.9235  1.4962
18480TIP3    H276932   1.756   4.072  11.482 -3.3316 -1.3354  1.6789
18481TIP3   OH276933   3.190   2.360  11.716  0.5602  0.1709  0.1152
18481TIP3    H176934   3.210   2.386  11.806  1.3727 -0.4539  0.1295
18481TIP3    H276935   3.161   2.269  11.724 -1.5345  0.7898 -0.0097
18482TIP3   OH276936   4.576   3.904   4.027  0.5714  0.3328  0.0714
18482TIP3    H176937   4.609   3.954   4.101  0.2848  0.1649  0.3141
18482TIP3    H276938   4.532   3.969   3.972  2.1754  0.7486 -0.7906
18483TIP3   OH276939   4.428   0.988   2.240  0.1943  0.6270  0.2093
18483TIP3    H176940   4.511   1.019   2.275  0.1427  1.9825 -0.7631
18483TIP3    H276941   4.368   0.987   2.315  1.4271 -1.8791  1.2579
18484TIP3   OH276942   4.592   4.410   5.145  0.0881 -0.0261 -0.4787
18484TIP3    H176943   4.643   4.490   5.155  1.2820 -0.9487  1.1586
18484TIP3    H276944   4.534   4.429   5.071  1.7246  1.6003 -1.4395
18485TIP3   OH276945   4.267   2.336   3.239 -0.1937 -0.2193 -0.3697
18485TIP3    H176946   4.330   2.316   3.308 -0.3623  0.9323  0.1394
18485TIP3    H276947   4.253   2.431   3.245 -3.5153 -0.6637  0.8845
18486TIP3   OH276948   4.207   4.751   4.420 -0.1516  0.0810 -0.0864
18486TIP3    H176949   4.230   4.672   4.470 -1.2884  0.1303  0.5550
18486TIP3    H276950   4.278   4.812   4.438 -0.2828 -0.0871  1.0748
18487TIP3   OH276951   5.211   3.427   4.115  0.1770  0.0852 -0.4500
18487TIP3    H176952   5.248   3.428   4.027  1.1675  2.1574 -0.0618
18487TIP3    H276953   5.243   3.345   4.154  0.9248 -0.1474 -1.5124
18488TIP3   OH276954   3.169   6.057   1.167  0.4489  0.2101 -0.6456
18488TIP3    H176955   3.163   6.135   1.223  0.3655 -0.7364  0.7179
18488TIP3    H276956   3.211   5.991   1.222 -0.4887 -1.0481 -1.3826
18489TIP3   OH276957   4.096   4.253   6.156  0.1580  0.0090 -0.0978
18489TIP3    H176958   4.064   4.344   6.154  0.2671  0.0335 -0.8421
18489TIP3    H276959   4.042   4.211   6.224  0.0758  0.6140  0.2233
18490TIP3   OH276960   0.349   6.791  11.616  0.2655 -0.2089 -0.1838
18490TIP3    H176961   0.374   6.761  11.703 -1.1068 -0.1464  0.2517
18490TIP3    H276962   0.427   6.777  11.563  2.3074  2.8156  1.7311
18491TIP3   OH276963   6.186   5.612  16.233 -0.0931  0.0675 -0.5162
18491TIP3    H176964   6.263   5.648  16.190 -0.6979  1.4818 -0.4839
18491TIP3    H276965   6.114   5.629  16.172 -0.8882  1.6914  0.7815
18492TIP3   OH276966   0.440   4.191  14.928 -0.1403 -0.1654  0.0874
18492TIP3    H176967   0.530   4.185  14.959 -0.3966  0.9832  1.1570
18492TIP3    H276968   0.389   4.146  14.996 -0.5766  1.2268  0.7320
18493TIP3   OH276969   4.146   2.109   0.521 -0.4949 -0.3905  0.1809
18493TIP3    H176970   4.095   2.029   0.536  0.5084 -1.1161 -0.1874
18493TIP3    H276971   4.207   2.112   0.594 -0.3140 -0.1319  0.0184
18494TIP3   OH276972   5.875   3.114  14.504  0.2652  0.3284  0.7526
18494TIP3    H176973   5.967   3.111  14.528  0.1275 -2.8520  1.2556
18494TIP3    H276974   5.875   3.108  14.408  0.5703 -0.2734  0.7893
18495TIP3   OH276975   5.637   5.990  11.499  0.2350  0.2824 -0.2169
18495TIP3    H176976   5.695   5.947  11.562  0.9774 -0.1580 -1.1729
18495TIP3    H276977   5.655   5.946  11.416 -1.8319 -0.2116 -0.4622
18496TIP3   OH276978   5.128   6.353   2.688  0.6109 -0.1345 -0.5976
18496TIP3    H176979   5.116   6.423   2.624 -0.0104  0.8529  0.5568
18496TIP3    H276980   5.053   6.295   2.674  0.5377  0.0147 -0.8367
18497TIP3   OH276981   2.096   2.156  13.427 -0.1829  0.1312 -0.3297
18497TIP3    H176982   2.018   2.208  13.444  0.5832  1.1970  0.0433
18497TIP3    H276983   2.145   2.206  13.362  1.1176  0.4950  0.8635
18498TIP3   OH276984   1.674   6.235  14.573 -0.2937 -0.1724 -0.2726
18498TIP3    H176985   1.702   6.238  14.481  0.7157 -0.8125 -0.0055
18498TIP3    H276986   1.694   6.146  14.601 -0.9525 -0.0946  0.4635
18499TIP3   OH276987   4.232   5.007  11.242 -0.2677  0.1279  0.2483
18499TIP3    H176988   4.275   4.971  11.164  1.4121  1.5343  0.4634
18499TIP3    H276989   4.239   4.938  11.308 -0.9537 -0.7531 -0.5821
18500TIP3   OH276990   1.495   3.776   4.634  0.7646  0.0604 -0.5797
18500TIP3    H176991   1.445   3.746   4.559 -0.7151  2.6645 -0.7488
18500TIP3    H276992   1.452   3.735   4.710  0.0635  0.1691 -0.9154
18501TIP3   OH276993   5.291   6.091  14.901  0.3427  0.4303 -0.0095
18501TIP3    H176994   5.309   6.134  14.818  0.8446  0.8522  0.3137
18501TIP3    H276995   5.213   6.135  14.934 -0.6779 -0.6540 -0.8863
18502TIP3   OH276996   4.772   3.802   4.350 -0.3288 -0.2306 -0.5111
18502TIP3    H176997   4.699   3.864   4.344 -0.8610 -0.8265 -0.3721
18502TIP3    H276998   4.793   3.798   4.443 -0.6996 -0.7026 -0.4413
18503TIP3   OH276999   5.693   1.826   1.940  0.6039 -0.2876  0.2325
18503TIP3    H177000   5.656   1.913   1.928 -0.6036 -0.6607  1.0639
18503TIP3    H277001   5.708   1.819   2.034 -0.1362 -1.2725  0.2966
18504TIP3   OH277002   3.775   5.555  13.874 -0.3377  0.0882 -0.4404
18504TIP3    H177003   3.840   5.485  13.877 -1.9938 -1.5101  0.5119
18504TIP3    H277004   3.806   5.614  13.806  2.2702 -0.3957  0.2312
18505TIP3   OH277005   1.089   4.505  17.114 -0.3449  0.7103  0.1834
18505TIP3    H177006   1.046   4.444  17.173  0.7196  1.0175  1.3164
18505TIP3    H277007   1.020   4.530  17.052 -0.7057 -1.9009 -0.5880
18506TIP3   OH277008   1.839   2.104  15.301 -0.0324  0.1829 -0.3848
18506TIP3    H177009   1.906   2.128  15.237 -0.1994  0.9048 -0.2947
18506TIP3    H277010   1.887   2.059  15.370  0.2697  0.1420 -0.6207
18507TIP3   OH277011   6.146   0.486   3.033 -0.8564  0.0669  0.0675
18507TIP3    H177012   6.101   0.405   3.054  0.9733 -1.3079 -0.9526
18507TIP3    H277013   6.144   0.490   2.937 -0.0327  0.6581  0.0634
18508TIP3   OH277014   0.324   4.776   3.619  0.6579 -0.0417 -0.2290
18508TIP3    H177015   0.295   4.783   3.528  1.9951 -2.4887 -0.9327
18508TIP3    H277016   0.418   4.795   3.616  0.1842  3.2675  1.2832
18509TIP3   OH277017   3.314   3.190   4.023  0.6274  0.2002 -0.2326
18509TIP3    H177018   3.318   3.146   4.107 -0.7102 -1.5794 -1.0432
18509TIP3    H277019   3.406   3.206   4.000  1.0121  1.0311  1.6644
18510TIP3   OH277020   0.030   5.269   1.671 -0.7315 -0.9886 -0.0384
18510TIP3    H177021  -0.027   5.322   1.726 -0.0747 -0.7914  0.4637
18510TIP3    H277022   0.093   5.230   1.732  0.3184 -0.3647 -0.6951
18511TIP3   OH277023   2.693   0.927  11.241 -0.0204 -0.6328  0.2291
18511TIP3    H177024   2.753   0.853  11.249  0.5757 -0.0734  1.1175
18511TIP3    H277025   2.713   0.982  11.316 -1.0124  0.0338  0.0222
18512TIP3   OH277026   2.880   2.953  12.583  0.7621 -0.4215  0.4613
18512TIP3    H177027   2.918   2.866  12.594  2.1951  0.3539  2.2356
18512TIP3    H277028   2.829   2.967  12.662 -2.2075 -0.8544 -1.2414
18513TIP3   OH277029   3.071   1.971  12.097  0.0484  0.2650  0.2795
18513TIP3    H177030   3.013   1.896  12.107 -1.3924  0.7733 -2.9453
18513TIP3    H277031   3.132   1.945  12.028 -1.0048  2.2590 -1.5005
18514TIP3   OH277032   2.986   5.582  15.115 -1.1116 -0.2034 -0.2372
18514TIP3    H177033   3.046   5.569  15.188 -0.5557 -0.7796 -0.7837
18514TIP3    H277034   3.039   5.568  15.037 -2.1085 -1.5288 -0.7356
18515TIP3   OH277035   4.268   5.766  15.176  0.0809  0.1274  0.7424
18515TIP3    H177036   4.289   5.694  15.117 -0.9688  0.5480 -0.1880
18515TIP3    H277037   4.277   5.729  15.264 -0.4536 -1.1542  0.2772
18516TIP3   OH277038   2.477   2.888   1.373 -0.0727 -0.1645  0.2151
18516TIP3    H177039   2.525   2.859   1.450  1.8512  0.1288 -0.8198
18516TIP3    H277040   2.527   2.962   1.339 -0.6813 -0.4878 -1.4867
18517TIP3   OH277041   1.620   3.313   0.207 -0.1521  0.2177 -0.2258
18517TIP3    H177042   1.615   3.359   0.290 -0.1551  0.1510 -0.1889
18517TIP3    H277043   1.712   3.319   0.181 -0.4235  1.5527 -0.9617
18518TIP3   OH277044   3.316   5.388  15.970 -0.0157 -0.1443  0.5339
18518TIP3    H177045   3.221   5.405  15.973 -0.1581 -0.6630 -0.4953
18518TIP3    H277046   3.340   5.371  16.061 -0.8979  0.0610  0.8220
18519TIP3   OH277047   1.579   6.562  15.837 -0.2043 -0.3045  0.3583
18519TIP3    H177048   1.595   6.640  15.891 -0.1443  0.9391 -1.3998
18519TIP3    H277049   1.617   6.583  15.752 -2.2314 -1.3148 -0.8682
18520TIP3   OH277050   4.908   6.404   3.693  0.2275 -0.3419 -0.1132
18520TIP3    H177051   4.967   6.476   3.714  0.9611 -1.0093  0.1604
18520TIP3    H277052   4.835   6.413   3.754  0.6650 -0.2561  0.3947
18521TIP3   OH277053   4.337   3.463  13.185 -0.2012 -0.4021 -0.0172
18521TIP3    H177054   4.260   3.502  13.144 -0.1705 -1.3210 -1.0079
18521TIP3    H277055   4.352   3.383  13.134  0.5329 -0.9844  1.0939
18522TIP3   OH277056   1.781   4.872  13.427 -0.1986  0.1825 -0.2058
18522TIP3    H177057   1.690   4.880  13.397  0.1101  0.0941 -1.2023
18522TIP3    H277058   1.828   4.839  13.351  0.7186  0.4658  0.2292
18523TIP3   OH277059   6.712   0.987   0.286  0.5333  0.1444  0.4216
18523TIP3    H177060   6.664   0.936   0.352 -0.3580 -1.2749 -1.2236
18523TIP3    H277061   6.702   1.078   0.314 -2.1649 -0.1843  0.7975
18524TIP3   OH277062   6.310   1.761   4.364  0.1925  0.3354  0.4830
18524TIP3    H177063   6.279   1.832   4.308 -0.0371 -0.7209 -0.7575
18524TIP3    H277064   6.396   1.738   4.329 -0.7441 -1.6000 -0.7039
18525TIP3   OH277065   0.358   4.572  11.291 -0.5120 -0.5580 -0.2331
18525TIP3    H177066   0.445   4.613  11.284 -0.1406 -1.2375  0.2212
18525TIP3    H277067   0.315   4.594  11.209  0.7224 -1.6012 -1.2069
18526TIP3   OH277068   6.126   2.637  12.602 -0.2997  0.1142  0.5662
18526TIP3    H177069   6.061   2.567  12.604 -0.7304  0.5091  0.5834
18526TIP3    H277070   6.084   2.711  12.647 -0.3466  0.7990 -0.5613
18527TIP3   OH277071   3.515   0.922  13.831 -0.7173  0.5254  0.4090
18527TIP3    H177072   3.605   0.899  13.810  0.6715  2.4696  3.4783
18527TIP3    H277073   3.469   0.839  13.836  1.7449 -0.8472  2.0090
18528TIP3   OH277074   5.410   5.454   2.159 -0.2592  0.4461 -0.2390
18528TIP3    H177075   5.324   5.433   2.195 -0.0670 -1.9527 -0.9896
18528TIP3    H277076   5.398   5.448   2.064  0.6174  0.5958 -0.3700
18529TIP3   OH277077   2.877   0.488  14.034  0.4672  0.2427 -0.0057
18529TIP3    H177078   2.894   0.478  14.127 -0.3252  0.6205  0.1869
18529TIP3    H277079   2.784   0.470  14.024  0.8646 -1.5465 -0.9904
18530TIP3   OH277080   2.166   2.872  15.599  0.0972  0.8168 -0.0367
18530TIP3    H177081   2.128   2.788  15.624 -1.9577  1.0865 -1.9643
18530TIP3    H277082   2.261   2.857  15.602 -0.1967 -1.3890  0.1614
18531TIP3   OH277083   0.750   4.082  16.577 -0.2924 -0.3628  0.4394
18531TIP3    H177084   0.763   4.057  16.669  0.2470 -0.0287  0.4577
18531TIP3    H277085   0.838   4.099  16.544 -0.4749 -0.5992 -0.1765
18532TIP3   OH277086   6.732   6.155  14.099 -0.0681  0.3478  0.6677
18532TIP3    H177087   6.714   6.070  14.138 -0.3760  0.4493  0.7507
18532TIP3    H277088   6.651   6.205  14.111  1.1192  1.8081  3.5988
18533TIP3   OH277089   0.275   2.852  13.906  0.1672 -0.1853 -0.6498
18533TIP3    H177090   0.196   2.862  13.960  1.0501  0.1327  0.6052
18533TIP3    H277091   0.293   2.941  13.874 -0.6613 -0.4548 -1.9696
18534TIP3   OH277092   3.487   3.859  12.130 -0.0460  0.0272  0.5123
18534TIP3    H177093   3.517   3.944  12.161 -0.2836 -0.1624  1.2998
18534TIP3    H277094   3.559   3.799  12.153 -0.2453 -0.1235  0.7530
18535TIP3   OH277095   6.533   1.582   5.676 -0.0094  0.0680  0.1040
18535TIP3    H177096   6.521   1.552   5.766 -1.0087 -2.6561 -0.8305
18535TIP3    H277097   6.613   1.634   5.678  0.0456 -0.0121  2.5166
18536TIP3   OH277098   6.567   5.353  14.857  0.0407 -0.2494 -0.4490
18536TIP3    H177099   6.596   5.270  14.821  0.4368 -0.8862  1.2288
18536TIP3    H277100   6.621   5.366  14.935 -0.7815  1.0300 -0.0495
18537TIP3   OH277101   0.026   6.267   1.429 -0.1795  0.3909 -0.9065
18537TIP3    H177102   0.035   6.362   1.432  0.3976  0.3571 -1.3620
18537TIP3    H277103   0.105   6.236   1.385  1.1366 -0.5346  1.8388
18538TIP3   OH277104   2.907   4.810   5.911  0.5862  0.3409 -0.0682
18538TIP3    H177105   2.949   4.738   5.865 -1.4543  0.1928 -1.8926
18538TIP3    H277106   2.931   4.888   5.860  1.1551  0.6734  0.7037
18539TIP3   OH277107   4.111   2.576   4.846 -0.2046 -0.4064 -0.5029
18539TIP3    H177108   4.017   2.563   4.835 -0.1469 -0.7373 -0.6018
18539TIP3    H277109   4.124   2.577   4.941 -0.4257  0.4966 -0.4760
18540TIP3   OH277110   3.292   5.431   2.613 -0.4602  0.1914  0.5608
18540TIP3    H177111   3.309   5.359   2.674  0.6965 -0.1191 -0.0949
18540TIP3    H277112   3.354   5.416   2.541 -0.4571  1.6286  0.2410
18541TIP3   OH277113   1.854   0.225   5.720 -0.5516  0.0507  0.0709
18541TIP3    H177114   1.903   0.282   5.661  0.3710 -1.0217 -0.2366
18541TIP3    H277115   1.850   0.141   5.674 -0.7115 -0.5068  1.0782
18542TIP3   OH277116   1.132   2.942  12.960  0.4950 -0.0084  0.2469
18542TIP3    H177117   1.072   2.941  13.035  0.3947 -1.6089  0.1925
18542TIP3    H277118   1.133   3.033  12.931  2.0301  1.1330  3.3525
18543TIP3   OH277119   5.906   2.129   0.429 -0.8777 -0.4627 -0.2814
18543TIP3    H177120   5.973   2.063   0.448  1.1346  1.4374 -0.2496
18543TIP3    H277121   5.882   2.114   0.338 -0.2224 -1.0649 -0.3628
18544TIP3   OH277122   0.406   6.503  11.982  0.4125 -0.8938  0.0595
18544TIP3    H177123   0.349   6.428  11.962 -1.5045  0.6027 -0.3781
18544TIP3    H277124   0.408   6.506  12.077 -1.9684  0.1709  0.1583
18545TIP3   OH277125   2.164   3.868   2.153 -0.7094 -0.6339 -0.5720
18545TIP3    H177126   2.110   3.941   2.181 -2.6317 -1.9493 -0.6996
18545TIP3    H277127   2.200   3.896   2.069 -1.2028  0.2495 -0.5023
18546TIP3   OH277128   6.016   6.488   0.522  0.6725 -0.5892  0.4838
18546TIP3    H177129   6.058   6.503   0.607 -0.0043 -2.9601  1.3045
18546TIP3    H277130   6.084   6.448   0.468  0.5937 -0.7189  0.4819
18547TIP3   OH277131   4.720   3.147  16.997  0.0008 -1.0539  0.0472
18547TIP3    H177132   4.747   3.084  16.930 -1.0795 -2.7284  1.0877
18547TIP3    H277133   4.654   3.201  16.954 -0.6251 -2.0548 -0.2922
18548TIP3   OH277134   6.826   4.026  14.635  0.1651 -0.1776  0.9435
18548TIP3    H177135   6.839   3.964  14.706 -0.3429  0.3818  1.5320
18548TIP3    H277136   6.888   4.096  14.652 -0.4947  0.3397  1.2900
18549TIP3   OH277137   4.543   1.420  12.918 -0.7102 -0.8168 -0.4347
18549TIP3    H177138   4.573   1.511  12.919  0.8142 -1.2794 -0.5508
18549TIP3    H277139   4.464   1.421  12.864 -1.7477  0.6990  1.0082
18550TIP3   OH277140   6.186   2.770   2.724 -0.6519 -0.1101  0.8126
18550TIP3    H177141   6.193   2.864   2.743 -1.1075 -0.1634  1.2483
18550TIP3    H277142   6.267   2.749   2.677 -0.9345  0.6819 -0.0653
18551TIP3   OH277143   6.395   5.647   1.488  0.1740  0.3693 -0.2733
18551TIP3    H177144   6.353   5.572   1.530 -1.6117  1.5815  0.2289
18551TIP3    H277145   6.462   5.675   1.551  0.1982 -0.2250 -0.0292
18552TIP3   OH277146   5.755   4.342   3.574 -0.4685 -1.0243 -0.4682
18552TIP3    H177147   5.815   4.363   3.502 -1.8343 -0.5205 -1.5200
18552TIP3    H277148   5.684   4.292   3.532 -3.3813  2.6174 -0.4249
18553TIP3   OH277149   3.577   4.319   2.994 -0.2425 -0.1989 -0.3703
18553TIP3    H177150   3.510   4.308   3.062  1.6638 -0.4823  1.5849
18553TIP3    H277151   3.560   4.405   2.957 -1.3727 -0.0516  0.4361
18554TIP3   OH277152   5.870   6.219  15.072 -0.6127  0.0095  0.0212
18554TIP3    H177153   5.801   6.185  15.129 -3.1388  1.6407 -1.8483
18554TIP3    H277154   5.838   6.304  15.042  1.6969  0.3499 -1.8930
18555TIP3   OH277155   0.217   0.805   0.515 -0.0922  0.3281  0.3382
18555TIP3    H177156   0.312   0.794   0.509 -0.2118 -0.4970 -0.1316
18555TIP3    H277157   0.201   0.821   0.608  0.5696  1.1921  0.3209
18556TIP3   OH277158   3.053   2.983   6.247  0.1514 -0.6340 -0.1986
18556TIP3    H177159   3.067   3.067   6.202 -2.8336 -0.1329 -0.3466
18556TIP3    H277160   3.090   2.918   6.187  1.4014  0.4299 -0.6512
18557TIP3   OH277161   0.692   5.889   1.929 -0.1456 -0.8306  0.3535
18557TIP3    H177162   0.784   5.875   1.904  0.2868  0.2952  1.2067
18557TIP3    H277163   0.660   5.953   1.864  0.4621  0.7449  1.5341
18558TIP3   OH277164   0.272   1.322  11.948 -0.0158  0.4526  0.0480
18558TIP3    H177165   0.316   1.401  11.979 -1.2447  0.5340  1.7210
18558TIP3    H277166   0.193   1.316  12.002 -0.9571 -0.8566 -1.3787
18559TIP3   OH277167   3.605   6.559   1.344 -0.0175  0.4633 -0.5244
18559TIP3    H177168   3.548   6.483   1.340 -0.3784  0.7702 -1.2128
18559TIP3    H277169   3.565   6.616   1.409 -0.0436  0.3181 -0.4114
18560TIP3   OH277170   4.048   2.156   3.858 -0.6933 -0.2897 -0.4766
18560TIP3    H177171   3.973   2.112   3.818 -0.1055 -0.4542 -1.4244
18560TIP3    H277172   4.084   2.210   3.788 -0.7104  0.8176  0.3452
18561TIP3   OH277173   1.922   4.319   6.795 -0.0223  0.2297  0.6265
18561TIP3    H177174   1.841   4.347   6.754  0.2433  1.8793  1.1324
18561TIP3    H277175   1.988   4.380   6.760  0.9053 -0.7752  0.5871
18562TIP3   OH277176   6.073   4.675   3.684  0.7669 -0.6230 -0.1637
18562TIP3    H177177   6.165   4.652   3.698  1.0265 -1.4776 -2.7442
18562TIP3    H277178   6.049   4.628   3.603 -1.7287  0.1542  0.0542
18563TIP3   OH277179   3.366   5.115  15.059 -0.0150  0.3550 -0.0458
18563TIP3    H177180   3.313   5.037  15.042 -2.5012  1.7373  0.8909
18563TIP3    H277181   3.369   5.123  15.154 -0.0913  1.5655 -0.1239
18564TIP3   OH277182   6.524   0.943   5.396 -0.0002 -0.5393 -0.0561
18564TIP3    H177183   6.496   0.916   5.484  2.9554 -2.1301  0.5588
18564TIP3    H277184   6.585   1.016   5.412  0.2658 -0.5928 -0.8034
18565TIP3   OH277185   1.929   0.934  15.246  0.1686  0.6395 -0.4033
18565TIP3    H177186   1.937   1.000  15.176  0.9406 -2.2958 -3.3098
18565TIP3    H277187   1.852   0.883  15.221  1.1266 -1.1858  0.2487
18566TIP3   OH277188   1.202   1.643  13.137 -0.4355 -0.3533  0.0873
18566TIP3    H177189   1.215   1.686  13.222  2.4169 -2.1306  0.6918
18566TIP3    H277190   1.180   1.553  13.159  1.3611 -1.1057 -0.9659
18567TIP3   OH277191   2.474   3.356  14.455 -0.2295  0.2470  0.6183
18567TIP3    H177192   2.557   3.396  14.482  0.5431 -0.4916 -0.5638
18567TIP3    H277193   2.467   3.277  14.509  1.1005 -1.0057 -0.9570
18568TIP3   OH277194   0.295   3.649   2.779 -0.4501 -0.0397 -0.4932
18568TIP3    H177195   0.361   3.580   2.777 -0.1647  0.2064  0.0652
18568TIP3    H277196   0.342   3.728   2.751 -0.1494  0.4021  1.1044
18569TIP3   OH277197   2.797   2.926  13.973 -0.0017  0.1695 -0.5632
18569TIP3    H177198   2.826   3.015  13.956  0.3738  0.6256  2.0716
18569TIP3    H277199   2.703   2.928  13.957 -0.1067  1.2295  0.0891
18570TIP3   OH277200   3.543   5.390   6.292  0.6527  0.0930 -0.4238
18570TIP3    H177201   3.638   5.386   6.293  0.7363  1.2623 -1.4367
18570TIP3    H277202   3.519   5.347   6.209  0.3828  0.9212 -0.7820
18571TIP3   OH277203   3.761   4.871  11.341  0.1504  0.0189  0.1795
18571TIP3    H177204   3.761   4.835  11.252  0.3891 -0.1714  0.2577
18571TIP3    H277205   3.848   4.852  11.375  0.2318  0.5520  0.2699
18572TIP3   OH277206   3.232   0.760  15.898  0.3526  0.0667 -0.3788
18572TIP3    H177207   3.172   0.706  15.950 -0.0044  0.4462 -0.3901
18572TIP3    H277208   3.318   0.746  15.937  0.8408 -2.8416 -2.1299
18573TIP3   OH277209   0.087   3.016   0.503  0.6844 -0.4198 -0.0692
18573TIP3    H177210   0.083   3.101   0.546 -0.2374 -0.5858  0.1931
18573TIP3    H277211   0.163   3.022   0.445  1.0245  0.3413  0.4405
18574TIP3   OH277212   4.842   2.153   3.410 -0.8745  1.0464  0.1061
18574TIP3    H177213   4.774   2.219   3.396 -0.7148  1.6110  1.8232
18574TIP3    H277214   4.856   2.152   3.505  0.6189  0.0266 -0.0883
18575TIP3   OH277215   1.850   4.665  12.913  0.6005  0.4057 -0.3182
18575TIP3    H177216   1.856   4.757  12.890  2.6176  0.8847  1.7460
18575TIP3    H277217   1.762   4.655  12.949  0.2019  1.3933 -0.9720
18576TIP3   OH277218   4.004   1.164  14.697  0.5572  0.1936  0.3750
18576TIP3    H177219   3.949   1.087  14.714 -0.2676  0.6812 -0.0490
18576TIP3    H277220   4.051   1.142  14.616  0.9714 -0.2104  0.7201
18577TIP3   OH277221   3.344   0.901   3.989  0.0852 -0.1568 -0.1332
18577TIP3    H177222   3.265   0.952   4.007  0.1388 -0.0566 -0.1795
18577TIP3    H277223   3.349   0.838   4.061  0.6607  0.6837  0.5745
18578TIP3   OH277224   5.567   5.530  15.709  0.8887  0.1324 -0.1598
18578TIP3    H177225   5.547   5.559  15.620 -1.1067  0.7984  0.4537
18578TIP3    H277226   5.555   5.435  15.707 -2.3016  0.4104  0.0445
18579TIP3   OH277227   5.203   2.588   4.023  0.2787  0.8315 -0.2341
18579TIP3    H177228   5.123   2.580   3.970  0.8086  0.4228 -0.9774
18579TIP3    H277229   5.257   2.651   3.975  0.5287  0.8802  0.1101
18580TIP3   OH277230   3.873   6.825   2.661 -0.0566  0.1707  0.3106
18580TIP3    H177231   3.901   6.747   2.614  1.8444  1.1350 -0.2283
18580TIP3    H277232   3.916   6.898   2.616 -2.3440  1.6465  0.3214
18581TIP3   OH277233   4.311   1.539   3.697  0.2188  0.2510  0.2869
18581TIP3    H177234   4.321   1.610   3.633 -1.5770  1.1412  0.9197
18581TIP3    H277235   4.265   1.470   3.649 -0.9997  0.8603  0.5529
18582TIP3   OH277236   2.101   5.008   3.457 -0.5167  0.5545  0.2392
18582TIP3    H177237   2.020   5.058   3.449 -0.1532  1.0932 -0.1274
18582TIP3    H277238   2.167   5.062   3.414  0.1359  0.3459  0.9578
18583TIP3   OH277239   6.709   5.792  12.461 -0.2227  0.2690 -0.2179
18583TIP3    H177240   6.669   5.708  12.485 -0.2137  0.0552 -0.9087
18583TIP3    H277241   6.728   5.834  12.544 -0.2414 -0.4113  0.1413
18584TIP3   OH277242   2.838   0.024  14.463  0.0980 -0.1095  0.1104
18584TIP3    H177243   2.873  -0.065  14.460  0.2994 -0.0297  0.0696
18584TIP3    H277244   2.894   0.074  14.403  1.1287  0.4480  1.4801
18585TIP3   OH277245   5.474   5.692  16.973 -0.3382 -0.3378 -0.5231
18585TIP3    H177246   5.542   5.656  17.029  0.1762 -1.4082 -1.7800
18585TIP3    H277247   5.394   5.649  17.002 -0.8077  1.8807  1.8337
18586TIP3   OH277248   5.980   4.078  14.786 -0.0590  0.3683 -0.3355
18586TIP3    H177249   6.068   4.104  14.758 -0.7166  1.8282 -1.0991
18586TIP3    H277250   5.968   4.123  14.870  0.1264 -0.3063  0.0639
18587TIP3   OH277251   4.564   4.264  12.570  0.4075 -0.1092 -0.1049
18587TIP3    H177252   4.543   4.345  12.618 -0.4102  0.4139 -1.3103
18587TIP3    H277253   4.605   4.208  12.636  1.8850  1.6265  0.5610
18588TIP3   OH277254   2.059   1.906   3.134  0.3775  0.7047 -0.3832
18588TIP3    H177255   2.055   1.821   3.090 -0.1495 -0.2354  1.3629
18588TIP3    H277256   1.987   1.956   3.096  2.1357  1.3170 -3.1552
18589TIP3   OH277257   4.642   2.711  13.529  0.2577  0.0576 -0.9613
18589TIP3    H177258   4.717   2.721  13.588 -0.1841  0.1960 -0.4217
18589TIP3    H277259   4.585   2.649  13.574  0.3154 -0.5120 -1.6463
18590TIP3   OH277260   0.754   0.102   0.367  0.2167  0.2417  0.4081
18590TIP3    H177261   0.710   0.020   0.388  1.0394 -0.1947  0.4467
18590TIP3    H277262   0.748   0.154   0.447  0.7722 -0.2694  0.7887
18591TIP3   OH277263   3.792   5.654   3.734  0.0770 -0.0486  0.3344
18591TIP3    H177264   3.801   5.650   3.638 -2.0989 -0.8070  0.0952
18591TIP3    H277265   3.698   5.666   3.748  0.2478 -0.7730  2.4059
18592TIP3   OH277266   6.298   5.180   4.999  0.0199  0.1734  0.2055
18592TIP3    H177267   6.286   5.146   4.911  0.3168 -0.3740  0.3703
18592TIP3    H277268   6.294   5.275   4.989 -1.7044  0.0912 -0.1332
18593TIP3   OH277269   5.141   4.321   5.384 -0.1423 -0.5253 -0.1488
18593TIP3    H177270   5.227   4.310   5.343  0.2800 -0.2118  0.6286
18593TIP3    H277271   5.157   4.303   5.476 -0.9842 -0.7686 -0.0473
18594TIP3   OH277272   6.736   1.265  11.666 -0.5201  0.0651 -0.4954
18594TIP3    H177273   6.721   1.178  11.703  0.1742 -0.4667 -1.4190
18594TIP3    H277274   6.691   1.325  11.725 -0.2537 -0.8393  0.6549
18595TIP3   OH277275   0.635   6.201   2.483  0.5797  0.3566  0.0017
18595TIP3    H177276   0.589   6.117   2.477  1.2137  0.0373 -0.4250
18595TIP3    H277277   0.626   6.227   2.575 -1.1670  0.7179 -0.2381
18596TIP3   OH277278   6.336   4.663   5.961 -0.1968 -0.7834 -0.1002
18596TIP3    H177279   6.280   4.644   5.886 -1.5402  0.3558  0.5707
18596TIP3    H277280   6.315   4.753   5.985  1.4596 -0.5488  0.6045
18597TIP3   OH277281   6.732   4.174   1.396  0.3998  0.1534 -0.0086
18597TIP3    H177282   6.665   4.205   1.335  0.4807 -0.2261 -0.2921
18597TIP3    H277283   6.813   4.211   1.363  0.3089  0.7876  0.4558
18598TIP3   OH277284   1.536   0.417  11.691  0.3336  0.0283  0.0066
18598TIP3    H177285   1.616   0.365  11.687  0.1993 -0.3032  1.2638
18598TIP3    H277286   1.465   0.353  11.696 -0.0424  0.3198 -1.1864
18599TIP3   OH277287   4.802   6.171   1.935  0.2326  0.2033 -0.9425
18599TIP3    H177288   4.832   6.224   1.861  1.7871  1.1338  0.2936
18599TIP3    H277289   4.810   6.229   2.010 -0.9454 -0.8481  0.0256
18600TIP3   OH277290   2.947   5.242   3.645  0.0093 -0.3700  0.2953
18600TIP3    H177291   2.857   5.223   3.673 -0.0937 -1.2499 -0.5890
18600TIP3    H277292   2.988   5.156   3.636  0.2967 -0.0936 -1.3517
18601TIP3   OH277293   3.877   4.647   3.650  0.1827  0.1099  0.2716
18601TIP3    H177294   3.804   4.588   3.670  0.1664  0.7521  2.2842
18601TIP3    H277295   3.955   4.599   3.681  0.2521  0.7838  1.1716
18602TIP3   OH277296   1.068   2.818  15.742 -0.3108  0.5461 -0.3970
18602TIP3    H177297   1.133   2.883  15.766 -0.2614 -0.1282  1.4273
18602TIP3    H277298   1.116   2.755  15.688  0.7741 -0.3229  1.5100
18603TIP3   OH277299   2.238   3.989   5.779 -0.7332 -0.7994  0.2260
18603TIP3    H177300   2.183   4.050   5.730 -0.2674 -1.2046 -0.8250
18603TIP3    H277301   2.305   4.044   5.819 -1.8889 -0.2924  1.5553
18604TIP3   OH277302   0.646   5.222   4.263  0.2502 -0.7501  0.3169
18604TIP3    H177303   0.724   5.228   4.208 -1.7323 -1.6668 -2.8800
18604TIP3    H277304   0.584   5.170   4.211 -3.6641  2.5827  1.1765
18605TIP3   OH277305   1.916   2.254  13.168  0.4670  0.8764  0.4262
18605TIP3    H177306   1.940   2.198  13.094  0.5900  0.0023  1.1043
18605TIP3    H277307   1.826   2.229  13.189 -0.1628  2.3143 -0.4756
18606TIP3   OH277308   0.768   1.181  13.591  0.3010  0.3116  0.0584
18606TIP3    H177309   0.761   1.240  13.516  1.0108  1.8338  1.1422
18606TIP3    H277310   0.684   1.135  13.593 -0.6327  1.9247 -0.3167
18607TIP3   OH277311   5.621   2.072   0.455  0.4551 -0.3567 -0.3727
18607TIP3    H177312   5.605   2.038   0.543  0.2036  2.4480  0.7467
18607TIP3    H277313   5.713   2.098   0.455 -0.0160  1.4090 -0.2551
18608TIP3   OH277314   0.405   6.649  15.448 -0.8697  0.2324 -0.0759
18608TIP3    H177315   0.431   6.605  15.529 -0.7768  0.4325  0.0040
18608TIP3    H277316   0.321   6.610  15.425 -0.8066  0.0419  0.0152
18609TIP3   OH277317   4.740   4.202  13.898  0.1563  0.1510  0.2456
18609TIP3    H177318   4.707   4.258  13.827 -0.3911  0.4590  0.7320
18609TIP3    H277319   4.834   4.194  13.881 -0.2305 -1.2679 -1.5392
18610TIP3   OH277320   4.090   5.463  14.870  0.9837  0.4263  0.1319
18610TIP3    H177321   4.168   5.412  14.891  1.7077  1.1544 -0.7018
18610TIP3    H277322   4.124   5.549  14.846  0.0297  0.4506 -1.2743
18611TIP3   OH277323   1.997   2.231   2.801 -0.1006  0.0020 -0.5385
18611TIP3    H177324   1.978   2.139   2.787 -1.9459  0.0590  1.0861
18611TIP3    H277325   1.911   2.273   2.804  0.4910  1.2352  1.9269
18612TIP3   OH277326   2.329   3.015   5.605 -0.3120  0.4942  0.5487
18612TIP3    H177327   2.275   3.064   5.543 -3.7367 -0.3991  2.5654
18612TIP3    H277328   2.419   3.039   5.582 -1.4953  2.6570 -2.6111
18613TIP3   OH277329   5.300   0.581  14.810 -0.1220 -0.4274 -0.3064
18613TIP3    H177330   5.320   0.548  14.722 -1.7866 -2.3890 -0.0207
18613TIP3    H277331   5.352   0.527  14.868 -0.8444 -0.7740  0.0294
18614TIP3   OH277332   0.387   6.158   3.785  0.7022  0.5487 -0.1101
18614TIP3    H177333   0.432   6.074   3.794  0.1998  0.0336 -1.9008
18614TIP3    H277334   0.344   6.152   3.700  2.1756  3.3312 -1.1515
18615TIP3   OH277335   2.217   4.090  11.563 -0.4302 -0.0830  0.3314
18615TIP3    H177336   2.197   4.139  11.483 -1.1487 -0.4141  0.3040
18615TIP3    H277337   2.199   3.999  11.540 -0.2243 -0.2302  0.7423
18616TIP3   OH277338   0.429   6.452   1.759  0.0116 -0.0686 -0.1817
18616TIP3    H177339   0.339   6.483   1.766 -0.2329 -0.7613 -0.1532
18616TIP3    H277340   0.465   6.461   1.847 -0.4198 -0.9132  0.0952
18617TIP3   OH277341   1.469   6.812   0.931  0.8601 -0.2188  0.1535
18617TIP3    H177342   1.490   6.807   1.024  3.2005 -2.8077 -0.3881
18617TIP3    H277343   1.552   6.834   0.889  0.2658 -0.9432 -1.4481
18618TIP3   OH277344   1.991   1.340  15.871  0.1786  0.1286  0.6061
18618TIP3    H177345   1.999   1.415  15.813  1.4585  0.7100  1.5017
18618TIP3    H277346   1.897   1.324  15.877  0.0072 -0.3194 -2.0507
18619TIP3   OH277347   4.478   3.466   1.513  0.7743  0.1439 -0.7893
18619TIP3    H177348   4.395   3.494   1.552  1.7043  1.9642  0.0050
18619TIP3    H277349   4.461   3.376   1.483 -2.0433  1.0962 -2.4192
18620TIP3   OH277350   0.531   4.058  14.374 -0.4018 -0.3947 -0.1441
18620TIP3    H177351   0.552   4.124  14.308 -0.1038 -1.9440 -1.6556
18620TIP3    H277352   0.574   3.978  14.343  1.1750 -0.8292  2.7852
18621TIP3   OH277353   1.200   0.257  14.048 -0.1671 -0.9792  0.0522
18621TIP3    H177354   1.234   0.337  14.088 -1.3144 -0.4425  0.0055
18621TIP3    H277355   1.181   0.283  13.958 -1.6157 -0.9544  0.3374
18622TIP3   OH277356   5.921   2.184  11.921  0.6936  0.4496  0.0985
18622TIP3    H177357   5.903   2.225  12.006  2.0026  0.4295  0.4108
18622TIP3    H277358   5.987   2.241  11.881  1.6884 -0.6973  0.0418
18623TIP3   OH277359   2.513   1.129  13.153 -0.7442 -0.0259  0.1878
18623TIP3    H177360   2.574   1.055  13.143  0.8231  1.3783 -1.3311
18623TIP3    H277361   2.545   1.176  13.230 -0.2744  0.3554 -0.2336
18624TIP3   OH277362   5.581   3.849   3.706 -0.2506  0.0156 -0.2548
18624TIP3    H177363   5.644   3.793   3.752 -1.0292 -0.3788  0.3429
18624TIP3    H277364   5.616   3.938   3.718 -0.4290 -0.0795  1.1028
18625TIP3   OH277365   5.900   6.644  11.251  0.3352 -0.2267 -0.6390
18625TIP3    H177366   5.838   6.609  11.315 -1.6825  1.8138 -1.3250
18625TIP3    H277367   5.966   6.689  11.304 -0.2154 -0.2384  0.0770
18626TIP3   OH277368   1.258   4.321  15.437 -0.4949  0.6865  0.1337
18626TIP3    H177369   1.290   4.338  15.349  0.8344 -1.0980  0.2166
18626TIP3    H277370   1.200   4.395  15.456 -0.3004  1.4524 -1.9580
18627TIP3   OH277371   4.668   5.404   0.544 -0.2297  0.0659  0.3435
18627TIP3    H177372   4.763   5.416   0.544  0.0107 -1.4160  1.6959
18627TIP3    H277373   4.633   5.492   0.555  1.0550  0.5169  1.0999
18628TIP3   OH277374   6.793   2.678   5.147  0.3777  0.0766  0.0040
18628TIP3    H177375   6.709   2.714   5.177 -1.5413 -2.7136 -1.5339
18628TIP3    H277376   6.824   2.742   5.083  0.4675  2.0919  1.9384
18629TIP3   OH277377   4.984   0.722   3.903 -0.4548 -0.1781 -0.0882
18629TIP3    H177378   5.061   0.745   3.850  0.0940  1.0294  1.1414
18629TIP3    H277379   4.931   0.802   3.903 -1.9209 -1.1167 -1.2152
18630TIP3   OH277380   4.946   6.146   4.462 -0.1220  0.2024  0.8736
18630TIP3    H177381   4.914   6.058   4.479 -0.8283  0.5895  1.6672
18630TIP3    H277382   4.892   6.202   4.518 -1.2245  1.3858 -1.2713
18631TIP3   OH277383   3.533   6.170   4.818 -0.1093 -0.1370  0.3377
18631TIP3    H177384   3.440   6.194   4.816 -0.4903 -1.5372 -1.4129
18631TIP3    H277385   3.557   6.163   4.725  1.7714  0.2323  0.7618
18632TIP3   OH277386   4.671   3.270   6.254 -0.6111 -0.5057 -0.2172
18632TIP3    H177387   4.683   3.296   6.163 -0.4739  2.2904  0.5122
18632TIP3    H277388   4.676   3.174   6.252  2.6190 -0.4811 -2.7075
18633TIP3   OH277389   6.112   5.351   5.178  0.3331  0.6385 -0.2999
18633TIP3    H177390   6.131   5.379   5.088 -0.1957 -0.2310 -0.6961
18633TIP3    H277391   6.191   5.304   5.205  1.3753  2.7518  0.5032
18634TIP3   OH277392   6.594   1.658   1.611  0.4322  0.4053 -1.0378
18634TIP3    H177393   6.566   1.630   1.523 -0.1014 -1.4269 -0.3194
18634TIP3    H277394   6.683   1.625   1.619  0.0507 -0.5001 -0.4463
18635TIP3   OH277395   5.379   2.628   3.703  0.4279  0.1438  0.4716
18635TIP3    H177396   5.376   2.647   3.609  0.0957  0.3935  0.5320
18635TIP3    H277397   5.379   2.714   3.746 -0.3619  0.0339  0.7201
18636TIP3   OH277398   0.028   6.622  12.396  0.1365 -0.1601  0.6271
18636TIP3    H177399  -0.025   6.647  12.321 -0.6307  1.4395  1.6449
18636TIP3    H277400   0.116   6.651  12.375 -0.1826  0.7744  0.5689
18637TIP3   OH277401   1.207   1.354  15.364  0.5348 -0.6202 -0.5943
18637TIP3    H177402   1.146   1.360  15.437 -0.1377 -0.4427 -1.1636
18637TIP3    H277403   1.170   1.287  15.306  1.0895 -0.7995 -0.7579
18638TIP3   OH277404   5.035   6.188   3.266  0.3281 -0.2359 -0.0791
18638TIP3    H177405   4.951   6.143   3.256 -0.1913  0.4529  0.9732
18638TIP3    H277406   5.029   6.265   3.211 -0.1088  0.2967  0.6918
18639TIP3   OH277407   3.611   6.502   5.327  0.1502 -0.7364  0.1667
18639TIP3    H177408   3.569   6.438   5.269 -2.4703  0.8603  0.1420
18639TIP3    H277409   3.648   6.567   5.267 -0.2107 -0.4592  0.2454
18640TIP3   OH277410   0.441   0.160  16.764 -0.5429 -0.3558  0.1929
18640TIP3    H177411   0.423   0.247  16.728  0.0436 -0.6304 -0.8306
18640TIP3    H277412   0.422   0.100  16.692  0.6049 -0.9399  0.3536
18641TIP3   OH277413   6.046   1.599  13.463 -0.3064 -0.3066 -0.4075
18641TIP3    H177414   6.121   1.647  13.430  0.0306 -1.4075 -1.3091
18641TIP3    H277415   6.022   1.539  13.392 -2.9980  1.0387 -0.7520
18642TIP3   OH277416   5.905   3.556   5.653 -0.2116  0.2095 -0.3129
18642TIP3    H177417   5.824   3.605   5.641 -0.7271  0.1866  2.5522
18642TIP3    H277418   5.958   3.610   5.712  1.8598  0.1478 -1.9835
18643TIP3   OH277419   1.884   1.413  14.489 -0.4943  0.6327  0.2701
18643TIP3    H177420   1.832   1.482  14.531  0.8132  1.7637  0.0993
18643TIP3    H277421   1.845   1.332  14.520 -2.5583  1.4029 -0.0845
18644TIP3   OH277422   3.367   0.736   5.110  0.0195  0.0289 -0.0946
18644TIP3    H177423   3.287   0.752   5.060 -0.0209  1.2662  0.3258
18644TIP3    H277424   3.433   0.790   5.067  0.4134 -0.2926  0.1024
18645TIP3   OH277425   1.931   4.701  13.217 -0.1788  0.2512  0.2489
18645TIP3    H177426   2.001   4.765  13.223 -0.0296  0.1433 -0.3247
18645TIP3    H277427   1.949   4.653  13.136 -0.1889 -0.6236  0.7477
18646TIP3   OH277428   2.495   4.034   5.454  0.0901 -0.5416  0.4046
18646TIP3    H177429   2.409   4.042   5.412 -0.4536 -1.2273  1.3511
18646TIP3    H277430   2.499   4.106   5.516  0.0793 -0.6775  0.5637
18647TIP3   OH277431   4.844   2.058  15.394 -0.1691 -0.5754  0.4543
18647TIP3    H177432   4.892   2.078  15.475  0.4054 -0.3900  0.0800
18647TIP3    H277433   4.839   1.962  15.392 -1.7122 -0.5601  1.5628
18648TIP3   OH277434   4.304   3.924  14.030 -0.6211  0.3509  0.3402
18648TIP3    H177435   4.373   3.880  14.079 -1.2860  0.6553  1.5729
18648TIP3    H277436   4.223   3.905  14.077 -1.3525  0.3117 -0.8700
18649TIP3   OH277437   2.077   6.745  10.841 -0.7168  0.2173 -0.3278
18649TIP3    H177438   2.023   6.692  10.782  0.7020 -0.7159 -0.8255
18649TIP3    H277439   2.102   6.821  10.788  0.9566 -0.8567 -1.1456
18650TIP3   OH277440   5.741   6.091  12.291  0.5740 -0.7311 -0.0148
18650TIP3    H177441   5.758   6.170  12.240  0.3126 -1.0460 -0.5994
18650TIP3    H277442   5.704   6.029  12.228 -3.2172  0.0268  1.1962
18651TIP3   OH277443   5.524   1.823  12.174  0.4051  0.0001  0.2648
18651TIP3    H177444   5.467   1.812  12.098  1.3856  1.8666 -0.8135
18651TIP3    H277445   5.573   1.741  12.180 -0.6771 -0.6961 -0.2431
18652TIP3   OH277446   6.548   3.534  13.588  0.3420  0.1950  0.5247
18652TIP3    H177447   6.505   3.539  13.503  1.0092 -2.5851 -0.0490
18652TIP3    H277448   6.574   3.625  13.607 -2.0738  1.2977 -0.9815
18653TIP3   OH277449   5.972   3.374   3.163 -0.5167 -0.3581  0.0614
18653TIP3    H177450   5.901   3.438   3.155 -3.2265 -2.9062  1.4550
18653TIP3    H277451   6.048   3.425   3.189 -1.8819  2.5113 -1.0699
18654TIP3   OH277452   4.387   4.753   0.144  0.9153 -0.7061 -0.1634
18654TIP3    H177453   4.296   4.751   0.176  1.3609 -0.1039  1.2462
18654TIP3    H277454   4.436   4.702   0.209  1.3674 -2.5405 -1.8370
18655TIP3   OH277455   4.221   5.173  15.747  0.5123  0.3990  0.4522
18655TIP3    H177456   4.159   5.119  15.796  0.9709 -1.5617 -1.0019
18655TIP3    H277457   4.298   5.177  15.803  0.2495  0.0607  0.8465
18656TIP3   OH277458   5.070   5.255   0.998 -0.2962 -0.1610  0.1298
18656TIP3    H177459   5.031   5.169   0.985  0.4474 -0.3680 -0.8959
18656TIP3    H277460   5.150   5.253   0.945 -0.3086  1.1887  0.0243
18657TIP3   OH277461   6.306   3.749   5.067 -0.9439  0.3209 -0.1168
18657TIP3    H177462   6.337   3.786   5.149 -1.2630 -0.1176  0.2036
18657TIP3    H277463   6.211   3.749   5.075 -1.2216  3.3563 -1.8033
18658TIP3   OH277464   4.435   3.402  11.921  0.0231  0.1724 -0.1953
18658TIP3    H177465   4.508   3.440  11.870 -0.4352 -0.1125 -1.0772
18658TIP3    H277466   4.375   3.475  11.933 -0.3111  0.0184 -0.8887
18659TIP3   OH277467   4.207   1.252  13.531 -0.0966 -0.7772 -0.0423
18659TIP3    H177468   4.268   1.195  13.578 -0.2283 -0.0541  1.0528
18659TIP3    H277469   4.159   1.194  13.473 -1.1288 -2.0277  1.9659
18660TIP3   OH277470   3.440   2.948   3.685 -0.1217 -0.7489  0.0330
18660TIP3    H177471   3.348   2.950   3.711 -0.0105 -0.4836  0.4006
18660TIP3    H277472   3.486   2.911   3.760  0.3992  1.4018  0.8557
18661TIP3   OH277473   6.706   1.802   3.799 -0.1692  0.2900  0.3068
18661TIP3    H177474   6.721   1.839   3.712  1.3755 -1.1915 -0.1175
18661TIP3    H277475   6.733   1.870   3.860  0.1942  0.7881 -0.4027
18662TIP3   OH277476   5.532   5.889  13.323 -0.3268 -0.3101  0.7096
18662TIP3    H177477   5.586   5.916  13.397 -1.2917 -0.4500  1.4740
18662TIP3    H277478   5.447   5.869  13.361 -1.6085  1.9601 -0.7350
18663TIP3   OH277479   2.470   5.320  14.990 -0.0021 -0.2639  0.2376
18663TIP3    H177480   2.474   5.293  14.898 -0.0834  2.4339 -0.6511
18663TIP3    H277481   2.397   5.272  15.027 -0.1079 -1.2253 -1.1753
18664TIP3   OH277482   5.718   5.671   3.675 -0.5479 -0.1862  0.2338
18664TIP3    H177483   5.694   5.764   3.682  1.6226  0.3241  1.8364
18664TIP3    H277484   5.634   5.625   3.682 -1.4684  1.5758  1.8648
18665TIP3   OH277485   4.669   0.352  16.590  0.0571  0.1662  0.0222
18665TIP3    H177486   4.694   0.364  16.498  0.8171  0.3498  0.2394
18665TIP3    H277487   4.617   0.271  16.591 -1.2621  0.9829 -0.7850
18666TIP3   OH277488   1.180   1.338   5.218  0.6783  0.1707 -0.2290
18666TIP3    H177489   1.116   1.407   5.235  0.0741 -0.4049 -0.1337
18666TIP3    H277490   1.161   1.270   5.282  1.8391  0.2731  0.2576
18667TIP3   OH277491   3.821   2.013   3.749  0.1301  0.3139  0.4466
18667TIP3    H177492   3.803   2.049   3.662  0.5732  1.8662  0.9659
18667TIP3    H277493   3.846   1.922   3.733  0.8858  0.7664 -1.1154
18668TIP3   OH277494   5.691   3.317  16.664  0.0599  0.0301  0.2594
18668TIP3    H177495   5.704   3.356  16.578  1.3808  0.5416  0.6613
18668TIP3    H277496   5.772   3.336  16.712  0.5538 -2.7186  0.6782
18669TIP3   OH277497   0.793   4.260  14.781 -0.0747 -0.0764  0.0540
18669TIP3    H177498   0.750   4.268  14.866 -0.7612  2.5047 -0.4411
18669TIP3    H277499   0.722   4.240  14.720  0.0432  0.2884 -0.2092
18670TIP3   OH277500   6.790   4.318   4.579 -0.5755 -0.2035 -0.4950
18670TIP3    H177501   6.812   4.411   4.592 -0.8276 -0.0859 -0.8965
18670TIP3    H277502   6.740   4.294   4.657  0.8928 -0.4515  0.4063
18671TIP3   OH277503   5.803   2.157  10.550  0.2666  0.0611 -0.3223
18671TIP3    H177504   5.808   2.074  10.596 -1.1617  0.1692  0.0944
18671TIP3    H277505   5.716   2.155  10.508  0.5462  0.9981 -0.9740
18672TIP3   OH277506   6.269   6.243   4.474  0.0561  0.3255  0.3738
18672TIP3    H177507   6.353   6.218   4.436 -0.4580 -0.7377 -0.0967
18672TIP3    H277508   6.228   6.297   4.408  0.3437  0.8112  0.5866
18673TIP3   OH277509   2.804   2.137  16.326  0.1519  0.4600  0.5902
18673TIP3    H177510   2.721   2.095  16.347 -1.6822  3.5013  0.1067
18673TIP3    H277511   2.871   2.079  16.362 -2.1709 -1.9737  1.2696
18674TIP3   OH277512   6.215   1.783  14.657 -0.4513 -0.2017  0.0906
18674TIP3    H177513   6.128   1.798  14.618 -1.2326 -1.9226  1.0719
18674TIP3    H277514   6.268   1.752  14.584 -0.4353  1.4229 -0.6546
18675TIP3   OH277515   0.182   4.375   3.136 -0.1744  0.9406  0.3279
18675TIP3    H177516   0.152   4.312   3.202 -0.9708  0.2181 -0.6896
18675TIP3    H277517   0.107   4.431   3.120 -0.2598  0.6022 -0.5303
18676TIP3   OH277518   6.242   3.931   0.265 -0.4163 -0.3360 -0.0947
18676TIP3    H177519   6.279   3.956   0.180 -0.0604  1.5922  0.5695
18676TIP3    H277520   6.149   3.919   0.248 -0.6932  1.8946 -0.4597
18677TIP3   OH277521   0.825   0.899   1.712 -0.2983 -0.0067 -0.1962
18677TIP3    H177522   0.803   0.973   1.768  0.6712  0.2266 -0.1058
18677TIP3    H277523   0.872   0.838   1.769 -0.1315 -0.1955 -0.5290
18678TIP3   OH277524   6.596   0.110   4.003  0.8186 -0.6316  0.6366
18678TIP3    H177525   6.517   0.140   3.956  0.0145 -0.5829  1.9743
18678TIP3    H277526   6.612   0.022   3.968  0.3546 -0.5277  0.1299
18679TIP3   OH277527   0.616   4.394   1.377  0.2368  0.3737  0.2083
18679TIP3    H177528   0.695   4.361   1.420 -0.5645 -1.5798  0.2656
18679TIP3    H277529   0.632   4.381   1.284 -0.7013 -1.8521  0.2866
18680TIP3   OH277530   2.423   3.889   4.476  0.0379 -0.3847 -0.1471
18680TIP3    H177531   2.374   3.911   4.397 -0.7099 -3.2669 -0.6075
18680TIP3    H277532   2.383   3.942   4.544 -0.2518  1.1230 -1.4306
18681TIP3   OH277533   1.179   3.536  12.403  0.2156  0.2350  0.2302
18681TIP3    H177534   1.256   3.571  12.447 -0.7871  2.6401  0.2188
18681TIP3    H277535   1.211   3.458  12.356  3.1760  2.3851 -1.6471
18682TIP3   OH277536   6.217   0.023   5.656  0.4032 -0.5334  0.2123
18682TIP3    H177537   6.294   0.028   5.598  0.4876  0.9766  0.3925
18682TIP3    H277538   6.231   0.095   5.718 -1.5192  0.2826 -0.2396
18683TIP3   OH277539   0.032   3.476   1.158  0.2537 -0.0073  0.1985
18683TIP3    H177540   0.045   3.480   1.253  1.4432  0.9453  0.0243
18683TIP3    H277541   0.053   3.386   1.135 -0.2500 -0.3012  0.8611
18684TIP3   OH277542   5.392   1.902  12.661 -0.0888 -0.3777  0.0784
18684TIP3    H177543   5.464   1.872  12.716 -1.2968  0.2424  2.1211
18684TIP3    H277544   5.411   1.995  12.646  0.3754 -0.6084 -0.8100
18685TIP3   OH277545   1.036   4.945  16.879  0.2793  0.1335  0.6208
18685TIP3    H177546   1.002   4.973  16.793 -0.7839 -0.5206  0.8120
18685TIP3    H277547   1.058   5.027  16.923  0.7821  0.4829 -0.2452
18686TIP3   OH277548   1.647   2.883   1.128  0.1253  0.0531  0.4138
18686TIP3    H177549   1.638   2.791   1.105 -1.4173 -0.1218  1.6442
18686TIP3    H277550   1.593   2.895   1.206  3.1176  1.1930  2.5023
18687TIP3   OH277551   2.428   2.097  13.435  0.7850  0.2084  0.4225
18687TIP3    H177552   2.335   2.076  13.428  0.6868  0.5433  0.6983
18687TIP3    H277553   2.448   2.142  13.352  0.9784 -0.8640 -0.1318
18688TIP3   OH277554   0.562   5.931  12.600  0.3619 -0.1139  0.0057
18688TIP3    H177555   0.586   5.921  12.692 -1.0066 -1.4293  0.2738
18688TIP3    H277556   0.471   5.900  12.596  0.0063  1.0411 -1.5833
18689TIP3   OH277557   3.968   6.822  15.401  0.8960  0.4532  0.0441
18689TIP3    H177558   4.003   6.829  15.312 -1.0545 -1.7846 -1.0377
18689TIP3    H277559   3.958   6.728  15.414 -1.9144  0.8335  1.3126
18690TIP3   OH277560   3.519   3.525  11.944  0.1771 -0.0213  0.6915
18690TIP3    H177561   3.548   3.572  12.023 -0.2660  0.3063  0.6633
18690TIP3    H277562   3.431   3.558  11.928  0.5041  0.3918 -0.3153
18691TIP3   OH277563   0.751   2.506  13.080  0.2240  0.5038  0.4880
18691TIP3    H177564   0.751   2.576  13.145  0.0801  1.3297 -0.3742
18691TIP3    H277565   0.667   2.463  13.092 -1.4461  2.9325 -1.4719
18692TIP3   OH277566   3.416   1.459  14.719 -0.1087 -0.1429 -0.2516
18692TIP3    H177567   3.417   1.542  14.766  0.9296 -0.6860  0.7415
18692TIP3    H277568   3.338   1.414  14.753 -0.7071  0.4277 -0.8355
18693TIP3   OH277569   5.978   3.920  13.940 -0.1808  0.2480 -0.3790
18693TIP3    H177570   5.910   3.892  13.879  0.9317 -0.9459 -1.1301
18693TIP3    H277571   6.005   4.006  13.908 -1.7053  1.0098  0.2822
18694TIP3   OH277572   3.575   2.875   0.121  0.2703 -0.0223 -0.1372
18694TIP3    H177573   3.576   2.939   0.193 -0.0957  0.6118 -0.6907
18694TIP3    H277574   3.510   2.908   0.060 -1.1848 -1.8156  0.3504
18695TIP3   OH277575   0.176   3.407  13.980 -0.2718  0.0138  0.1684
18695TIP3    H177576   0.134   3.491  14.001  0.7255  0.3343  0.9507
18695TIP3    H277577   0.151   3.349  14.052  0.6793  0.2427  0.7097
18696TIP3   OH277578   0.170   3.617   1.648 -0.3184  0.5379 -0.0605
18696TIP3    H177579   0.240   3.610   1.713 -0.0300 -2.0095 -0.5258
18696TIP3    H277580   0.207   3.669   1.577  0.4317  0.8104  0.5211
18697TIP3   OH277581   0.094   4.617   5.519 -0.7844 -0.7754 -0.1192
18697TIP3    H177582   0.101   4.612   5.424 -0.3773 -0.4653 -0.1091
18697TIP3    H277583   0.074   4.527   5.546  1.0699 -1.3069 -0.3505
18698TIP3   OH277584   0.514   1.551   3.174 -0.3273  0.6665 -0.0904
18698TIP3    H177585   0.562   1.586   3.249  0.9510  0.4375 -0.7624
18698TIP3    H277586   0.428   1.592   3.180 -0.0982  1.0125  1.2286
18699TIP3   OH277587   6.767   3.915   1.724 -0.0594  0.2909 -0.0152
18699TIP3    H177588   6.860   3.894   1.736 -0.0272  0.6773  0.4285
18699TIP3    H277589   6.742   3.868   1.645 -0.0438 -1.5912  1.0461
18700TIP3   OH277590   3.886   5.540   4.180  0.2381 -0.1203 -0.9029
18700TIP3    H177591   3.936   5.491   4.245 -1.3240 -0.1005  0.3886
18700TIP3    H277592   3.853   5.473   4.120  0.1194 -0.3661 -0.5644
18701TIP3   OH277593   1.098   5.715   0.501  0.6732 -0.2416 -0.3753
18701TIP3    H177594   1.137   5.641   0.546 -2.1900 -1.5793  0.1679
18701TIP3    H277595   1.074   5.776   0.571  0.4302 -0.1402 -0.5455
18702TIP3   OH277596   3.015   5.514   2.520  0.2720 -0.6546 -0.1933
18702TIP3    H177597   3.049   5.600   2.546 -0.4796 -1.1080  2.5406
18702TIP3    H277598   3.090   5.456   2.527  0.5784 -0.4035 -1.2195
18703TIP3   OH277599   1.458   4.747  15.937  0.3862  0.0351  0.4994
18703TIP3    H177600   1.415   4.715  16.017  1.3662  1.3213  1.5964
18703TIP3    H277601   1.515   4.675  15.911 -0.4187 -0.6443  0.5742
18704TIP3   OH277602   1.292   5.685  12.864 -0.3133 -0.0001  0.1103
18704TIP3    H177603   1.363   5.622  12.854  1.6567  2.2449 -1.0691
18704TIP3    H277604   1.263   5.704  12.775 -1.5522  0.0457  0.5055
18705TIP3   OH277605   0.974   4.031   2.884 -0.2223  0.4206 -0.1715
18705TIP3    H177606   0.953   3.984   2.964  0.5608 -0.5915 -0.5450
18705TIP3    H277607   0.891   4.035   2.836 -0.0974 -1.6493 -0.6655
18706TIP3   OH277608   2.809   0.399  16.772 -0.0947  0.1302  0.7804
18706TIP3    H177609   2.796   0.464  16.841  1.9618  0.5572  0.8194
18706TIP3    H277610   2.828   0.450  16.694  0.9028 -0.3941  0.6693
18707TIP3   OH277611   1.526   1.142   2.751  0.0574  0.0050  0.6320
18707TIP3    H177612   1.475   1.222   2.741  0.4984  0.2852  0.5948
18707TIP3    H277613   1.461   1.074   2.767 -0.7131 -0.3912 -3.2741
18708TIP3   OH277614   3.133   3.498   2.329 -0.3630 -0.1598 -0.3863
18708TIP3    H177615   3.041   3.523   2.327 -0.7813 -1.6458 -1.9079
18708TIP3    H277616   3.136   3.421   2.386 -0.1729 -0.5109 -0.8704
18709TIP3   OH277617   1.238   3.251   2.539 -0.3275  0.1137  0.0413
18709TIP3    H177618   1.227   3.339   2.574 -0.3608 -0.5969  1.9975
18709TIP3    H277619   1.171   3.199   2.585 -0.2207 -0.9564 -0.9665
18710TIP3   OH277620   3.171   4.506   3.438  0.0774 -0.1668 -0.1179
18710TIP3    H177621   3.099   4.546   3.487  0.3140 -0.5987  0.5978
18710TIP3    H277622   3.171   4.552   3.354  0.9627  2.0198  1.0121
18711TIP3   OH277623   6.278   3.986  14.798  0.3235 -0.3511 -0.0802
18711TIP3    H177624   6.266   3.944  14.883 -1.8883  0.0828 -0.1126
18711TIP3    H277625   6.292   4.078  14.819 -1.5656  0.0046 -0.1442
18712TIP3   OH277626   3.491   5.256   6.061 -0.3020  0.1969  0.2415
18712TIP3    H177627   3.502   5.161   6.053 -1.5451  0.1344 -1.0942
18712TIP3    H277628   3.430   5.279   5.991 -1.3457  1.7335  1.5846
18713TIP3   OH277629   3.980   3.137   1.682  0.2403 -0.0696  0.4295
18713TIP3    H177630   4.011   3.144   1.772 -1.0573  0.9584  0.8144
18713TIP3    H277631   3.949   3.047   1.674 -1.5888  0.4113  1.6860
18714TIP3   OH277632   0.968   4.602   1.028 -0.0497 -0.5059  0.3609
18714TIP3    H177633   0.897   4.607   0.965 -0.6690  2.4800  1.1140
18714TIP3    H277634   1.044   4.638   0.981 -0.7991  2.9245  1.4576
18715TIP3   OH277635   3.034   1.163  10.562 -0.1821  0.3804 -0.3780
18715TIP3    H177636   3.010   1.213  10.483 -3.1228 -0.4576 -0.1494
18715TIP3    H277637   2.952   1.156  10.611  1.3187 -0.1570  2.2064
18716TIP3   OH277638   5.410   2.328  11.961 -0.5089 -0.2387  0.1076
18716TIP3    H177639   5.497   2.290  11.952 -0.1557  0.4476  0.5959
18716TIP3    H277640   5.367   2.310  11.877  0.6221  0.7443 -0.7104
18717TIP3   OH277641   1.401   1.743  11.427  0.2714 -0.0203 -0.1715
18717TIP3    H177642   1.434   1.686  11.358  2.8697  0.6881  0.3830
18717TIP3    H277643   1.387   1.827  11.384 -0.1273 -0.1221 -0.2467
18718TIP3   OH277644   0.636   2.143  16.708 -0.0822 -0.2406  0.5161
18718TIP3    H177645   0.621   2.049  16.706 -1.6633 -0.0019 -0.4571
18718TIP3    H277646   0.700   2.156  16.779  0.9778 -2.1219 -0.0319
18719TIP3   OH277647   4.124   2.047   6.239 -0.2358 -0.1095 -0.3103
18719TIP3    H177648   4.099   2.037   6.148  0.6133 -0.5106 -0.5079
18719TIP3    H277649   4.195   2.111   6.238  0.0066 -0.3692  0.0323
18720TIP3   OH277650   0.398   5.420   3.615 -0.8430  0.6531 -0.0865
18720TIP3    H177651   0.387   5.372   3.533  1.0613  0.8844 -0.5239
18720TIP3    H277652   0.478   5.384   3.653 -1.0069  1.4437  1.0547
18721TIP3   OH277653   0.280   0.524  15.106 -0.4353 -0.7399  0.2572
18721TIP3    H177654   0.296   0.603  15.156 -0.1600 -1.1587  0.8460
18721TIP3    H277655   0.196   0.491  15.137 -1.1535 -0.0234 -0.8721
18722TIP3   OH277656   1.595   1.104  15.726  0.3694  0.6841 -0.0120
18722TIP3    H177657   1.522   1.165  15.726 -0.8945 -0.7061 -1.9445
18722TIP3    H277658   1.669   1.153  15.690 -0.0003  1.6764  0.5583
18723TIP3   OH277659   5.726   0.060  11.329  0.0847 -0.0861  0.5310
18723TIP3    H177660   5.680   0.138  11.298 -0.0253 -0.2126  0.3739
18723TIP3    H277661   5.815   0.070  11.297  0.0295 -0.1034  0.3694
18724TIP3   OH277662   1.968   5.881  14.470 -0.1300 -0.1201 -0.0672
18724TIP3    H177663   1.884   5.904  14.508 -0.5221  0.1920 -1.1009
18724TIP3    H277664   1.949   5.858  14.379  0.8513 -0.3979 -0.2231
18725TIP3   OH277665   1.982   0.421   5.545 -0.0119  0.1421  0.0471
18725TIP3    H177666   1.904   0.419   5.489 -2.1825  0.5392  2.8073
18725TIP3    H277667   1.979   0.508   5.586 -1.0247 -1.4270  3.7857
18726TIP3   OH277668   4.947   5.778  12.911  0.2398 -0.7515  0.1308
18726TIP3    H177669   4.932   5.871  12.895  1.0433 -0.2647  1.8861
18726TIP3    H277670   4.892   5.757  12.987  0.8673 -1.4195  0.4202
18727TIP3   OH277671   5.293   2.745  11.763 -0.3688 -0.2909 -0.1764
18727TIP3    H177672   5.376   2.789  11.746  0.5945 -0.8537  2.6151
18727TIP3    H277673   5.302   2.659  11.721 -0.5973  0.5190 -1.9982
18728TIP3   OH277674   4.034   3.088  14.045 -0.4542  1.1344 -0.6039
18728TIP3    H177675   4.098   3.142  14.092 -0.6089  0.4930  0.3842
18728TIP3    H277676   4.084   3.046  13.975 -0.2184  2.1204 -1.0405
18729TIP3   OH277677   3.536   0.406   1.488 -0.5636 -0.3773  0.2296
18729TIP3    H177678   3.545   0.499   1.510 -1.9127  0.1510 -1.2978
18729TIP3    H277679   3.486   0.369   1.560 -0.6182  0.2295  0.5092
18730TIP3   OH277680   2.253   2.335   3.068  0.2813  0.1534  0.0701
18730TIP3    H177681   2.229   2.254   3.023  0.5644 -0.0086  0.2129
18730TIP3    H277682   2.235   2.318   3.161  1.3264 -0.1089  0.2295
18731TIP3   OH277683   0.971   3.156  15.919  0.1806 -0.0364  0.1829
18731TIP3    H177684   1.016   3.099  15.980  0.1360 -0.1265  0.1320
18731TIP3    H277685   1.034   3.225  15.899 -0.3340  0.8678  1.5393
18732TIP3   OH277686   1.290   6.635   1.508 -0.2794 -0.3011 -0.0907
18732TIP3    H177687   1.214   6.618   1.452  0.5357  1.0447 -1.7190
18732TIP3    H277688   1.351   6.564   1.488 -0.9291 -1.1486  0.9028
18733TIP3   OH277689   0.006   5.579  13.021  0.2777 -0.2019  0.5535
18733TIP3    H177690   0.038   5.489  13.023 -0.6475 -0.5948 -0.9727
18733TIP3    H277691   0.024   5.613  13.109  1.2500 -1.6450  0.9466
18734TIP3   OH277692   5.172   3.670  16.721  0.4692  0.2879 -0.0147
18734TIP3    H177693   5.126   3.753  16.739  1.2688  0.8081 -0.3064
18734TIP3    H277694   5.193   3.635  16.807 -0.3357  0.1205  0.1192
18735TIP3   OH277695   3.788   3.558   0.460 -0.4926  0.4467  0.4574
18735TIP3    H177696   3.856   3.615   0.424  0.7321  0.9437  3.3234
18735TIP3    H277697   3.836   3.485   0.499 -1.6393  0.4275  1.8862
18736TIP3   OH277698   2.214   6.492   0.565  0.5360  0.3427 -0.1154
18736TIP3    H177699   2.273   6.430   0.523  1.9615  2.0783 -0.8255
18736TIP3    H277700   2.249   6.503   0.653 -1.1417 -1.5924  0.8946
18737TIP3   OH277701   1.487   5.186  12.868  0.0930 -0.1481  0.0273
18737TIP3    H177702   1.408   5.154  12.911  0.6063 -2.1395 -0.4057
18737TIP3    H277703   1.482   5.150  12.779  1.1162  0.3279 -0.2394
18738TIP3   OH277704   6.672   6.433  12.397  0.3804  0.5566  0.1677
18738TIP3    H177705   6.723   6.514  12.389 -0.0332  0.7261 -0.8829
18738TIP3    H277706   6.633   6.420  12.311 -1.4888  0.5241  0.9578
18739TIP3   OH277707   3.421   1.409  11.148  0.3820 -0.2078  0.2769
18739TIP3    H177708   3.408   1.356  11.226  0.6053 -0.8267 -0.0934
18739TIP3    H277709   3.360   1.482  11.157  0.5148 -0.1920  1.0960
18740TIP3   OH277710   5.995   0.273   1.546 -0.3791 -0.2325 -0.3716
18740TIP3    H177711   5.943   0.236   1.618  0.8489 -1.2488  0.0238
18740TIP3    H277712   6.020   0.360   1.577  0.9921 -1.0345  0.9195
18741TIP3   OH277713   0.820   4.555  12.451 -0.1070 -0.1336  0.2209
18741TIP3    H177714   0.826   4.645  12.419  1.3004  0.3493  1.7194
18741TIP3    H277715   0.778   4.562  12.536 -2.4554 -1.2504 -0.7423
18742TIP3   OH277716   6.714   2.451   5.275  0.1618  0.4382  0.2900
18742TIP3    H177717   6.773   2.517   5.239  1.5170 -0.0822  1.4413
18742TIP3    H277718   6.744   2.439   5.365 -1.3235 -0.3167  0.7078
18743TIP3   OH277719   0.526   5.495  13.356  0.1232 -0.2545  0.1936
18743TIP3    H177720   0.620   5.502  13.370  0.0785 -0.0831  0.4276
18743TIP3    H277721   0.499   5.420  13.409  0.0370  0.0658  0.6107
18744TIP3   OH277722   5.896   4.013  16.090  0.3966  0.0392  0.4990
18744TIP3    H177723   5.855   4.005  16.004  0.4330  0.5497  0.4352
18744TIP3    H277724   5.870   4.099  16.122  1.3707  0.3531  0.4815
18745TIP3   OH277725   3.970   1.172   0.656  0.8027  0.7241 -0.2068
18745TIP3    H177726   3.975   1.168   0.751 -0.2759  0.2145 -0.1610
18745TIP3    H277727   4.058   1.147   0.627  0.3927 -1.9949  0.6094
18746TIP3   OH277728   6.088   1.803   4.025 -0.3485 -0.4279 -0.1119
18746TIP3    H177729   6.090   1.709   4.003  1.4338 -0.1001 -1.5677
18746TIP3    H277730   5.997   1.828   4.007 -1.2074 -2.1002  1.5324
18747TIP3   OH277731   4.030   4.657  14.904 -0.3002 -0.3046 -0.1997
18747TIP3    H177732   4.037   4.734  14.848 -2.6262 -0.4109 -0.7493
18747TIP3    H277733   3.985   4.592  14.850 -0.7208 -1.1303  1.0894
18748TIP3   OH277734   0.115   3.016  16.730  0.0835  0.2205 -0.0272
18748TIP3    H177735   0.062   2.967  16.792  1.2946  0.3298  1.1297
18748TIP3    H277736   0.194   2.963  16.718  0.4313  0.8245 -0.4844
18749TIP3   OH277737   4.353   2.972   4.563  0.2003  0.0517  0.1227
18749TIP3    H177738   4.443   3.003   4.572  1.0991 -2.1218 -0.6553
18749TIP3    H277739   4.335   2.926   4.645 -0.3796  0.8463  0.4523
18750TIP3   OH277740   1.639   0.912   4.448  1.1744 -0.3616 -0.2159
18750TIP3    H177741   1.693   0.988   4.426 -0.3209  0.7295 -0.2731
18750TIP3    H277742   1.602   0.884   4.365  0.2899 -0.0083  0.0496
18751TIP3   OH277743   0.503   0.857  11.128  0.5837 -0.1772  0.1319
18751TIP3    H177744   0.465   0.875  11.042  0.5478 -0.9649 -0.0221
18751TIP3    H277745   0.591   0.893  11.124 -0.1963  1.9838  0.5998
18752TIP3   OH277746   0.042   0.769  14.607 -0.2753 -0.5922 -0.4013
18752TIP3    H177747  -0.033   0.804  14.559  0.1083  0.2192 -0.4384
18752TIP3    H277748   0.007   0.746  14.693 -0.8052 -1.3279 -0.8122
18753TIP3   OH277749   1.072   1.904   4.210 -0.3388 -0.3910  0.1404
18753TIP3    H177750   1.135   1.975   4.199 -0.0515 -0.6005  0.4198
18753TIP3    H277751   0.988   1.947   4.223 -0.1986 -0.1077  0.1021
18754TIP3   OH277752   3.361   1.311   2.168 -0.0042 -0.2309 -0.4636
18754TIP3    H177753   3.353   1.306   2.263  1.7225  0.8441 -0.2310
18754TIP3    H277754   3.393   1.225   2.142  2.5628  0.4132  0.3202
18755TIP3   OH277755   1.022   1.586   0.515  0.1492  0.5238  0.4970
18755TIP3    H177756   1.054   1.660   0.465  0.7983  0.5222  0.8965
18755TIP3    H277757   1.093   1.522   0.512 -0.6404 -0.3559 -0.3750
18756TIP3   OH277758   5.744   4.243   2.439  0.0539 -0.2805  0.5707
18756TIP3    H177759   5.703   4.162   2.471  1.1366 -0.2869  2.0257
18756TIP3    H277760   5.836   4.236   2.464  0.9257 -0.0436 -2.2049
18757TIP3   OH277761   1.649   5.991  15.579 -0.3160  0.2910 -0.1381
18757TIP3    H177762   1.651   6.074  15.626  0.9461 -0.1457  0.6497
18757TIP3    H277763   1.567   5.950  15.605  0.6775 -0.2840  2.3812
18758TIP3   OH277764   5.492   1.819   3.365 -0.3512 -0.0726  0.2061
18758TIP3    H177765   5.546   1.740   3.367  0.7173  0.6351  0.1277
18758TIP3    H277766   5.530   1.873   3.295  0.2498  1.3797  1.5765
18759TIP3   OH277767   3.253   5.866   4.541  0.5553 -0.3251 -0.2177
18759TIP3    H177768   3.190   5.933   4.567  0.1167 -1.2145  1.1122
18759TIP3    H277769   3.251   5.867   4.445  0.8811  1.8222 -0.2611
18760TIP3   OH277770   2.424   4.421   5.838  0.6881  0.6898  0.2449
18760TIP3    H177771   2.386   4.446   5.922  0.6899 -0.3225  0.5616
18760TIP3    H277772   2.448   4.329   5.849  0.5469  0.4955 -0.9160
18761TIP3   OH277773   6.569   0.100   3.170  0.0218 -0.5164  0.5948
18761TIP3    H177774   6.655   0.120   3.134  0.6954 -1.0536  1.8484
18761TIP3    H277775   6.517   0.179   3.152  0.9442  0.0626  0.3645
18762TIP3   OH277776   0.935   1.922   1.067  0.4553 -0.1547  0.0926
18762TIP3    H177777   1.026   1.949   1.061  0.1545  1.5542  2.2261
18762TIP3    H277778   0.936   1.829   1.043  2.5236  0.1033 -1.1092
18763TIP3   OH277779   6.830   2.375  15.449 -0.0532  0.1731  0.1280
18763TIP3    H177780   6.756   2.386  15.389  0.0634 -0.7679 -0.2141
18763TIP3    H277781   6.880   2.455  15.440 -1.6199  1.3456  1.2308
18764TIP3   OH277782   6.341   2.384   2.346  0.0159  0.3831 -0.1479
18764TIP3    H177783   6.275   2.388   2.416 -1.5929  1.4353 -1.6370
18764TIP3    H277784   6.293   2.350   2.270  1.4058  0.4124 -1.0687
18765TIP3   OH277785   1.812   6.769  13.097 -0.5794  0.0112  0.2714
18765TIP3    H177786   1.863   6.737  13.172 -0.7393  0.3165  0.5100
18765TIP3    H277787   1.851   6.853  13.076 -0.4844 -0.1107 -0.0411
18766TIP3   OH277788   2.201   0.231   5.539  0.3328  0.5092  0.1056
18766TIP3    H177789   2.143   0.304   5.517  0.5330  0.3901 -0.8653
18766TIP3    H277790   2.155   0.153   5.508  0.1118  0.2045  1.1530
18767TIP3   OH277791   6.778   1.607  13.199 -0.6727  0.7002 -0.3554
18767TIP3    H177792   6.741   1.561  13.275  0.0979  0.4650 -0.1205
18767TIP3    H277793   6.796   1.538  13.136  0.2071  0.6992 -0.1165
18768TIP3   OH277794   6.634   6.387  16.446 -0.5878 -0.0395  0.1846
18768TIP3    H177795   6.620   6.310  16.501 -0.6342 -1.2502 -1.4655
18768TIP3    H277796   6.551   6.435  16.450  0.3637  1.6216  3.6196
18769TIP3   OH277797   3.143   2.737  16.756  0.1817  0.6363  0.0491
18769TIP3    H177798   3.167   2.723  16.847 -0.5521 -0.8710  0.0300
18769TIP3    H277799   3.063   2.686  16.743 -1.4456  3.1299 -0.6691
18770TIP3   OH277800   0.247   0.310  12.829  0.3242  0.7840 -0.1445
18770TIP3    H177801   0.151   0.317  12.831  0.2092 -0.4899 -0.1284
18770TIP3    H277802   0.278   0.397  12.855 -0.8062  1.6494 -1.5492
18771TIP3   OH277803   4.508   0.873  13.499  0.5000  0.4722 -0.0137
18771TIP3    H177804   4.541   0.962  13.485  2.3496  0.0071  1.0386
18771TIP3    H277805   4.456   0.879  13.579  1.2556  0.4680  0.4820
18772TIP3   OH277806   5.980   5.051   2.649 -0.4101  0.5268  0.1310
18772TIP3    H177807   5.909   5.021   2.593 -1.2326 -1.5315  2.1146
18772TIP3    H277808   5.998   5.141   2.620 -2.1058  0.2315 -2.0427
18773TIP3   OH277809   3.991   3.603   3.078 -0.5643 -0.3974 -0.5207
18773TIP3    H177810   3.909   3.652   3.081 -0.3252 -0.0043 -0.3383
18773TIP3    H277811   4.043   3.639   3.150 -0.0919 -0.3978 -0.8567
18774TIP3   OH277812   1.901   1.564  16.991 -0.0826 -0.7505 -0.3068
18774TIP3    H177813   1.931   1.568  16.900  0.1814 -0.2290 -0.1998
18774TIP3    H277814   1.826   1.624  16.995  0.8649  0.4498  0.1713
18775TIP3   OH277815   0.601   5.401  14.974 -0.0597  0.0722  0.1378
18775TIP3    H177816   0.652   5.477  14.945  0.0540  0.3198  0.9870
18775TIP3    H277817   0.549   5.432  15.047 -1.0858 -0.3140 -0.4094
18776TIP3   OH277818   1.983   3.894  13.894  0.1963  0.2768  0.2501
18776TIP3    H177819   2.016   3.973  13.853  0.7365 -0.2399 -0.3295
18776TIP3    H277820   2.005   3.824  13.833  1.2892 -0.5526  1.5258
18777TIP3   OH277821   4.205   4.122  13.375 -0.0859 -0.0454 -0.4851
18777TIP3    H177822   4.235   4.167  13.454  0.1940  1.9824 -1.6542
18777TIP3    H277823   4.207   4.190  13.307 -1.4345 -1.4111 -1.9819
18778TIP3   OH277824   5.293   2.375  16.526  0.4682  0.1800  0.5910
18778TIP3    H177825   5.221   2.356  16.465  0.5127 -0.4867  0.7421
18778TIP3    H277826   5.342   2.445  16.483 -0.3767  0.7803  0.5734
18779TIP3   OH277827   4.526   3.729  15.976 -0.1326  0.2138  0.2367
18779TIP3    H177828   4.464   3.704  16.044  0.6586 -1.3266  0.4263
18779TIP3    H277829   4.484   3.703  15.894  0.9095 -2.4618  0.4551
18780TIP3   OH277830   4.626   6.482   3.356  0.2063 -0.2966  0.1185
18780TIP3    H177831   4.653   6.443   3.439 -1.1003  0.3233  0.8694
18780TIP3    H277832   4.648   6.575   3.365 -0.2216 -0.1715 -0.1003
18781TIP3   OH277833   5.217   4.934   0.784 -0.1151 -0.1668  0.2935
18781TIP3    H177834   5.286   4.923   0.850 -1.4014 -1.4983  1.4996
18781TIP3    H277835   5.264   4.954   0.704  1.8484 -2.5034  0.7205
18782TIP3   OH277836   0.806   5.839   0.546 -0.4705  0.2128 -0.6519
18782TIP3    H177837   0.849   5.819   0.629 -0.2896 -0.8459 -0.9818
18782TIP3    H277838   0.775   5.754   0.515 -0.2777  0.5511 -1.8035
18783TIP3   OH277839   4.296   2.731   4.720 -0.2996  0.0581  0.0839
18783TIP3    H177840   4.373   2.731   4.776  1.2215 -1.6922 -1.8590
18783TIP3    H277841   4.243   2.657   4.750  0.6043 -0.9919 -0.8250
18784TIP3   OH277842   0.706   6.648   5.692 -0.1475  0.2560  0.0165
18784TIP3    H177843   0.714   6.612   5.603  0.9759  2.5091 -0.8758
18784TIP3    H277844   0.662   6.579   5.742  4.0685 -3.4811 -0.8136
18785TIP3   OH277845   5.675   0.630   1.676 -1.1752  0.0562 -0.4880
18785TIP3    H177846   5.730   0.552   1.688  0.1555  1.1846  1.1837
18785TIP3    H277847   5.721   0.681   1.609 -0.1763  0.9534  0.8393
18786TIP3   OH277848   4.117   1.519   3.942  0.1763 -0.5093 -0.0486
18786TIP3    H177849   4.179   1.530   3.870 -1.2012 -0.1262 -1.2420
18786TIP3    H277850   4.142   1.437   3.984  1.0870 -0.6799 -0.9022
18787TIP3   OH277851   0.756   4.879   4.058 -0.5652  0.6200  0.5781
18787TIP3    H177852   0.839   4.896   4.104 -1.0985 -0.8957  2.2490
18787TIP3    H277853   0.747   4.951   3.996  3.0854 -0.3088 -1.2864
18788TIP3   OH277854   1.832   5.376  13.432  0.6661 -0.4192  0.4296
18788TIP3    H177855   1.883   5.308  13.477 -0.3114 -2.3818 -1.2624
18788TIP3    H277856   1.749   5.379  13.480  0.9460  0.0953  0.9015
18789TIP3   OH277857   5.301   5.870   1.697 -0.4326  0.2682 -0.1653
18789TIP3    H177858   5.369   5.937   1.687  0.2194 -0.5027 -1.0306
18789TIP3    H277859   5.219   5.917   1.689  0.0229  0.9210 -1.0641
18790TIP3   OH277860   1.170   2.851   2.615 -0.5322  0.5395 -0.0128
18790TIP3    H177861   1.243   2.824   2.560 -1.2422 -1.1297 -0.2052
18790TIP3    H277862   1.201   2.841   2.704 -0.3285  0.4297 -0.0964
18791TIP3   OH277863   2.717   0.202   3.003 -0.4007 -0.2694  0.1124
18791TIP3    H177864   2.646   0.149   2.966 -0.9742  1.2532 -1.0569
18791TIP3    H277865   2.748   0.256   2.931  2.7508 -1.6125  0.2921
18792TIP3   OH277866   5.983   1.896   0.820 -0.5499 -0.3921  0.0402
18792TIP3    H177867   5.972   1.990   0.806 -1.0379 -0.3338  0.7680
18792TIP3    H277868   6.074   1.879   0.794 -0.8107  0.0494 -1.2403
18793TIP3   OH277869   6.724   4.000   0.671  0.3048 -0.2966  0.2585
18793TIP3    H177870   6.737   4.081   0.621  1.4150  0.6324  1.9431
18793TIP3    H277871   6.808   3.955   0.668 -1.0089 -2.9867 -3.0700
18794TIP3   OH277872   5.026   1.938  11.305 -0.1281  0.1133  0.2445
18794TIP3    H177873   5.044   1.971  11.392  0.9136 -0.0452  0.0942
18794TIP3    H277874   5.110   1.907  11.272 -0.1884  1.5293 -1.4067
18795TIP3   OH277875   1.963   2.359  14.128 -0.1289 -0.1748  0.4709
18795TIP3    H177876   2.050   2.324  14.107 -0.2995  0.3257 -1.2422
18795TIP3    H277877   1.978   2.415  14.204  1.1718  0.3317 -0.1244
18796TIP3   OH277878   3.185   3.922  11.429  0.4468 -0.0541  0.3336
18796TIP3    H177879   3.110   3.960  11.382  1.5486  2.1430  0.2410
18796TIP3    H277880   3.160   3.830  11.442 -1.5115  0.1729 -1.2107
18797TIP3   OH277881   6.100   6.314   4.714  0.0081  0.1012  0.0388
18797TIP3    H177882   6.147   6.241   4.753  0.3834  0.5340  0.4019
18797TIP3    H277883   6.128   6.314   4.622  0.5959  0.2559  0.2135
18798TIP3   OH277884   0.127   2.531  13.300  0.0802  1.0384 -0.0503
18798TIP3    H177885   0.080   2.611  13.275  0.4342  1.4173  0.4721
18798TIP3    H277886   0.178   2.557  13.377  0.1751  0.2987  0.1388
18799TIP3   OH277887   4.228   5.364  11.099  0.1813  0.2139 -0.4939
18799TIP3    H177888   4.173   5.440  11.120 -0.1446 -0.6640  2.3088
18799TIP3    H277889   4.167   5.298  11.065 -0.5680 -0.5685  2.1061
18800TIP3   OH277890   3.294   3.013  11.310  0.0116  0.1115 -0.2553
18800TIP3    H177891   3.339   2.952  11.251 -1.7571 -1.1662 -0.3628
18800TIP3    H277892   3.332   2.996  11.396 -0.1942 -0.9173 -0.3525
18801TIP3   OH277893   3.560   3.153   0.832 -0.1051  0.3087 -0.5264
18801TIP3    H177894   3.653   3.140   0.814  0.4094  1.4624  1.0769
18801TIP3    H277895   3.548   3.125   0.923 -1.1818  0.7349 -0.5148
18802TIP3   OH277896   5.652   3.120  15.186 -0.2356  0.2985  0.6881
18802TIP3    H177897   5.744   3.135  15.165  0.0040 -1.6794  0.1373
18802TIP3    H277898   5.616   3.077  15.108 -1.6361  1.0054  0.9116
18803TIP3   OH277899   4.593   3.999   4.280  0.6719 -0.1641  0.7025
18803TIP3    H177900   4.608   4.091   4.258 -1.2277 -0.1515 -0.8225
18803TIP3    H277901   4.561   4.001   4.371  2.6929  0.4235  1.4442
18804TIP3   OH277902   4.294   0.440  13.831 -0.3144  0.3490  0.0153
18804TIP3    H177903   4.249   0.356  13.844 -1.2235  0.7202 -0.6051
18804TIP3    H277904   4.238   0.487  13.770  2.2717 -0.1999 -2.9856
18805TIP3   OH277905   2.925   0.958  13.795 -0.7503  0.6389 -0.1380
18805TIP3    H177906   2.908   1.028  13.858  0.1136  1.2493 -0.5764
18805TIP3    H277907   2.918   0.878  13.847  0.0289  1.1332  0.7682
18806TIP3   OH277908   5.863   5.997   0.502  0.1656  0.2641 -0.2981
18806TIP3    H177909   5.804   5.960   0.568  0.6169  0.3789  0.1801
18806TIP3    H277910   5.858   6.091   0.516  0.3391  0.2828 -0.3576
18807TIP3   OH277911   0.790   3.619  12.546  0.4834  0.2337  0.7885
18807TIP3    H177912   0.811   3.634  12.639 -1.0503  3.4380  0.7740
18807TIP3    H277913   0.721   3.683  12.527  0.6920 -0.3693 -2.5728
18808TIP3   OH277914   1.449   6.520   2.908  0.3737  0.2496  0.1486
18808TIP3    H177915   1.435   6.474   2.826  1.3491  1.1698 -0.5577
18808TIP3    H277916   1.371   6.574   2.920  0.0844 -0.1323  0.0088
18809TIP3   OH277917   4.839   1.034  10.929  0.1165  0.1325  0.0064
18809TIP3    H177918   4.787   1.110  10.905  2.2131  1.1168 -1.6178
18809TIP3    H277919   4.909   1.030  10.865  0.1134 -3.2075 -0.0036
18810TIP3   OH277920   0.614   4.069  15.371 -1.1146 -0.3532 -0.8175
18810TIP3    H177921   0.527   4.032  15.353 -1.5139  1.2211 -2.3977
18810TIP3    H277922   0.675   4.003  15.339 -1.7002 -1.4484  0.2385
18811TIP3   OH277923   5.083   3.445  14.337 -0.0307 -0.4144 -0.3180
18811TIP3    H177924   5.094   3.374  14.400 -1.2278 -1.3110 -1.0784
18811TIP3    H277925   4.988   3.450  14.323  0.1532  0.3140 -1.4377
18812TIP3   OH277926   0.022   3.259   3.168 -0.3891  0.1386 -0.0247
18812TIP3    H177927   0.090   3.326   3.178 -0.2610 -0.3356  4.1103
18812TIP3    H277928   0.071   3.180   3.145 -0.1213  0.6665 -1.3558
18813TIP3   OH277929   2.058   5.431   1.460  0.2654  0.2089 -0.6172
18813TIP3    H177930   2.056   5.517   1.417  0.6324 -0.6939 -2.5312
18813TIP3    H277931   1.977   5.388   1.432  1.1602 -0.9208 -1.5633
18814TIP3   OH277932   2.468   6.500   2.143  0.3340  0.5054  0.0299
18814TIP3    H177933   2.562   6.499   2.159  0.3102 -0.9532  0.2730
18814TIP3    H277934   2.453   6.574   2.084  1.5626  1.0043  0.3277
18815TIP3   OH277935   4.217   0.842   1.755 -0.4207  0.1285  0.5433
18815TIP3    H177936   4.203   0.911   1.820 -1.3654 -0.3454  0.8543
18815TIP3    H277937   4.271   0.883   1.688 -0.8797  1.1355  0.7724
18816TIP3   OH277938   2.070   6.774   4.350 -0.0160 -0.3047 -0.0170
18816TIP3    H177939   2.111   6.845   4.400  1.0672 -2.5540  2.5739
18816TIP3    H277940   2.143   6.716   4.327 -1.1782 -2.1947  0.8327
18817TIP3   OH277941   6.532   3.298   2.047 -0.5979  0.1421  0.4255
18817TIP3    H177942   6.593   3.228   2.069  0.9052  1.0421 -0.6882
18817TIP3    H277943   6.531   3.300   1.951 -2.9862 -0.3266  0.4028
18818TIP3   OH277944   3.024   5.655  13.893 -0.7229 -0.8642  0.7138
18818TIP3    H177945   2.948   5.642  13.951 -2.5736  1.6341 -0.9424
18818TIP3    H277946   3.062   5.568  13.884 -2.8645 -2.0693  2.3073
18819TIP3   OH277947   1.787   4.838   0.510 -0.1542 -0.0778 -0.3469
18819TIP3    H177948   1.770   4.790   0.591  0.9215  0.1095  0.0046
18819TIP3    H277949   1.802   4.770   0.445 -1.6423 -0.2446 -0.5624
18820TIP3   OH277950   0.629   4.875  16.693  0.1175  0.7106  0.0368
18820TIP3    H177951   0.654   4.945  16.754 -0.4222 -0.1234  1.2722
18820TIP3    H277952   0.549   4.907  16.652 -0.0990  0.8580  0.5607
18821TIP3   OH277953   2.285   0.232   2.351  0.3309  0.3624  0.3710
18821TIP3    H177954   2.273   0.295   2.280 -1.7186  1.2106  1.3698
18821TIP3    H277955   2.198   0.225   2.391  1.2392 -0.6564  2.3093
18822TIP3   OH277956   3.626   0.277  11.142  0.3938  0.1891  0.3449
18822TIP3    H177957   3.708   0.254  11.186  1.3204  0.2141 -1.2837
18822TIP3    H277958   3.613   0.207  11.078 -1.1432 -0.0748  0.9161
18823TIP3   OH277959   5.820   1.870   3.619 -0.3401  0.2005  0.4120
18823TIP3    H177960   5.753   1.827   3.567 -0.5447  1.7853 -0.7205
18823TIP3    H277961   5.792   1.962   3.621  0.8467  0.5606  1.4691
18824TIP3   OH277962   6.130   6.668  15.217 -0.1121  0.4287  0.2835
18824TIP3    H177963   6.165   6.649  15.304  0.7302  1.1029  0.1047
18824TIP3    H277964   6.185   6.616  15.157  0.9032  1.8050 -0.0338
18825TIP3   OH277965   2.648   4.252  12.346 -0.3782 -0.1478  0.2173
18825TIP3    H177966   2.714   4.220  12.408  2.2853 -0.3874 -2.4976
18825TIP3    H277967   2.620   4.174  12.298  2.0584  0.5823 -2.7189
18826TIP3   OH277968   2.904   0.525  12.854 -0.8932 -0.4236  0.1988
18826TIP3    H177969   2.826   0.521  12.909 -2.4788  3.4361 -1.3817
18826TIP3    H277970   2.870   0.533  12.765  1.4601 -1.5503 -0.8846
18827TIP3   OH277971   1.353   4.327  12.965  0.4584 -0.2365 -0.1871
18827TIP3    H177972   1.444   4.320  12.994  0.9442 -3.2658 -1.9979
18827TIP3    H277973   1.358   4.330  12.869 -1.3309  0.3402 -0.3058
18828TIP3   OH277974   4.758   2.513  10.235  0.3300  0.5404  0.1586
18828TIP3    H177975   4.678   2.550  10.198  0.4705  1.6322  0.9308
18828TIP3    H277976   4.741   2.508  10.329  1.3212  1.1664  0.3754
18829TIP3   OH277977   0.854   3.467  14.769  0.7500  0.3453 -0.1023
18829TIP3    H177978   0.935   3.457  14.720  0.3174 -1.8514 -0.4510
18829TIP3    H277979   0.861   3.406  14.842 -1.4725 -1.6844 -1.4293
18830TIP3   OH277980   4.352   4.207  13.030  0.2215 -0.0862  0.4855
18830TIP3    H177981   4.278   4.224  13.089 -1.1749  0.2352 -1.2789
18830TIP3    H277982   4.317   4.223  12.943  2.2704 -0.4047 -0.4458
18831TIP3   OH277983   1.588   5.062  15.635 -0.2300  0.1802  0.0067
18831TIP3    H177984   1.664   5.005  15.625 -0.1714  0.6231 -2.5247
18831TIP3    H277985   1.515   5.001  15.649 -0.1146 -0.5884 -2.3136
18832TIP3   OH277986   1.801   5.671  15.006  0.2784 -0.0228 -0.5045
18832TIP3    H177987   1.737   5.739  14.988 -0.7904 -1.3084 -1.7357
18832TIP3    H277988   1.758   5.614  15.070  1.5495  0.9347  1.3011
18833TIP3   OH277989   4.331   6.554  12.420 -0.1627 -0.2328  0.2526
18833TIP3    H177990   4.393   6.493  12.380  1.1270  0.4601  1.1045
18833TIP3    H277991   4.297   6.508  12.497  1.2457  0.2732  1.2257
18834TIP3   OH277992   1.670   5.105   5.789 -0.5128  0.4354  0.1247
18834TIP3    H177993   1.755   5.082   5.749  0.3001  1.0233  1.4456
18834TIP3    H277994   1.622   5.149   5.719  0.4576  0.5152 -0.5179
18835TIP3   OH277995   5.432   5.195   0.574  0.2265  0.0253  0.3185
18835TIP3    H177996   5.455   5.122   0.631 -1.4568 -1.5117 -0.8296
18835TIP3    H277997   5.504   5.256   0.582  1.6675 -1.7230  1.4179
18836TIP3   OH277998   0.474   4.910   5.036  0.5449 -0.5152 -0.3077
18836TIP3    H177999   0.515   4.852   5.100 -0.4730 -0.0227  0.8221
18836TIP3    H278000   0.468   4.994   5.081  1.5835  0.3683 -1.7547
18837TIP3   OH278001   2.854   1.413   3.322 -0.3324  0.2677 -0.5315
18837TIP3    H178002   2.831   1.322   3.342  0.7102  0.1992  0.4495
18837TIP3    H278003   2.776   1.463   3.347 -0.3144 -0.1896  0.4976
18838TIP3   OH278004   1.442   3.437  15.658  0.3527  0.2295 -0.5864
18838TIP3    H178005   1.524   3.486  15.669  0.2522  0.2443  0.1693
18838TIP3    H278006   1.375   3.495  15.694  0.3661 -0.8498  1.3243
18839TIP3   OH278007   1.400   4.473  14.516 -0.2283  0.1622 -0.4113
18839TIP3    H178008   1.395   4.386  14.478 -2.5336  0.7949 -1.7667
18839TIP3    H278009   1.430   4.529  14.445 -0.4332  0.7278 -0.0659
18840TIP3   OH278010   3.464   4.934  16.298  0.1390 -0.2271 -0.2853
18840TIP3    H178011   3.451   4.871  16.227 -1.7347  0.7364 -0.8665
18840TIP3    H278012   3.559   4.938  16.310  0.4848 -0.6823 -2.4843
18841TIP3   OH278013   0.603   5.641  17.049 -0.2311  0.4759 -0.5282
18841TIP3    H178014   0.512   5.637  17.020 -0.6189  0.9378  0.5740
18841TIP3    H278015   0.608   5.576  17.119 -0.1018  1.4752  0.4122
18842TIP3   OH278016   1.541   6.378  14.809 -0.2616 -0.0998 -0.5426
18842TIP3    H178017   1.630   6.403  14.831  0.4689 -1.8020 -1.3997
18842TIP3    H278018   1.550   6.318  14.735 -2.1555  0.0958 -0.9803
18843TIP3   OH278019   0.580   2.415  12.044  0.5044 -0.5709  0.9430
18843TIP3    H178020   0.489   2.434  12.019  0.7877 -0.5818 -0.1582
18843TIP3    H278021   0.575   2.389  12.136 -0.6136 -0.6318  0.8790
18844TIP3   OH278022   0.864   0.422   1.448 -0.6539  0.4249 -0.8680
18844TIP3    H178023   0.856   0.459   1.536  0.9444 -0.5834 -0.2564
18844TIP3    H278024   0.952   0.385   1.446  0.0583  2.0180 -3.5372
18845TIP3   OH278025   4.074   3.913  17.053 -0.0512  0.0988  0.2317
18845TIP3    H178026   4.084   4.006  17.036  1.2842 -0.2750 -1.2237
18845TIP3    H278027   4.159   3.875  17.032 -0.3968 -1.3768  1.3664
18846TIP3   OH278028   5.758   3.597  13.198 -0.0502 -0.2323 -0.2304
18846TIP3    H178029   5.698   3.663  13.233  0.5677  0.5633 -0.6378
18846TIP3    H278030   5.780   3.541  13.273  1.0370  1.2624  0.5965
18847TIP3   OH278031   6.653   1.176  13.117 -0.0945  0.1585  0.1782
18847TIP3    H178032   6.656   1.264  13.155  1.1331  2.1967 -4.0069
18847TIP3    H278033   6.743   1.145  13.120 -0.0062  0.2804 -0.7426
18848TIP3   OH278034   6.249   4.622   2.620 -0.3486  0.0916 -0.3527
18848TIP3    H178035   6.200   4.545   2.594 -0.7354  0.4914 -0.8230
18848TIP3    H278036   6.254   4.676   2.541 -0.3152  0.6702  0.0389
18849TIP3   OH278037   6.632   4.632  10.988  0.4589  0.3465  0.2493
18849TIP3    H178038   6.656   4.707  10.934 -0.1362  1.0638  0.9400
18849TIP3    H278039   6.653   4.555  10.935  0.4302  1.0183 -0.7519
18850TIP3   OH278040   0.732   6.490  13.018  0.9213  0.2226  0.1082
18850TIP3    H178041   0.657   6.431  13.026 -0.2057  1.5284 -0.5651
18850TIP3    H278042   0.751   6.492  12.925  2.3618 -0.7360  0.3480
18851TIP3   OH278043   4.385   2.760  10.820  0.3730 -0.0047 -0.7057
18851TIP3    H178044   4.315   2.708  10.781 -1.2167  1.6482 -0.2098
18851TIP3    H278045   4.407   2.714  10.901 -0.1685 -0.5196 -0.8404
18852TIP3   OH278046   2.719   5.475  14.306  0.1651  0.4164  0.6936
18852TIP3    H178047   2.638   5.450  14.352  0.7880  0.3348  1.7876
18852TIP3    H278048   2.749   5.393  14.265  0.1969  0.2194  1.1011
18853TIP3   OH278049   5.123   3.959  12.959  0.1521 -0.4124 -0.1270
18853TIP3    H178050   5.099   3.922  12.874  0.8499  0.3341 -0.6729
18853TIP3    H278051   5.154   4.048  12.939 -2.9809  1.1559  1.3131
18854TIP3   OH278052   0.395   3.521  14.820  0.1989 -0.3684 -1.0643
18854TIP3    H178053   0.386   3.428  14.800 -0.1962 -1.1494  2.1761
18854TIP3    H278054   0.317   3.543  14.871  2.5784  0.2653  2.7121
18855TIP3   OH278055   3.224   5.425   3.752  0.3141  0.4600  0.4282
18855TIP3    H178056   3.221   5.353   3.689 -2.4209 -1.3562  2.4062
18855TIP3    H278057   3.194   5.501   3.701 -0.8676 -0.7308 -0.7522
18856TIP3   OH278058   2.337   2.058  15.609 -0.2250  0.2572 -0.7410
18856TIP3    H178059   2.356   2.056  15.703  0.7508 -1.5122 -0.9198
18856TIP3    H278060   2.264   1.997  15.598 -0.9531  1.1634 -1.0357
18857TIP3   OH278061   0.508   4.776   1.890 -0.7088  0.5400  0.0377
18857TIP3    H178062   0.472   4.696   1.928  0.3926 -0.4764 -0.9791
18857TIP3    H278063   0.533   4.829   1.965 -0.3220 -0.5956  0.7322
18858TIP3   OH278064   0.677   4.018   3.440 -0.2944 -0.1525  0.1539
18858TIP3    H178065   0.619   4.094   3.437 -1.3747 -0.9680 -0.0697
18858TIP3    H278066   0.735   4.030   3.364  0.0405  0.8145  0.5455
18859TIP3   OH278067   6.464   6.592   0.980 -0.3178 -0.0895  0.2171
18859TIP3    H178068   6.545   6.632   1.010 -0.6127  0.6042  0.1199
18859TIP3    H278069   6.489   6.506   0.948  0.0720 -0.6981  2.0535
18860TIP3   OH278070   4.057   0.306   5.140 -0.2486  0.2851  0.8470
18860TIP3    H178071   4.065   0.341   5.051 -2.8540 -0.3508  0.2975
18860TIP3    H278072   4.114   0.363   5.193 -0.2194  1.9774 -0.8847
18861TIP3   OH278073   4.650   3.415   3.147 -0.3869 -1.0274 -0.3396
18861TIP3    H178074   4.580   3.358   3.117  0.1728 -1.6677 -0.4414
18861TIP3    H278075   4.726   3.358   3.158 -0.6883 -0.9849  2.9808
18862TIP3   OH278076   4.254   3.669  11.643  0.4071 -0.1241  1.1812
18862TIP3    H178077   4.253   3.688  11.737  0.6827 -1.8292  1.5544
18862TIP3    H278078   4.225   3.578  11.636  1.7317 -0.4893 -0.2653
18863TIP3   OH278079   0.282   6.720   6.522  0.3511  0.0092 -0.0723
18863TIP3    H178080   0.241   6.755   6.443  2.2362 -1.8305 -1.9826
18863TIP3    H278081   0.366   6.765   6.528  0.7570 -0.7651  0.1648
18864TIP3   OH278082   4.547   2.016  12.936 -0.5383  0.8890  0.1719
18864TIP3    H178083   4.551   2.050  13.025 -1.6035 -2.2775  1.5804
18864TIP3    H278084   4.635   1.980  12.921 -0.8677 -0.1661  0.6906
18865TIP3   OH278085   6.259   3.968  14.158  0.3632  0.1383 -0.0524
18865TIP3    H178086   6.237   4.061  14.170  0.1850 -0.0810  1.4613
18865TIP3    H278087   6.317   3.947  14.231 -1.1853 -1.4351  0.7953
18866TIP3   OH278088   6.680   3.823   5.765 -0.5819  0.3089 -0.9261
18866TIP3    H178089   6.619   3.859   5.829 -0.5074 -1.3164  0.1015
18866TIP3    H278090   6.753   3.790   5.816 -0.3905 -0.7832 -1.8535
18867TIP3   OH278091   6.219   1.563   1.400  0.1317 -0.9091 -0.1901
18867TIP3    H178092   6.251   1.522   1.480  0.4090  0.0323  0.1985
18867TIP3    H278093   6.175   1.643   1.430  0.8178 -0.2052 -1.0194
18868TIP3   OH278094   2.975   4.994   3.315 -0.5978  0.5436 -0.0021
18868TIP3    H178095   2.957   4.925   3.251 -1.0100  1.2949 -0.7125
18868TIP3    H278096   3.070   5.006   3.311 -0.8820  3.3800 -3.5474
18869TIP3   OH278097   2.471   1.836  16.089 -0.2430  0.0063  0.2481
18869TIP3    H178098   2.540   1.777  16.059 -0.0914  0.5567 -0.5153
18869TIP3    H278099   2.468   1.905  16.023 -2.3923 -0.6708 -0.4739
18870TIP3   OH278100   1.188   3.234   4.365  0.3719  0.1825  0.8168
18870TIP3    H178101   1.128   3.309   4.367 -1.1516 -0.9416 -0.6859
18870TIP3    H278102   1.273   3.273   4.340 -0.8737  1.1976 -2.3507
18871TIP3   OH278103   4.692   4.313   0.873  0.5550 -0.6243 -0.1586
18871TIP3    H178104   4.663   4.334   0.784 -1.4672  0.4114  0.6742
18871TIP3    H278105   4.703   4.218   0.873 -0.1976 -0.7292 -1.3051
18872TIP3   OH278106   0.485   4.794   4.804  0.1638 -0.0275 -0.5112
18872TIP3    H178107   0.471   4.850   4.880  0.0182 -1.5246  0.6141
18872TIP3    H278108   0.424   4.827   4.738  0.1417  1.1620  0.0735
18873TIP3   OH278109   5.753   5.944  12.969 -0.1750  0.4914 -0.1596
18873TIP3    H178110   5.706   6.014  12.923  0.3272  1.0469  0.1454
18873TIP3    H278111   5.771   5.879  12.902 -2.0315 -0.1114 -0.1323
18874TIP3   OH278112   4.619   4.888   5.132  0.1189  0.2088  0.5176
18874TIP3    H178113   4.535   4.921   5.164  0.1124  1.0936 -0.3561
18874TIP3    H278114   4.648   4.955   5.070  0.5798 -0.9902 -0.5932
18875TIP3   OH278115   6.378   3.523  15.372  0.1235  0.1933 -0.5234
18875TIP3    H178116   6.393   3.501  15.280 -0.8143  2.9674 -1.4234
18875TIP3    H278117   6.445   3.589  15.392  0.4316 -0.4936  0.8933
18876TIP3   OH278118   1.280   2.963  16.266 -0.3413  0.3679 -0.3997
18876TIP3    H178119   1.322   3.028  16.323 -1.4316  1.2125 -0.5300
18876TIP3    H278120   1.307   2.989  16.178 -0.9630  0.7868 -0.4681
18877TIP3   OH278121   3.511   2.922  15.040  0.1418 -0.4543 -0.0874
18877TIP3    H178122   3.580   2.950  15.100 -2.6387  2.2019  2.2296
18877TIP3    H278123   3.447   2.878  15.096 -1.2228 -0.5425 -1.6435
18878TIP3   OH278124   6.462   4.291  11.524  0.7788  0.6416 -0.3092
18878TIP3    H178125   6.438   4.314  11.434  1.3987  0.0926 -0.6215
18878TIP3    H278126   6.538   4.345  11.544  1.3065 -0.0129 -0.5064
18879TIP3   OH278127   1.778   1.828  17.010 -0.3438  0.0150  0.2563
18879TIP3    H178128   1.866   1.863  17.022 -0.0023 -0.6340 -0.2504
18879TIP3    H278129   1.748   1.865  16.927 -0.0872 -0.6514 -0.1469
18880TIP3   OH278130   6.540   1.481   2.301  0.3388  0.2686 -0.2748
18880TIP3    H178131   6.625   1.508   2.266  1.2003 -0.1810  1.3866
18880TIP3    H278132   6.550   1.388   2.321  0.1244  0.6212  1.7083
18881TIP3   OH278133   5.744   2.481  15.659 -0.0532  0.1157 -0.0882
18881TIP3    H178134   5.679   2.551  15.655  0.1690  0.2954 -2.9496
18881TIP3    H278135   5.826   2.525  15.680 -0.5384  0.0710  2.1705
18882TIP3   OH278136   6.229   2.107  12.811 -0.2219  0.3305  0.0304
18882TIP3    H178137   6.176   2.184  12.792  0.0709  0.4007 -0.5091
18882TIP3    H278138   6.170   2.033  12.794 -1.0650  0.4253  2.1803
18883TIP3   OH278139   4.828   5.047   3.082 -0.2128 -0.2505 -0.0959
18883TIP3    H178140   4.801   5.139   3.088 -0.6385 -0.4643  2.2743
18883TIP3    H278141   4.767   5.000   3.139  0.3372 -1.9445 -0.8284
18884TIP3   OH278142   4.766   0.322  14.964  0.4045  0.2896 -0.1412
18884TIP3    H178143   4.829   0.250  14.973  0.8021  0.8020  1.5087
18884TIP3    H278144   4.681   0.281  14.981  0.6297  0.1848  0.8003
18885TIP3   OH278145   1.884   2.471  15.563 -0.0936 -0.4661 -0.3047
18885TIP3    H178146   1.866   2.555  15.520 -1.0512 -0.7770 -0.5164
18885TIP3    H278147   1.966   2.442  15.524  0.4752  0.5614  0.0693
18886TIP3   OH278148   5.127   3.960  16.249  0.1168 -0.2317  0.7788
18886TIP3    H178149   5.111   4.030  16.186 -0.0086 -1.4840 -0.6430
18886TIP3    H278150   5.210   3.983  16.290  1.7965 -0.8208 -2.0229
18887TIP3   OH278151   5.180   1.290  11.410  0.4079 -0.2700 -0.0374
18887TIP3    H178152   5.171   1.291  11.315  0.7625 -1.2420 -0.0990
18887TIP3    H278153   5.213   1.377  11.432  1.2733 -0.3586 -0.9158
18888TIP3   OH278154   6.270   2.011   3.817  0.3559  0.5539 -0.1739
18888TIP3    H178155   6.212   1.970   3.752  0.0734  0.9642 -0.1848
18888TIP3    H278156   6.301   2.091   3.775 -0.3272  1.1456  0.4240
18889TIP3   OH278157   6.853   0.008   0.634  0.5117 -0.1017  0.3007
18889TIP3    H178158   6.852   0.010   0.538 -0.1025 -1.3859  0.2550
18889TIP3    H278159   6.830   0.097   0.661 -2.4418 -0.4577 -0.7749
18890TIP3   OH278160   6.239   4.057  14.480  0.1908 -0.1273 -0.3837
18890TIP3    H178161   6.317   4.098  14.518 -1.7531 -0.1501  4.3687
18890TIP3    H278162   6.225   3.978  14.534 -2.4021 -0.8292 -1.8970
18891TIP3   OH278163   6.182   0.763   6.162  0.1789  0.6900 -0.6441
18891TIP3    H178164   6.180   0.736   6.254  1.2190  0.0084 -0.8109
18891TIP3    H278165   6.090   0.759   6.134  0.0215 -0.5283 -0.0285
18892TIP3   OH278166   2.376   6.171  16.166  0.1081 -0.1180  0.3690
18892TIP3    H178167   2.295   6.143  16.210  1.3277 -1.1705  2.0463
18892TIP3    H278168   2.406   6.093  16.119  1.4407 -0.5054  1.8119
18893TIP3   OH278169   2.680   3.043  16.736 -0.1756  0.1698 -0.3560
18893TIP3    H178170   2.664   3.136  16.751 -0.3457 -0.0066  0.6139
18893TIP3    H278171   2.774   3.037  16.719  0.3316  0.2400  2.0840
18894TIP3   OH278172   1.646   4.992  14.757  0.0401 -0.2176 -0.0850
18894TIP3    H178173   1.639   5.050  14.681 -0.5799  1.7457  1.4093
18894TIP3    H278174   1.615   4.907  14.725 -1.7084  0.9356 -1.6155
18895TIP3   OH278175   5.270   2.207   2.888  0.2432  0.9029 -0.2187
18895TIP3    H178176   5.302   2.154   2.961 -1.4056  0.4546  0.2231
18895TIP3    H278177   5.240   2.288   2.927 -1.2981  0.3876 -0.2410
18896TIP3   OH278178   4.509   6.477   3.795  0.0547 -0.2002  0.6818
18896TIP3    H178179   4.449   6.512   3.729  1.7312 -0.4321 -1.0412
18896TIP3    H278180   4.561   6.552   3.822  0.5061 -0.4326  0.4677
18897TIP3   OH278181   3.978   4.728  16.848 -0.2287 -0.7367 -0.0966
18897TIP3    H178182   3.914   4.727  16.919  0.5157  0.3061  0.6313
18897TIP3    H278183   3.942   4.792  16.785 -1.2943 -2.2501 -1.1057
18898TIP3   OH278184   0.567   1.073   4.646 -0.3990 -0.2362  0.0296
18898TIP3    H178185   0.546   0.981   4.631  1.0068 -0.5511 -0.1444
18898TIP3    H278186   0.641   1.071   4.707  0.6516  0.7004 -1.1578
18899TIP3   OH278187   2.608   2.569  16.652 -0.2229  0.5401  0.5486
18899TIP3    H178188   2.532   2.620  16.625 -1.2959  0.2585  2.7764
18899TIP3    H278189   2.586   2.479  16.630 -0.2498  0.5398  0.5751
18900TIP3   OH278190   5.972   1.217   1.346 -0.7040  0.0323  0.1573
18900TIP3    H178191   5.961   1.312   1.347 -0.4793  0.0651 -0.1571
18900TIP3    H278192   5.973   1.192   1.438  2.4264  0.7293  0.4380
18901TIP3   OH278193   4.466   6.239   5.308  0.3883 -0.3458  0.1338
18901TIP3    H178194   4.432   6.313   5.257  1.4116  0.7866  1.0635
18901TIP3    H278195   4.473   6.168   5.244  1.4958  0.9838 -1.3096
18902TIP3   OH278196   2.798   4.171  16.334  0.3202  0.2102  0.0444
18902TIP3    H178197   2.828   4.258  16.363 -0.3612  0.4593  0.0054
18902TIP3    H278198   2.716   4.157  16.381  1.3008 -1.2038  1.4636
18903TIP3   OH278199   6.588   3.578   0.712  0.3341 -0.2640  0.1475
18903TIP3    H178200   6.509   3.628   0.695  0.3341 -0.5847 -0.8936
18903TIP3    H278201   6.559   3.487   0.716  0.6188 -0.3685 -0.0858
18904TIP3   OH278202   6.593   1.539   4.099  0.4760 -0.5892 -0.1366
18904TIP3    H178203   6.563   1.551   4.008  0.8780  0.3871 -0.1554
18904TIP3    H278204   6.563   1.451   4.123 -0.5050 -0.4745 -0.8795
18905TIP3   OH278205   0.793   0.757   5.157 -0.4790  0.0289  0.3768
18905TIP3    H178206   0.750   0.793   5.079  1.4626  1.5716 -0.0564
18905TIP3    H278207   0.797   0.663   5.140 -0.3634  0.2925 -1.2868
18906TIP3   OH278208   2.442   0.673  13.049  0.2123 -0.1367  0.0016
18906TIP3    H178209   2.407   0.761  13.065  0.8270  0.1322 -0.0797
18906TIP3    H278210   2.430   0.627  13.132  0.6003  0.2772  0.2934
18907TIP3   OH278211   0.160   4.099  13.872 -0.0768 -0.2799 -0.1474
18907TIP3    H178212   0.218   4.065  13.940 -0.7172 -2.4929 -0.6189
18907TIP3    H278213   0.208   4.172  13.833  2.6850 -2.3581 -0.9018
18908TIP3   OH278214   1.445   1.834   5.155 -0.4745 -0.4493 -0.9317
18908TIP3    H178215   1.526   1.814   5.108  0.2778 -0.4629  0.3482
18908TIP3    H278216   1.461   1.806   5.245 -1.8043 -0.2004 -0.5929
18909TIP3   OH278217   2.034   3.495  16.004  0.0214  0.8377  0.0517
18909TIP3    H178218   2.128   3.483  15.995 -0.0319 -0.0678  0.5721
18909TIP3    H278219   2.024   3.564  16.068  0.3807 -2.0376  3.5288
18910TIP3   OH278220   4.571   0.284  13.284 -0.1308  0.8307  0.1086
18910TIP3    H178221   4.506   0.298  13.353 -0.4815 -1.1367  0.2349
18910TIP3    H278222   4.519   0.256  13.208  0.4711  0.0980 -0.0446
18911TIP3   OH278223   0.709   5.608   1.167 -0.5071 -0.3612  0.3894
18911TIP3    H178224   0.630   5.590   1.218 -0.4977  0.3324  0.6505
18911TIP3    H278225   0.758   5.525   1.170 -1.2424 -0.8154  0.1732
18912TIP3   OH278226   3.451   4.512  16.827 -1.0243  0.0816 -0.5904
18912TIP3    H178227   3.503   4.446  16.780 -0.7907  1.6581 -2.6772
18912TIP3    H278228   3.374   4.524  16.773 -2.3890 -0.3596  1.1641
18913TIP3   OH278229   5.487   0.523  14.557  0.3796 -0.0226  0.0379
18913TIP3    H178230   5.530   0.581  14.494  1.3340  1.5815  2.0704
18913TIP3    H278231   5.547   0.518  14.631 -1.5287 -0.2544  1.6668
18914TIP3   OH278232   4.524   2.407  16.584 -0.0536  0.0134  0.9453
18914TIP3    H178233   4.566   2.321  16.588  1.9725  0.8877  0.3064
18914TIP3    H278234   4.458   2.399  16.516  0.1839 -1.0094  0.8161
18915TIP3   OH278235   6.346   1.467   1.632 -0.7382 -0.0381  0.0024
18915TIP3    H178236   6.347   1.406   1.706  0.0750 -0.2814 -0.1991
18915TIP3    H278237   6.422   1.524   1.647 -0.4132 -0.2569 -0.7725
18916TIP3   OH278238   4.465   6.339   2.343  0.1780  0.2008 -0.0183
18916TIP3    H178239   4.421   6.291   2.273  1.6947 -1.2890 -0.0173
18916TIP3    H278240   4.477   6.274   2.412  2.8647  0.3378 -0.2667
18917TIP3   OH278241   6.365   6.484  16.446 -0.2557 -0.3365 -0.1946
18917TIP3    H178242   6.329   6.521  16.527 -0.5397  1.8916 -1.2758
18917TIP3    H278243   6.326   6.397  16.440 -1.6554  0.1531  1.1392
18918TIP3   OH278244   0.521   1.088   5.514  0.7237 -0.2054  0.3124
18918TIP3    H178245   0.456   1.041   5.566 -0.2585  0.1575 -0.5272
18918TIP3    H278246   0.580   1.020   5.481 -0.2953 -0.7956 -0.3635
18919TIP3   OH278247   4.310   0.172  12.283 -0.0203  0.2853  0.4242
18919TIP3    H178248   4.395   0.130  12.294 -0.3757 -0.2219  1.3454
18919TIP3    H278249   4.258   0.108  12.234 -0.8109 -0.7619  2.5073
18920TIP3   OH278250   5.748   3.796   2.302  0.0180 -0.0630 -0.1624
18920TIP3    H178251   5.742   3.720   2.244 -1.0334 -0.1610  0.0624
18920TIP3    H278252   5.721   3.870   2.248 -3.6642 -0.4906  0.8164
18921TIP3   OH278253   0.943   5.390  13.066 -0.3184  0.3028  0.0283
18921TIP3    H178254   0.981   5.478  13.072  0.3646  0.0651 -0.6499
18921TIP3    H278255   1.019   5.331  13.070 -0.5102 -0.1598 -2.1969
18922TIP3   OH278256   2.341   0.512   2.509 -0.0902  0.3398  0.4332
18922TIP3    H178257   2.307   0.426   2.535  0.5740  0.4117  1.6386
18922TIP3    H278258   2.434   0.509   2.534  1.1962 -0.2482 -3.6741
18923TIP3   OH278259   2.082   1.533   2.432 -0.4243 -0.1848 -0.1362
18923TIP3    H178260   2.100   1.439   2.424 -0.4104 -0.3338  1.3393
18923TIP3    H278261   2.014   1.539   2.499 -1.5279  0.7757 -1.3080
18924TIP3   OH278262   1.330   1.884  13.378  0.1149  0.1872  0.5185
18924TIP3    H178263   1.303   1.918  13.293  1.4883 -0.3185 -0.1544
18924TIP3    H278264   1.257   1.828  13.405 -0.0272 -0.2651 -0.7053
18925TIP3   OH278265   6.416   5.412   6.122  0.1819 -0.4926  0.5327
18925TIP3    H178266   6.421   5.316   6.127  0.5517 -0.7083 -2.2566
18925TIP3    H278267   6.488   5.442   6.176  2.9054 -2.0381 -1.9162
18926TIP3   OH278268   5.488   5.675  13.573 -0.4233  0.1007 -0.4345
18926TIP3    H178269   5.574   5.718  13.569 -0.4281  0.1054 -3.9212
18926TIP3    H278270   5.427   5.741  13.541 -1.6376 -0.2236  1.0991
18927TIP3   OH278271   1.215   2.951  13.480  0.0262 -0.3839 -0.2506
18927TIP3    H178272   1.215   2.864  13.520  1.6136 -0.4528 -0.3252
18927TIP3    H278273   1.225   2.935  13.386 -0.3401 -0.1379 -0.3337
18928TIP3   OH278274   4.492   3.449   2.367 -0.0683  0.0203 -0.0595
18928TIP3    H178275   4.506   3.543   2.357 -0.2189 -0.1021 -1.7268
18928TIP3    H278276   4.547   3.409   2.299 -1.4360 -0.9855 -0.6114
18929TIP3   OH278277   3.248   0.797  15.636  0.0628 -0.3432 -0.4053
18929TIP3    H178278   3.224   0.794  15.728  0.1496 -1.1335 -0.4092
18929TIP3    H278279   3.168   0.825  15.591 -0.1366 -0.5020 -0.1509
18930TIP3   OH278280   5.084   2.106  16.090 -0.4925 -0.4498  0.1027
18930TIP3    H178281   5.101   2.117  16.184  0.2970 -0.9535  0.0308
18930TIP3    H278282   5.158   2.150  16.047 -0.9382 -0.0762 -0.2868
18931TIP3   OH278283   6.479   5.479   1.924  0.3964  0.2651 -0.6025
18931TIP3    H178284   6.528   5.402   1.894  1.5775  0.1366  1.4665
18931TIP3    H278285   6.528   5.510   2.001 -2.5353  0.3974  1.3400
18932TIP3   OH278286   0.792   4.847  12.370 -0.0593  0.1642  0.2208
18932TIP3    H178287   0.832   4.900  12.302  0.1647 -0.7637 -0.3894
18932TIP3    H278288   0.703   4.882  12.378  0.9237  2.4977  1.8771
18933TIP3   OH278289   2.205   4.959   5.533  0.4843  0.2914 -0.5343
18933TIP3    H178290   2.181   4.928   5.620 -1.2253  1.1537 -0.6583
18933TIP3    H278291   2.299   4.942   5.527  0.6190  0.0698  1.4069
18934TIP3   OH278292   0.925   4.969   2.343 -0.1549 -0.0035 -0.0549
18934TIP3    H178293   0.977   5.040   2.382 -1.0021  0.0332  1.0568
18934TIP3    H278294   0.990   4.913   2.301  0.5915  1.0930 -0.4186
18935TIP3   OH278295   0.232   6.799  15.060  0.5855  0.0479  0.1609
18935TIP3    H178296   0.237   6.740  14.985  0.3052  0.6349 -0.3248
18935TIP3    H278297   0.165   6.760  15.116 -0.5320  0.5682 -0.7673
18936TIP3   OH278298   0.863   0.238  14.370  0.1470  0.2476 -0.3118
18936TIP3    H178299   0.905   0.186  14.301  0.4911  1.2156 -0.8549
18936TIP3    H278300   0.898   0.327  14.358 -0.6157  0.6668  0.4360
18937TIP3   OH278301   4.907   1.351  15.375  0.0951  0.3308  0.2656
18937TIP3    H178302   4.840   1.367  15.309 -3.0171 -0.8957  2.9065
18937TIP3    H278303   4.916   1.256  15.378  0.3769  0.3763  1.4137
18938TIP3   OH278304   6.652   0.448  13.453 -0.2797  0.2285 -1.0379
18938TIP3    H178305   6.678   0.367  13.408 -2.1001 -0.3093 -1.2067
18938TIP3    H278306   6.656   0.426  13.546 -0.5909  0.0022 -1.0775
18939TIP3   OH278307   1.139   2.465  13.974  0.3675 -0.4284 -0.0472
18939TIP3    H178308   1.159   2.474  14.067 -5.8753  2.6140  1.5448
18939TIP3    H278309   1.170   2.546  13.935  2.0859 -1.2714 -0.5196
18940TIP3   OH278310   2.009   2.454  16.848  0.1827 -0.4759  0.4416
18940TIP3    H178311   2.084   2.450  16.789  0.1616 -3.3408  0.4999
18940TIP3    H278312   1.935   2.479  16.793  0.7427  0.0606 -0.0748
18941TIP3   OH278313   4.921   6.620  15.201  0.2597  0.3224  0.3728
18941TIP3    H178314   4.896   6.629  15.293 -1.8357 -1.3541  0.0500
18941TIP3    H278315   4.962   6.533  15.196 -0.4854  0.0110 -0.4284
18942TIP3   OH278316   2.464   6.684  13.320 -0.1577 -0.4289 -0.0338
18942TIP3    H178317   2.372   6.674  13.297 -0.1589  0.0275 -0.2394
18942TIP3    H278318   2.507   6.606  13.284 -0.3125 -0.1873 -0.7517
18943TIP3   OH278319   5.519   2.178   3.315  0.4574  0.0849 -0.0528
18943TIP3    H178320   5.587   2.114   3.295 -1.6908 -2.5056  0.3226
18943TIP3    H278321   5.445   2.152   3.260 -1.5566  0.2368  2.4122
18944TIP3   OH278322   1.628   5.578   2.142 -0.3871 -0.0139  0.4814
18944TIP3    H178323   1.576   5.655   2.165 -1.6654 -0.8028  0.3828
18944TIP3    H278324   1.583   5.505   2.185  0.1291 -0.8440 -0.3334
18945TIP3   OH278325   3.031   6.111   3.000  0.0286 -0.1787  0.0160
18945TIP3    H178326   2.958   6.104   3.062  0.5625 -0.5720  0.6201
18945TIP3    H278327   2.990   6.107   2.914 -0.7227  0.2990  0.3463
18946TIP3   OH278328   0.959   6.832  16.694 -0.1293 -0.0347  0.6698
18946TIP3    H178329   0.956   6.742  16.662  3.3946  0.1956 -0.6648
18946TIP3    H278330   0.996   6.826  16.782 -0.9485  0.0740  1.0360
18947TIP3   OH278331   5.464   2.211   5.001 -0.5209  0.5926 -0.4607
18947TIP3    H178332   5.552   2.180   5.022 -0.5553  0.6205 -0.2737
18947TIP3    H278333   5.460   2.300   5.037 -0.3792  0.8680 -1.1102
18948TIP3   OH278334   2.384   0.494   2.993 -0.0986 -0.1728 -0.9669
18948TIP3    H178335   2.410   0.520   3.081 -0.7017 -0.9985 -0.5348
18948TIP3    H278336   2.466   0.491   2.944  0.4231 -1.0301 -0.0808
18949TIP3   OH278337   5.396   3.952  11.062  0.3382  0.2074 -0.7913
18949TIP3    H178338   5.404   3.921  10.972  2.0868  0.5572 -0.7925
18949TIP3    H278339   5.443   3.886  11.115  1.4117  1.2064 -0.4484
18950TIP3   OH278340   4.257   6.192  14.301 -0.2401 -0.2779 -0.2864
18950TIP3    H178341   4.319   6.134  14.346  0.1941 -1.5668 -2.4306
18950TIP3    H278342   4.222   6.139  14.229 -0.1506  1.9794 -2.1049
18951TIP3   OH278343   6.172   4.924   5.833  0.0477  0.3128  0.3546
18951TIP3    H178344   6.153   5.008   5.792  0.1460  1.3235  2.2337
18951TIP3    H278345   6.233   4.946   5.904  0.9861 -1.5285  0.1662
18952TIP3   OH278346   1.719   6.616  13.766 -0.0803  0.0231  0.2440
18952TIP3    H178347   1.710   6.589  13.675 -0.0428  1.5086 -0.2290
18952TIP3    H278348   1.630   6.609  13.802 -0.5698  1.5442 -0.5612
18953TIP3   OH278349   2.731   4.733   4.431  0.2806 -0.0796  0.8585
18953TIP3    H178350   2.636   4.726   4.440  0.1476  0.0014 -0.4337
18953TIP3    H278351   2.760   4.767   4.516 -0.7822 -0.5326  1.4255
18954TIP3   OH278352   3.028   0.502   1.868  0.1617 -0.3373 -0.5258
18954TIP3    H178353   3.008   0.591   1.897 -0.5281 -0.4608 -0.5908
18954TIP3    H278354   2.944   0.456   1.874  0.8224 -1.4529  1.1669
18955TIP3   OH278355   6.079   4.991   3.669 -0.8252  0.2531 -0.3350
18955TIP3    H178356   6.053   4.903   3.643  0.7315  0.1395 -1.6697
18955TIP3    H278357   6.150   4.977   3.732  0.7950  0.4740 -2.0126
18956TIP3   OH278358   6.557   6.216  17.029 -0.5105 -0.9960  0.2825
18956TIP3    H178359   6.643   6.175  17.017 -0.1603 -0.1992  0.0394
18956TIP3    H278360   6.546   6.221  17.124 -0.2610 -1.0385  0.3141
18957TIP3   OH278361   3.002   0.295  16.543 -0.3463  0.2093 -0.7818
18957TIP3    H178362   3.051   0.238  16.602 -0.3409  0.8534 -0.1451
18957TIP3    H278363   3.035   0.382  16.561 -2.1374  0.7624  0.1451
18958TIP3   OH278364   6.794   0.789   0.109  0.0168  0.4588 -1.0740
18958TIP3    H178365   6.769   0.854   0.174  1.9207 -0.1960  0.4086
18958TIP3    H278366   6.724   0.724   0.110 -0.5401  1.0579 -0.5592
18959TIP3   OH278367   1.275   1.762  10.563 -0.1857 -0.3497 -0.5390
18959TIP3    H178368   1.258   1.856  10.555 -0.8111 -0.5651 -2.1172
18959TIP3    H278369   1.329   1.742  10.486  0.6747 -1.1331  0.2526
18960TIP3   OH278370   4.870   2.343  10.677 -0.0802  0.5896 -0.0575
18960TIP3    H178371   4.881   2.426  10.630  0.3090  0.8491  0.4801
18960TIP3    H278372   4.860   2.277  10.608  1.4219  0.8338 -0.5407
18961TIP3   OH278373   3.532   5.826  10.670  0.1908  0.0861 -0.0132
18961TIP3    H178374   3.489   5.815  10.585  1.0469 -1.1278 -0.3104
18961TIP3    H278375   3.618   5.863  10.649  0.4704 -0.3768  0.3050
18962TIP3   OH278376   4.005   2.406  12.362 -0.0066 -0.1420 -0.7506
18962TIP3    H178377   4.001   2.329  12.419 -1.1269  1.3315  1.2884
18962TIP3    H278378   4.044   2.474  12.417  1.1769  0.7338 -2.5833
18963TIP3   OH278379   6.104   2.629   2.287 -0.0757  0.3097  0.2372
18963TIP3    H178380   6.088   2.543   2.326  0.9413  0.2776  0.6086
18963TIP3    H278381   6.117   2.611   2.194  2.5993 -0.2902  0.6584
18964TIP3   OH278382   2.297   3.583  16.119  0.0892 -0.3295  0.4741
18964TIP3    H178383   2.365   3.582  16.186  1.4600 -0.9590 -0.8649
18964TIP3    H278384   2.305   3.669  16.078  0.1092 -0.4172  0.2925
18965TIP3   OH278385   3.021   5.674   0.406  0.4219  0.3358 -0.3539
18965TIP3    H178386   3.088   5.621   0.449  0.6174  0.1454 -0.8728
18965TIP3    H278387   2.955   5.689   0.473  1.2971  1.0862  0.3607
18966TIP3   OH278388   4.615   5.552  11.060 -0.0812  0.1165  0.1590
18966TIP3    H178389   4.644   5.558  10.969 -0.5796 -0.6837 -0.0574
18966TIP3    H278390   4.612   5.643  11.089 -1.3129  0.5004 -1.0756
18967TIP3   OH278391   2.518   5.308   3.254 -0.0161  0.7809 -0.4899
18967TIP3    H178392   2.471   5.344   3.179  0.5099  0.4840 -0.9671
18967TIP3    H278393   2.610   5.331   3.239 -0.0662  1.9504  0.7695
18968TIP3   OH278394   1.698   0.715   1.131 -0.8820 -0.3330  0.5337
18968TIP3    H178395   1.629   0.733   1.066 -0.7221 -1.4658  0.0166
18968TIP3    H278396   1.652   0.678   1.206 -0.8905 -0.6342  0.3807
18969TIP3   OH278397   4.937   0.657  13.708 -0.2433  0.2723  0.4525
18969TIP3    H178398   4.952   0.742  13.749 -0.0349  0.5665 -0.2258
18969TIP3    H278399   4.842   0.646  13.707 -0.3299  1.0485 -0.5671
18970TIP3   OH278400   4.799   5.723  10.476 -0.0270 -0.0838  0.1781
18970TIP3    H178401   4.827   5.663  10.545 -1.2001 -2.3328 -1.1683
18970TIP3    H278402   4.772   5.802  10.523  0.9531 -0.8202  2.1171
18971TIP3   OH278403   5.193   1.683   0.797  0.4542  0.9436  0.1232
18971TIP3    H178404   5.261   1.722   0.851 -0.6200  0.4829  1.8789
18971TIP3    H278405   5.118   1.673   0.856 -0.4742 -0.4257 -1.2179
18972TIP3   OH278406   6.435   2.324  16.668  0.1615 -0.0337 -0.3104
18972TIP3    H178407   6.418   2.320  16.762 -1.2400  2.7078 -0.3179
18972TIP3    H278408   6.348   2.338  16.630  0.5105 -2.4369 -2.2140
18973TIP3   OH278409   5.508   3.014   4.490 -0.2263  0.5035  0.1883
18973TIP3    H178410   5.414   3.008   4.473 -0.5470  1.4418  1.5135
18973TIP3    H278411   5.518   3.090   4.546  1.0918 -0.7459  1.7669
18974TIP3   OH278412   4.452   2.287  11.051 -0.4186 -0.3165 -0.1832
18974TIP3    H178413   4.376   2.340  11.074  0.4685  0.1761  1.8658
18974TIP3    H278414   4.462   2.298  10.956 -0.9612  2.2635 -0.0088
18975TIP3   OH278415   1.389   1.613  16.005  0.1152  0.0721 -0.5070
18975TIP3    H178416   1.317   1.552  16.017 -0.3198  0.4642 -1.0565
18975TIP3    H278417   1.379   1.645  15.915 -0.5472  2.0262  0.1989
18976TIP3   OH278418   5.341   6.364   5.634  0.3642 -0.1895 -0.6072
18976TIP3    H178419   5.407   6.380   5.701 -0.0149 -0.5770 -0.1291
18976TIP3    H278420   5.351   6.272   5.611  1.2538  0.2206 -1.9347
18977TIP3   OH278421   2.848   1.576  12.262  0.4899 -0.1227  0.2875
18977TIP3    H178422   2.905   1.545  12.333  0.4591 -1.4809 -0.2540
18977TIP3    H278423   2.760   1.547  12.288  0.3398  0.1810  0.1290
18978TIP3   OH278424   5.287   1.765  11.533  0.5594  0.2097  0.4612
18978TIP3    H178425   5.227   1.699  11.500  0.9449 -0.0737  0.3118
18978TIP3    H278426   5.352   1.715  11.582  1.1629  0.4096 -0.1122
18979TIP3   OH278427   5.410   4.663  13.747 -0.5864 -0.3653  0.3041
18979TIP3    H178428   5.481   4.727  13.743 -1.7239  0.9391  0.5886
18979TIP3    H278429   5.395   4.649  13.841 -1.9193  0.7736  0.2854
18980TIP3   OH278430   4.662   5.651  13.988 -0.2803 -0.3153  0.3817
18980TIP3    H178431   4.716   5.576  13.963 -0.6703  0.3793 -3.2157
18980TIP3    H278432   4.723   5.724  13.996 -0.3751  0.5337 -3.9517
18981TIP3   OH278433   0.644   6.846   1.092 -0.0005  0.1886 -0.2023
18981TIP3    H178434   0.709   6.908   1.123 -1.6726  0.7498  2.5608
18981TIP3    H278435   0.695   6.770   1.063  2.0188  2.2430 -2.4805
18982TIP3   OH278436   3.378   3.154  14.566  0.3610  0.2538  0.1722
18982TIP3    H178437   3.287   3.146  14.593  0.6572  0.6486  1.3601
18982TIP3    H278438   3.397   3.247  14.574  1.0166  0.1017  0.4704
18983TIP3   OH278439   4.129   4.335   1.868 -0.3535  0.2192 -0.1702
18983TIP3    H178440   4.148   4.368   1.780  0.3889  0.8072  0.2038
18983TIP3    H278441   4.212   4.301   1.900 -0.1172  1.8276  1.0622
18984TIP3   OH278442   4.387   1.663   4.798  0.2069  0.1587  0.5519
18984TIP3    H178443   4.456   1.679   4.733 -0.8740  2.5171 -0.1286
18984TIP3    H278444   4.368   1.570   4.790  0.5636  0.2298 -2.1150
18985TIP3   OH278445   5.772   6.299  12.103  0.4150  0.3652  0.1868
18985TIP3    H178446   5.761   6.263  12.015 -0.8926 -0.1591  0.5313
18985TIP3    H278447   5.699   6.361  12.112  0.7572  0.6881  0.7629
18986TIP3   OH278448   5.079   1.524  11.685 -0.3077  0.0424 -0.5935
18986TIP3    H178449   5.054   1.519  11.592  1.3079  1.0793 -1.1232
18986TIP3    H278450   5.068   1.616  11.708 -0.2143 -0.1155  0.0986
18987TIP3   OH278451   4.413   5.523  10.816  0.1647 -0.3249 -0.7510
18987TIP3    H178452   4.508   5.522  10.803  0.3362  2.3576 -0.3822
18987TIP3    H278453   4.401   5.557  10.905 -1.1145  1.7424 -1.6415
18988TIP3   OH278454   3.778   2.776  12.093 -0.4896 -0.2716  0.5883
18988TIP3    H178455   3.683   2.767  12.089 -0.8068  2.6197 -0.1599
18988TIP3    H278456   3.807   2.775  12.002  0.2513 -1.2223  0.8108
18989TIP3   OH278457   5.507   5.945  15.418 -0.2271  0.0076  0.2335
18989TIP3    H178458   5.564   5.873  15.391 -1.9645 -1.3879  0.0293
18989TIP3    H278459   5.466   5.975  15.337  1.7127  2.4390  0.0686
18990TIP3   OH278460   4.892   5.191  13.954  0.1423  0.6879 -0.2354
18990TIP3    H178461   4.985   5.208  13.968 -0.2563  1.1899  2.5850
18990TIP3    H278462   4.887   5.152  13.867  2.9527  0.7768 -0.5365
18991TIP3   OH278463   4.791   3.888  17.074  0.8575  0.6530  0.3179
18991TIP3    H178464   4.732   3.828  17.028  2.2744 -0.4504 -0.0977
18991TIP3    H278465   4.807   3.958  17.011  1.7024 -0.1547 -0.3773
18992TIP3   OH278466   2.902   2.187   1.602 -0.1531  0.7707  0.0160
18992TIP3    H178467   2.932   2.177   1.692 -1.1256 -0.1336  0.2697
18992TIP3    H278468   2.910   2.280   1.584  1.5265  0.7562  0.4878
18993TIP3   OH278469   1.445   0.640   2.388 -0.3515 -0.0412 -0.2210
18993TIP3    H178470   1.441   0.705   2.458  1.2197 -0.2347  0.0846
18993TIP3    H278471   1.371   0.661   2.331 -0.3821  1.4639  0.3429
18994TIP3   OH278472   4.127   2.029  12.095 -0.3513 -0.1562 -0.1716
18994TIP3    H178473   4.064   2.034  12.022 -1.3815  1.4080  0.7638
18994TIP3    H278474   4.160   1.940  12.091 -1.7771 -0.6854 -1.4294
18995TIP3   OH278475   3.093   3.707  16.466  0.0780 -0.2075  0.2004
18995TIP3    H178476   3.064   3.728  16.554  3.8154  0.3058  1.4738
18995TIP3    H278477   3.100   3.611  16.465  1.6277 -0.1321  1.1058
18996TIP3   OH278478   1.467   6.435   1.411 -0.3103 -0.1843 -0.3376
18996TIP3    H178479   1.561   6.426   1.425 -0.1735  1.5246  0.0841
18996TIP3    H278480   1.428   6.387   1.484  0.2034 -1.4293 -0.8568
18997TIP3   OH278481   1.418   0.227  16.723 -0.2319 -0.1527  0.2037
18997TIP3    H178482   1.429   0.215  16.628 -1.5979 -0.6253  0.0857
18997TIP3    H278483   1.334   0.272  16.732 -0.6575 -1.0931  1.2267
18998TIP3   OH278484   0.757   3.366  11.945 -0.4314  0.0476 -0.2754
18998TIP3    H178485   0.804   3.284  11.956  1.3024  0.5713 -2.8924
18998TIP3    H278486   0.815   3.432  11.983 -0.5005  0.3683 -0.7254
18999TIP3   OH278487   3.498   6.271   6.133  0.1816 -0.2628  0.1319
18999TIP3    H178488   3.504   6.219   6.052 -2.8959 -1.0989  0.2907
18999TIP3    H278489   3.428   6.334   6.115  1.2934  1.3601  1.2580
19000TIP3   OH278490   6.817   0.128  15.813 -0.1824 -0.0572 -0.0043
19000TIP3    H178491   6.747   0.099  15.871 -0.0010  1.1194  0.8313
19000TIP3    H278492   6.797   0.085  15.729  0.6685 -3.4192  1.3605
19001TIP3   OH278493   0.367   5.334  11.069 -0.7304  0.1447  0.0645
19001TIP3    H178494   0.346   5.328  10.976 -0.9783  1.9117 -0.0395
19001TIP3    H278495   0.344   5.249  11.106 -1.6389 -0.2086 -1.2946
19002TIP3   OH278496   0.345   0.582   0.762 -0.5469 -0.0636 -0.1324
19002TIP3    H178497   0.297   0.663   0.741  0.9059  1.0886  0.7751
19002TIP3    H278498   0.421   0.585   0.703 -0.7321 -1.0411 -0.4322
19003TIP3   OH278499   1.797   4.936   4.272  0.0113  0.1721 -0.9821
19003TIP3    H178500   1.776   4.898   4.187  1.7726 -0.9674 -0.9576
19003TIP3    H278501   1.892   4.947   4.270  0.0396  0.4614  0.7053
19004TIP3   OH278502   3.663   2.127  16.117  0.2452  0.5258  0.5629
19004TIP3    H178503   3.634   2.194  16.054  0.3965  0.1573  0.1017
19004TIP3    H278504   3.597   2.131  16.187 -2.0459 -1.5346 -1.2909
19005TIP3   OH278505   4.974   1.741   4.743 -0.1721  0.4145  0.4942
19005TIP3    H178506   4.930   1.686   4.679  0.2483  1.5402 -0.8088
19005TIP3    H278507   4.908   1.758   4.811 -0.5602 -0.9466  0.4813
19006TIP3   OH278508   4.491   0.276   6.072 -0.4056 -0.6112 -0.0287
19006TIP3    H178509   4.428   0.325   6.020  0.4709  0.7057  0.1032
19006TIP3    H278510   4.559   0.250   6.010  0.7056  1.0690  0.4352
19007TIP3   OH278511   3.126   0.764   6.402 -0.2026 -0.6144 -0.3773
19007TIP3    H178512   3.183   0.706   6.452  2.1716  0.9827 -1.0809
19007TIP3    H278513   3.046   0.769   6.454  1.5787 -0.1834  2.5315
19008TIP3   OH278514   5.024   0.882  15.855 -0.1826  0.5716  0.3276
19008TIP3    H178515   5.072   0.962  15.874  1.3516 -0.3583  0.5890
19008TIP3    H278516   5.080   0.834  15.793 -0.6148 -0.6896  0.8635
19009TIP3   OH278517   4.302   4.780   3.172 -0.7024 -0.7660  0.3509
19009TIP3    H178518   4.322   4.687   3.162 -0.9941 -1.0184  1.9543
19009TIP3    H278519   4.382   4.825   3.142 -0.2382 -1.5511  0.3964
19010TIP3   OH278520   4.255   0.663  14.078  0.2736  0.2541  0.3173
19010TIP3    H178521   4.186   0.718  14.041  1.1970  1.1536 -0.1046
19010TIP3    H278522   4.294   0.716  14.147  1.6064  0.4269 -0.5318
19011TIP3   OH278523   3.879   2.459  16.634 -0.7043 -0.1612 -0.1082
19011TIP3    H178524   3.843   2.546  16.644 -1.0679 -0.3083 -0.1280
19011TIP3    H278525   3.804   2.404  16.611 -0.7073 -0.7016  1.1224
19012TIP3   OH278526   4.355   5.691   4.247 -0.0431  0.2302 -0.0340
19012TIP3    H178527   4.420   5.651   4.305 -0.4084  0.5834  0.6392
19012TIP3    H278528   4.313   5.757   4.302  0.2329  1.2212 -0.9718
19013TIP3   OH278529   2.288   0.174  12.434  0.0158  0.4724 -0.2342
19013TIP3    H178530   2.225   0.150  12.503  3.1646 -2.1342  2.0910
19013TIP3    H278531   2.293   0.269  12.438 -2.1593  0.6103  0.9438
19014TIP3   OH278532   1.777   1.672  16.125 -0.2894  0.2337  0.1330
19014TIP3    H178533   1.761   1.739  16.059  1.6305 -0.2257 -0.8827
19014TIP3    H278534   1.839   1.712  16.185  0.1372 -0.2904  0.0520
19015TIP3   OH278535   1.987   6.331   5.704 -1.0713 -0.0044  0.3123
19015TIP3    H178536   2.023   6.244   5.719 -0.2050  0.5108  1.3641
19015TIP3    H278537   1.907   6.334   5.757 -2.1573 -0.7833 -1.2037
19016TIP3   OH278538   6.256   6.715   1.502  0.3950  0.8686  0.2408
19016TIP3    H178539   6.180   6.773   1.493 -0.5587 -0.5121 -1.0558
19016TIP3    H278540   6.329   6.774   1.521 -0.8195  2.3213  0.5706
19017TIP3   OH278541   5.249   1.036  13.236  0.7794  0.1728 -0.0571
19017TIP3    H178542   5.173   1.007  13.184 -0.3430  1.5920  0.7162
19017TIP3    H278543   5.322   0.985  13.201 -0.9330 -3.4063  1.0320
19018TIP3   OH278544   0.775   5.690  14.493 -0.0212  0.5182 -0.3939
19018TIP3    H178545   0.781   5.758  14.561  0.9313  0.5382 -0.4795
19018TIP3    H278546   0.863   5.653  14.489 -0.4925 -0.6305 -0.4536
19019TIP3   OH278547   1.885   6.584   0.770  0.6762  0.2141  0.0871
19019TIP3    H178548   1.885   6.677   0.748  2.6971  0.0623 -0.8547
19019TIP3    H278549   1.794   6.562   0.787  0.2267  2.4847  0.8892
19020TIP3   OH278550   1.830   5.616   4.631 -0.0952  0.2950 -0.6464
19020TIP3    H178551   1.809   5.583   4.543  1.7623 -0.5996 -0.8158
19020TIP3    H278552   1.745   5.636   4.670 -1.0629 -0.7898 -2.0731
19021TIP3   OH278553   3.054   5.173  14.934 -0.1633  0.1217  0.1848
19021TIP3    H178554   3.122   5.191  14.999  1.1208  1.9526 -1.5522
19021TIP3    H278555   3.057   5.079  14.921  0.5837 -0.0856  1.6488
19022TIP3   OH278556   2.417   0.637   1.733 -0.3476 -0.2506 -0.2720
19022TIP3    H178557   2.452   0.584   1.661 -1.6997  0.3486 -1.4242
19022TIP3    H278558   2.489   0.643   1.796  1.1981 -0.0438 -1.9725
19023TIP3   OH278559   0.858   0.544  13.189 -0.5510 -0.2741 -0.3792
19023TIP3    H178560   0.785   0.530  13.128 -1.5037 -1.6365  0.9861
19023TIP3    H278561   0.818   0.589  13.264  0.3766  0.4263 -0.2871
19024TIP3   OH278562   5.445   5.800  14.722  0.2538  0.3249 -0.2122
19024TIP3    H178563   5.445   5.706  14.739 -1.2337  0.2811 -0.3137
19024TIP3    H278564   5.499   5.838  14.792  1.4124 -0.6432 -0.5541
19025TIP3   OH278565   0.360   5.966  16.519  0.4439 -0.0053  0.2693
19025TIP3    H178566   0.379   6.013  16.438  1.4397  0.8728  0.9783
19025TIP3    H278567   0.310   6.027  16.572  0.6524 -0.1985  0.7034
19026TIP3   OH278568   2.511   1.534  12.075  0.5334  0.1224  0.5280
19026TIP3    H178569   2.513   1.604  12.009  0.7321 -0.0073  0.3943
19026TIP3    H278570   2.491   1.455  12.025  0.5470  0.0453  0.6450
19027TIP3   OH278571   3.248   3.470   5.058  0.0634 -0.1812 -0.6095
19027TIP3    H178572   3.153   3.459   5.045 -0.0263  0.9533 -1.0028
19027TIP3    H278573   3.263   3.563   5.042  1.1187 -0.1902  0.3030
19028TIP3   OH278574   2.450   1.474  14.708 -0.1775  0.6256 -0.8201
19028TIP3    H178575   2.360   1.450  14.728 -0.2385  0.6860 -1.0169
19028TIP3    H278576   2.463   1.557  14.753  0.0103  0.2641 -0.2000
19029TIP3   OH278577   5.831   0.853   4.789 -0.5178  0.5191 -0.3139
19029TIP3    H178578   5.898   0.791   4.815  2.3856  2.9164 -1.4385
19029TIP3    H278579   5.818   0.909   4.866  2.0219  2.5912 -1.2466
19030TIP3   OH278580   3.070   2.782   2.262 -0.7017  0.1493 -0.9062
19030TIP3    H178581   3.140   2.844   2.243 -0.8247  0.6899  0.2722
19030TIP3    H278582   3.016   2.780   2.183 -0.3168  1.0419 -1.1988
19031TIP3   OH278583   6.511   4.639   1.788 -0.0969 -0.4567 -0.4707
19031TIP3    H178584   6.601   4.652   1.758 -0.2255 -0.4196 -0.8495
19031TIP3    H278585   6.472   4.583   1.721 -0.4514 -0.1973 -0.4819
19032TIP3   OH278586   0.401   1.814   1.444  0.7826 -0.1762 -0.1412
19032TIP3    H178587   0.487   1.830   1.406  0.5284  0.5897 -0.3939
19032TIP3    H278588   0.340   1.862   1.389  0.3411  0.4296  0.8409
19033TIP3   OH278589   0.642   4.805  13.485  0.6999 -0.1269  0.0861
19033TIP3    H178590   0.556   4.765  13.499  1.2292 -1.2071  0.3406
19033TIP3    H278591   0.703   4.732  13.488  1.7467  0.7657  0.9883
19034TIP3   OH278592   3.912   1.966  16.799 -0.8647 -0.7231  0.1913
19034TIP3    H178593   3.991   2.020  16.806 -1.5690  0.5092 -0.8739
19034TIP3    H278594   3.890   1.945  16.890 -0.4909  0.7082  0.6456
19035TIP3   OH278595   2.780   1.192  11.902  0.2206 -0.7607  0.8034
19035TIP3    H178596   2.718   1.135  11.948  0.5566 -0.8077  1.2160
19035TIP3    H278597   2.734   1.220  11.823 -0.1938 -1.0719  0.9292
19036TIP3   OH278598   4.324   4.825   0.694  1.0858 -0.2937 -0.5016
19036TIP3    H178599   4.246   4.876   0.673  1.0732 -0.5383 -1.0621
19036TIP3    H278600   4.296   4.766   0.763  1.4188  1.2870  1.0564
19037TIP3   OH278601   4.566   2.975  11.111 -0.1234 -0.0887  0.0406
19037TIP3    H178602   4.537   3.014  11.029 -0.2616  0.6114  0.4160
19037TIP3    H278603   4.661   2.978  11.107 -0.0691 -1.9680 -0.9922
19038TIP3   OH278604   2.144   5.671  16.249 -1.0946 -0.1693  0.6558
19038TIP3    H178605   2.204   5.730  16.203  0.9567 -0.7801  2.3741
19038TIP3    H278606   2.084   5.730  16.296  0.2615  0.5820  1.5114
19039TIP3   OH278607   1.669   4.619   0.824 -0.5230 -0.4552  0.5343
19039TIP3    H178608   1.630   4.704   0.805 -2.0159 -1.0571  0.8225
19039TIP3    H278609   1.624   4.558   0.766  1.8262 -0.8308 -1.0325
19040TIP3   OH278610   1.469   0.484  13.203 -0.2224 -0.2077  0.4963
19040TIP3    H178611   1.443   0.525  13.285 -1.1404  0.8013 -0.2719
19040TIP3    H278612   1.447   0.391  13.215  0.4616 -0.2394  1.6889
19041TIP3   OH278613   4.233   2.472  15.431  1.0321 -0.1755 -0.5860
19041TIP3    H178614   4.260   2.429  15.349  0.8655  0.8696 -1.2041
19041TIP3    H278615   4.138   2.465  15.431  1.0026  0.2118 -0.7023
19042TIP3   OH278616   3.499   2.628  11.592 -0.3719 -0.0503 -0.0510
19042TIP3    H178617   3.494   2.662  11.502 -1.2525 -1.0708 -0.3965
19042TIP3    H278618   3.423   2.571  11.601  1.0347 -1.9405  0.5097
19043TIP3   OH278619   0.033   6.574  11.660  0.1449  0.6082  0.0624
19043TIP3    H178620   0.016   6.667  11.643 -2.1415  0.6536  2.1279
19043TIP3    H278621   0.064   6.540  11.576  1.6669  3.3302 -0.6024
19044TIP3   OH278622   3.813   1.634   1.108  0.0285 -0.3059 -0.1901
19044TIP3    H178623   3.795   1.651   1.201  0.4769 -0.6325 -0.0364
19044TIP3    H278624   3.826   1.721   1.070 -1.7204 -0.0509 -0.3028
19045TIP3   OH278625   0.992   6.805  10.959 -0.5420 -0.3013 -0.0959
19045TIP3    H178626   0.917   6.750  10.935 -1.7350  0.6160  1.3075
19045TIP3    H278627   1.065   6.744  10.968 -1.3606 -1.3762 -0.4988
19046TIP3   OH278628   1.184   2.999   1.466  0.2752  0.0281 -0.0418
19046TIP3    H178629   1.205   2.917   1.420  0.9652 -0.7333  1.5542
19046TIP3    H278630   1.243   3.063   1.427  1.6543 -0.8561  0.5101
19047TIP3   OH278631   2.092   6.787   3.069  0.3591  0.2260  0.5189
19047TIP3    H178632   2.020   6.726   3.088 -1.5526  1.9298 -0.8666
19047TIP3    H278633   2.071   6.822   2.983  1.8989  2.1345  0.8696
19048TIP3   OH278634   4.757   5.142  12.417 -0.4524  0.1370  0.0724
19048TIP3    H178635   4.691   5.208  12.394  0.0142  1.0455  1.2662
19048TIP3    H278636   4.765   5.148  12.512  0.0662 -1.2195  0.1371
19049TIP3   OH278637   0.860   2.082   4.269  0.2538 -0.3920  0.8358
19049TIP3    H178638   0.945   2.125   4.282  0.1427  1.2790 -2.6243
19049TIP3    H278639   0.808   2.147   4.222 -1.6162 -2.7193 -0.5258
19050TIP3   OH278640   3.501   6.733  14.524 -0.2086  0.1537 -0.2122
19050TIP3    H178641   3.532   6.752  14.613 -0.9189  1.4299 -0.2009
19050TIP3    H278642   3.580   6.726  14.472  0.1766  1.3892  0.1695
19051TIP3   OH278643   4.608   1.337   5.466 -0.0882 -0.6649  0.3431
19051TIP3    H178644   4.696   1.318   5.498  0.3002 -0.9937 -0.8610
19051TIP3    H278645   4.554   1.342   5.545  0.8522 -1.2965  1.0441
19052TIP3   OH278646   4.865   3.984   6.280  0.0698 -0.7209 -0.0192
19052TIP3    H178647   4.843   3.918   6.345 -0.7042  0.9721  1.5265
19052TIP3    H278648   4.958   3.972   6.263 -0.0290 -2.1073  0.2786
19053TIP3   OH278649   6.509   4.081  15.695  0.0658  0.6681  0.0736
19053TIP3    H178650   6.427   4.130  15.689 -0.8330 -0.5631  1.6333
19053TIP3    H278651   6.533   4.063  15.604 -0.3565  2.6668 -0.4753
19054TIP3   OH278652   1.758   0.767  15.096 -0.3259 -0.3751 -0.0786
19054TIP3    H178653   1.759   0.801  15.006 -1.1047 -1.5708 -0.5515
19054TIP3    H278654   1.804   0.683  15.090  1.6453  0.5358  1.0950
19055TIP3   OH278655   4.912   0.122  11.136  0.0262  0.2805 -0.6724
19055TIP3    H178656   4.936   0.029  11.133 -1.5035 -0.2168  0.7164
19055TIP3    H278657   4.976   0.162  11.195  0.6957  0.1279 -1.2798
19056TIP3   OH278658   2.808   0.057  10.251 -0.3194  0.0352 -0.5528
19056TIP3    H178659   2.808   0.092  10.162 -0.9600  0.5357 -0.3648
19056TIP3    H278660   2.756   0.120  10.301 -0.3478 -0.4853  0.0815
19057TIP3   OH278661   6.157   1.889   1.436 -0.3707  0.1112 -0.4097
19057TIP3    H178662   6.249   1.904   1.457 -0.4254  0.1957 -0.2212
19057TIP3    H278663   6.110   1.916   1.516 -0.5785  0.3507 -0.6089
19058TIP3   OH278664   2.598   1.335  13.718  0.2706 -0.1888  0.7998
19058TIP3    H178665   2.546   1.362  13.793  1.9264  1.6262  1.3789
19058TIP3    H278666   2.644   1.257  13.747  0.9811  0.5619  1.7617
19059TIP3   OH278667   6.315   5.583  11.468  0.0125 -0.0166  0.5345
19059TIP3    H178668   6.266   5.645  11.414 -0.9100 -1.0077  0.1880
19059TIP3    H278669   6.255   5.559  11.538  0.9750  0.7684  1.6500
19060TIP3   OH278670   3.965   0.297  11.127  0.5258 -0.0590 -0.7437
19060TIP3    H178671   3.954   0.234  11.056  1.2932 -0.2766 -0.6782
19060TIP3    H278672   4.053   0.333  11.114  0.0590  1.0987 -0.8546
19061TIP3   OH278673   0.860   5.313  13.670  0.2135 -0.1362  0.2841
19061TIP3    H178674   0.875   5.407  13.669 -3.2562  0.6230 -2.3995
19061TIP3    H278675   0.791   5.300  13.735  0.5836 -0.8122  0.5545
19062TIP3   OH278676   4.684   5.306   6.504 -0.2179  0.1489  0.6113
19062TIP3    H178677   4.644   5.232   6.459  1.2664  0.5058 -1.4335
19062TIP3    H278678   4.630   5.319   6.582 -2.0176 -1.4445 -0.2984
19063TIP3   OH278679   5.454   5.193   1.805 -0.2303  0.3453  0.2817
19063TIP3    H178680   5.416   5.149   1.882 -0.5249  1.3705  0.7435
19063TIP3    H278681   5.526   5.246   1.841  0.9508 -0.7017 -0.4344
19064TIP3   OH278682   6.409   5.023   0.210  0.2823 -0.1781  0.3806
19064TIP3    H178683   6.386   5.114   0.189 -1.0130 -0.5290  0.1602
19064TIP3    H278684   6.395   5.017   0.305 -1.6002 -0.6329  0.1211
19065TIP3   OH278685   6.175   4.632  11.514  0.8012  0.0265 -0.3701
19065TIP3    H178686   6.186   4.657  11.606 -0.4993  2.0459 -0.7075
19065TIP3    H278687   6.168   4.536  11.516 -2.9015  0.1353  2.1365
19066TIP3   OH278688   0.124   5.398  16.585 -0.0328 -0.1923 -0.2095
19066TIP3    H178689   0.159   5.324  16.536 -2.6096 -1.7952  0.1206
19066TIP3    H278690   0.141   5.376  16.677  1.2129  0.8069 -0.1776
19067TIP3   OH278691   6.464   3.591   1.808 -0.1784 -0.0656  1.3930
19067TIP3    H178692   6.487   3.498   1.809 -1.4109 -0.3929  0.6962
19067TIP3    H278693   6.430   3.607   1.720 -0.9481  0.8080  1.8314
19068TIP3   OH278694   1.736   1.285  11.267  0.1142 -0.0294 -0.0332
19068TIP3    H178695   1.739   1.285  11.171 -1.1462 -0.9104 -0.0835
19068TIP3    H278696   1.819   1.325  11.293  0.9600 -0.7733 -1.4793
19069TIP3   OH278697   0.587   3.377  16.932  0.1408  0.7005  0.5869
19069TIP3    H178698   0.672   3.364  16.974 -0.2299  0.2687  1.2213
19069TIP3    H278699   0.576   3.300  16.877 -0.2724  0.2857  1.2528
19070TIP3   OH278700   5.420   0.625  13.140  0.8008 -0.5068 -0.2451
19070TIP3    H178701   5.398   0.542  13.097  1.7436 -0.5712 -0.6358
19070TIP3    H278702   5.344   0.646  13.193  2.0748 -3.8593  3.4142
19071TIP3   OH278703   1.137   1.313  14.857  0.1848  0.1339 -0.0271
19071TIP3    H178704   1.098   1.309  14.770  1.6300  0.4655 -0.7324
19071TIP3    H278705   1.166   1.404  14.866 -1.2550  0.4814  1.4188
19072TIP3   OH278706   0.821   0.095  16.053 -0.7939 -0.7191  0.3989
19072TIP3    H178707   0.896   0.050  16.093 -0.0976  0.8563  0.9260
19072TIP3    H278708   0.781   0.028  15.997  1.7518 -1.2937 -0.8951
19073TIP3   OH278709   3.677   3.810   5.999 -0.5916  0.2035  0.1332
19073TIP3    H178710   3.695   3.845   5.912 -1.1193 -0.0070 -0.0619
19073TIP3    H278711   3.599   3.856   6.028 -1.5471 -1.0682 -0.2991
19074TIP3   OH278712   4.895   2.434  15.013 -0.2653 -0.0089  0.3075
19074TIP3    H178713   4.892   2.403  15.103 -0.4728  0.2887  0.4058
19074TIP3    H278714   4.868   2.525  15.018 -0.2191  0.0272 -0.0492
19075TIP3   OH278715   4.566   0.482  15.767 -0.1231 -0.1940 -0.3937
19075TIP3    H178716   4.519   0.521  15.841 -0.7126  1.5266 -1.5854
19075TIP3    H278717   4.590   0.394  15.796  4.3571  2.0098  3.8484
19076TIP3   OH278718   4.085   4.469  16.146  0.0323 -0.2199 -0.3343
19076TIP3    H178719   4.104   4.563  16.156  0.9718 -0.2894 -1.3108
19076TIP3    H278720   4.133   4.443  16.067 -0.4861 -1.4569 -0.2623
19077TIP3   OH278721   0.420   1.206   4.943  0.4614  0.5585  0.0265
19077TIP3    H178722   0.434   1.266   5.017  1.6721  1.1655 -0.6657
19077TIP3    H278723   0.477   1.240   4.874 -0.5790 -0.0591 -1.1631
19078TIP3   OH278724   5.457   0.217  15.705 -1.0523  0.4426 -0.6815
19078TIP3    H178725   5.490   0.276  15.772 -0.8904 -1.6700  1.2269
19078TIP3    H278726   5.409   0.150  15.754 -0.2033 -1.6792 -2.5959
19079TIP3   OH278727   6.237   2.872  15.300 -0.6124 -0.4963 -0.3963
19079TIP3    H178728   6.312   2.928  15.319 -0.0603 -1.2189 -0.4162
19079TIP3    H278729   6.170   2.932  15.268  0.3643  0.0156 -1.5769
19080TIP3   OH278730   0.804   1.773  12.096  0.1387 -0.4947 -0.3208
19080TIP3    H178731   0.816   1.738  12.184  0.6391 -0.5125 -0.3908
19080TIP3    H278732   0.884   1.749  12.050  0.6880  1.0871 -0.2463
19081TIP3   OH278733   4.705   1.856  16.602  0.2244 -0.5065 -0.0318
19081TIP3    H178734   4.770   1.810  16.550  1.7284 -0.7817  1.9805
19081TIP3    H278735   4.751   1.930  16.641 -0.5625 -0.8084  1.5961
19082TIP3   OH278736   3.790   0.839   5.748 -0.5731  0.1023  0.3450
19082TIP3    H178737   3.821   0.908   5.807  0.9873 -0.8942  0.7467
19082TIP3    H278738   3.868   0.788   5.727 -1.8869 -2.5229  1.3320
19083TIP3   OH278739   6.424   6.551   0.362  0.2246  0.2577 -0.2116
19083TIP3    H178740   6.440   6.579   0.452  1.1321 -1.1080  0.0888
19083TIP3    H278741   6.503   6.575   0.315  0.0699  0.2755 -0.4635
19084TIP3   OH278742   3.876   1.651   0.785 -0.0337 -0.3436  0.3106
19084TIP3    H178743   3.941   1.613   0.845  1.2518 -1.9451 -1.9617
19084TIP3    H278744   3.918   1.731   0.753 -0.6287  0.3924  1.2951
19085TIP3   OH278745   2.569   3.075   2.381 -0.1993 -0.4454  0.1192
19085TIP3    H178746   2.662   3.077   2.403 -0.1422 -0.8953 -0.0644
19085TIP3    H278747   2.538   2.993   2.418 -0.6848  0.0292  0.7874
19086TIP3   OH278748   2.464   0.259   5.102 -0.4918  0.8174 -0.0121
19086TIP3    H178749   2.425   0.180   5.065 -0.3539  1.0537 -0.6746
19086TIP3    H278750   2.455   0.248   5.197 -0.3782 -0.0381 -0.0960
19087TIP3   OH278751   4.930   5.884  16.431  0.8405 -0.2889  0.8324
19087TIP3    H178752   4.863   5.817  16.444 -1.0850  1.5500  0.9717
19087TIP3    H278753   4.977   5.888  16.514  1.1905 -1.6435  0.7200
19088TIP3   OH278754   1.862   6.295   5.446 -0.1900 -0.2890 -0.1535
19088TIP3    H178755   1.947   6.292   5.490  0.1314  0.5734 -0.6885
19088TIP3    H278756   1.800   6.263   5.512  0.6730 -2.0120 -0.1370
19089TIP3   OH278757   6.515   4.020   0.969 -0.4423 -0.3413 -0.1452
19089TIP3    H178758   6.574   3.949   0.993 -1.5748 -1.7090 -1.2140
19089TIP3    H278759   6.450   4.022   1.040  0.3990  0.6478  0.6331
19090TIP3   OH278760   5.160   5.447   2.654  0.4907  0.2145  0.0178
19090TIP3    H178761   5.135   5.505   2.726 -1.4185 -1.1912  0.5483
19090TIP3    H278762   5.209   5.503   2.594 -0.1740  2.0460  1.1176
19091TIP3   OH278763   4.639   0.994   4.365 -0.4812 -0.2125 -0.6266
19091TIP3    H178764   4.667   1.012   4.275 -0.9198  0.4210 -0.6394
19091TIP3    H278765   4.563   1.051   4.379 -0.3269 -0.2003  0.1973
19092TIP3   OH278766   6.361   0.305  13.421  0.2117 -0.0663 -0.1382
19092TIP3    H178767   6.299   0.320  13.350 -0.8981 -1.8353  0.3880
19092TIP3    H278768   6.446   0.328  13.384 -0.4104 -0.3804 -1.8461
19093TIP3   OH278769   3.026   6.510   1.956 -0.0041 -0.5428  0.5653
19093TIP3    H178770   3.091   6.460   1.906 -0.7815 -0.0483 -0.9810
19093TIP3    H278771   2.971   6.443   1.996 -0.0423 -0.9538 -0.1543
19094TIP3   OH278772   0.211   3.556  15.504  0.4080  0.2255  0.3190
19094TIP3    H178773   0.222   3.545  15.410  0.6395  0.3030  0.3361
19094TIP3    H278774   0.157   3.482  15.531 -1.0791  1.1110 -0.1307
19095TIP3   OH278775   4.565   3.385  12.303 -0.3162  0.0297  0.1748
19095TIP3    H178776   4.565   3.460  12.362 -0.4623  0.3143 -0.1897
19095TIP3    H278777   4.657   3.356  12.301  0.4068  2.1887 -2.2179
19096TIP3   OH278778   6.516   3.132   3.413  0.1508 -0.5018  0.4525
19096TIP3    H178779   6.575   3.195   3.454  0.6972 -0.7327  0.0361
19096TIP3    H278780   6.512   3.158   3.321 -1.2496  0.1542  0.6605
19097TIP3   OH278781   2.936   1.473  12.502 -0.3987 -0.2981 -0.3719
19097TIP3    H178782   2.901   1.525  12.574 -0.2645 -1.2244  0.3857
19097TIP3    H278783   2.895   1.387  12.513 -0.1933 -0.5208 -1.2683
19098TIP3   OH278784   2.192   6.115  12.275  0.5286  0.5116 -1.0628
19098TIP3    H178785   2.240   6.171  12.335 -2.1926  1.5027  0.3612
19098TIP3    H278786   2.202   6.156  12.190  0.5485  1.8220 -0.4454
19099TIP3   OH278787   1.031   2.662   2.785 -0.3423  0.1734  0.7259
19099TIP3    H178788   1.124   2.683   2.782 -0.7852  2.2669  0.6747
19099TIP3    H278789   1.005   2.656   2.693 -0.1226 -1.3146  0.7219
19100TIP3   OH278790   2.203   2.188  11.023  0.1812 -0.4183 -0.2182
19100TIP3    H178791   2.144   2.134  10.970 -0.3416 -0.1125  0.0472
19100TIP3    H278792   2.240   2.128  11.086  0.6834 -0.7546 -0.8194
19101TIP3   OH278793   0.117   4.876   1.424 -0.0576  0.2655 -0.4116
19101TIP3    H178794   0.091   4.821   1.349  2.3573  0.0943 -1.2121
19101TIP3    H278795   0.189   4.828   1.465  1.0765  2.0792 -0.1804
19102TIP3   OH278796   0.757   5.500   2.555 -0.1774  0.3674 -0.0017
19102TIP3    H178797   0.785   5.446   2.482 -0.8954  1.1485 -0.8889
19102TIP3    H278798   0.741   5.439   2.627  1.2214 -0.3382 -0.2761
19103TIP3   OH278799   3.468   0.943  15.367 -0.2296  0.2767  0.1133
19103TIP3    H178800   3.477   0.980  15.279 -0.1803  0.6937  0.2881
19103TIP3    H278801   3.377   0.913  15.371 -0.7372  1.7674  0.4786
19104TIP3   OH278802   6.628   0.725   5.209 -0.0114 -0.1062 -0.1880
19104TIP3    H178803   6.666   0.802   5.165  1.7756 -0.5994  0.3902
19104TIP3    H278804   6.597   0.758   5.293  2.4883 -0.2636  0.8999
19105TIP3   OH278805   0.996   5.443   3.545 -0.2584 -0.1734 -0.1668
19105TIP3    H178806   1.027   5.362   3.585  1.3810  0.0682 -0.8604
19105TIP3    H278807   0.907   5.423   3.514 -0.1593 -1.4500  0.3531
19106TIP3   OH278808   0.859   0.203  12.029  0.4940  0.3062  0.2346
19106TIP3    H178809   0.891   0.270  11.968 -1.8714  0.8507 -0.4944
19106TIP3    H278810   0.938   0.152  12.052  1.7857  1.2996 -1.7225
19107TIP3   OH278811   6.685   2.675  12.733 -0.0608  0.0714 -0.6621
19107TIP3    H178812   6.719   2.756  12.696 -1.0678  0.5673 -0.5173
19107TIP3    H278813   6.601   2.699  12.772  0.7749 -0.5061  1.6519
19108TIP3   OH278814   3.347   6.472   1.480  0.3376  0.2034 -0.0069
19108TIP3    H178815   3.319   6.561   1.457  2.3223  0.3909 -1.9780
19108TIP3    H278816   3.286   6.415   1.435  1.4343  0.6077 -2.1098
19109TIP3   OH278817   3.135   3.501  17.139 -0.0286 -0.0139 -0.4375
19109TIP3    H178818   3.223   3.500  17.100  0.2140 -1.7550  0.0494
19109TIP3    H278819   3.144   3.552  17.219  0.4500  0.1188 -0.5740
19110TIP3   OH278820   1.911   5.108   3.141  0.2321  0.6531  0.1808
19110TIP3    H178821   1.956   5.055   3.076 -0.0040  0.2727  0.3192
19110TIP3    H278822   1.827   5.063   3.154  1.0163 -0.3656  2.1135
19111TIP3   OH278823   0.832   4.084   5.055  0.0292  0.7649  0.3179
19111TIP3    H178824   0.821   4.006   5.001 -0.1260  0.1795  1.1698
19111TIP3    H278825   0.927   4.092   5.065  0.0429  0.6346  0.2981
19112TIP3   OH278826   4.283   0.911  12.139 -0.5065  0.0827 -0.0931
19112TIP3    H178827   4.257   0.842  12.200  0.0300  1.5708  1.9247
19112TIP3    H278828   4.243   0.991  12.174  1.4534  1.3258 -0.5392
19113TIP3   OH278829   5.836   6.525   5.638 -0.1621  0.3032 -0.5270
19113TIP3    H178830   5.912   6.532   5.695 -0.6565 -0.4510  0.2562
19113TIP3    H278831   5.858   6.577   5.560  0.5961  1.2032  0.2709
19114TIP3   OH278832   6.638   0.821  14.506 -0.7671  0.0907  0.4808
19114TIP3    H178833   6.633   0.908  14.465 -1.6444 -0.0874  0.1738
19114TIP3    H278834   6.547   0.802  14.530 -0.9788 -1.7616 -1.5966
19115TIP3   OH278835   2.601   0.473   1.534 -0.0390 -0.5308  0.2789
19115TIP3    H178836   2.523   0.419   1.544 -1.2179  0.7676 -1.2309
19115TIP3    H278837   2.614   0.478   1.439  1.2401  0.1434  0.4697
19116TIP3   OH278838   1.596   1.550   4.757  0.3105 -0.1154 -0.5828
19116TIP3    H178839   1.590   1.604   4.679  2.5424 -0.1711 -0.8461
19116TIP3    H278840   1.619   1.463   4.725  4.0129  0.4194  0.1311
19117TIP3   OH278841   6.171   6.594  15.479  0.1715  0.1104 -0.2943
19117TIP3    H178842   6.217   6.650  15.542 -0.0683  0.2103 -0.2051
19117TIP3    H278843   6.137   6.522  15.532 -1.8110  1.2342  0.1019
19118TIP3   OH278844   0.343   5.591  16.921 -0.0043 -0.0159  0.2610
19118TIP3    H178845   0.321   5.506  16.882 -0.3889 -0.9252  2.3363
19118TIP3    H278846   0.305   5.655  16.861  0.7046 -1.2581 -1.6124
19119TIP3   OH278847   2.545   3.120   5.933 -0.0469 -0.4628 -1.0195
19119TIP3    H178848   2.529   3.030   5.904 -0.0232 -0.3379 -1.4240
19119TIP3    H278849   2.632   3.117   5.974 -0.6122 -0.9114  0.2006
19120TIP3   OH278850   6.583   2.634   4.768  0.4001  0.0250  0.6414
19120TIP3    H178851   6.593   2.714   4.718 -0.0028 -0.7142 -0.6809
19120TIP3    H278852   6.524   2.657   4.840  0.1517  0.8702  0.1784
19121TIP3   OH278853   5.051   0.250  15.144 -0.0358  0.0263  0.0122
19121TIP3    H178854   5.037   0.298  15.062 -4.2752 -1.0825 -0.1945
19121TIP3    H278855   5.128   0.197  15.128  2.2256  3.3786 -1.3325
19122TIP3   OH278856   5.994   0.918   1.209  0.1685 -0.3883 -0.1390
19122TIP3    H178857   5.979   0.824   1.212 -1.5858 -0.1532 -0.3705
19122TIP3    H278858   5.941   0.954   1.280 -0.9846  0.5815 -1.4177
19123TIP3   OH278859   6.029   6.326   5.335 -0.2769  0.1020  0.1621
19123TIP3    H178860   6.033   6.330   5.239 -0.5949  0.1038  0.1478
19123TIP3    H278861   6.117   6.300   5.361 -0.9224 -2.9545 -0.3048
19124TIP3   OH278862   1.239   0.962  16.796 -0.0230  0.1652  0.3478
19124TIP3    H178863   1.289   0.895  16.750 -0.6900  0.7100 -1.2646
19124TIP3    H278864   1.224   0.926  16.883  1.8693 -0.6360  0.3925
19125TIP3   OH278865   3.951   0.901   5.973  0.2989  0.4512 -0.3044
19125TIP3    H178866   3.933   0.854   6.054  0.5194  0.0601 -0.4785
19125TIP3    H278867   4.037   0.868   5.945  1.3084  2.2769  0.5172
19126TIP3   OH278868   1.562   2.427  14.615 -0.1481 -0.2943 -0.0742
19126TIP3    H178869   1.630   2.486  14.582  0.5487 -1.3028 -0.4802
19126TIP3    H278870   1.602   2.382  14.689 -0.1331 -1.3482 -0.6982
19127TIP3   OH278871   3.001   5.637  10.753  0.1343 -0.2209  0.5978
19127TIP3    H178872   2.907   5.623  10.765 -0.1766  1.2735  0.1591
19127TIP3    H278873   3.042   5.562  10.795 -1.2438 -0.7203  1.1188
19128TIP3   OH278874   2.742   2.362   2.902  0.3011 -0.7079 -0.1156
19128TIP3    H178875   2.666   2.371   2.845  0.0199  1.2460  0.4649
19128TIP3    H278876   2.708   2.380   2.990  0.9214 -2.5883  0.5550
19129TIP3   OH278877   5.637   0.569  13.296  0.1309 -0.2253  0.5598
19129TIP3    H178878   5.690   0.497  13.263  0.1657 -1.1150  2.4074
19129TIP3    H278879   5.582   0.594  13.223  0.3338 -1.9304 -0.2194
19130TIP3   OH278880   2.727   0.025  14.814  0.2331  0.0408 -0.1513
19130TIP3    H178881   2.800   0.029  14.753 -0.1451  0.7854 -0.5639
19130TIP3    H278882   2.758   0.072  14.892  0.3209  0.0420 -0.1871
19131TIP3   OH278883   3.076   0.304   6.121 -0.1238  0.1533  0.2752
19131TIP3    H178884   3.009   0.303   6.053 -0.0855 -1.8183  0.2114
19131TIP3    H278885   3.144   0.245   6.089  1.0366  1.0804  0.9440
19132TIP3   OH278886   3.057   3.152   3.137  0.1147 -0.2229 -0.0037
19132TIP3    H178887   3.076   3.220   3.202  1.3378  1.1078 -1.6540
19132TIP3    H278888   3.134   3.096   3.137  0.1314 -0.2043 -0.3007
19133TIP3   OH278889   4.277   3.064  11.526  0.1664 -0.1210 -0.9753
19133TIP3    H178890   4.348   3.045  11.464  0.9673  0.4865 -0.2645
19133TIP3    H278891   4.318   3.063  11.612 -1.1127 -1.8475 -0.3254
19134TIP3   OH278892   5.038   0.794  12.346  0.3736  0.1998 -0.0143
19134TIP3    H178893   5.026   0.808  12.252  3.7489 -1.2618 -0.7827
19134TIP3    H278894   5.014   0.702  12.360 -0.5895  0.5389  0.7138
19135TIP3   OH278895   2.717   2.925  12.813 -0.5447 -0.4311  0.2014
19135TIP3    H178896   2.733   3.000  12.870  3.6938 -1.7454  1.0887
19135TIP3    H278897   2.621   2.917  12.810 -1.0782  2.2341  3.7082
19136TIP3   OH278898   0.230   4.153   0.641  0.4991  0.4696  0.4814
19136TIP3    H178899   0.296   4.165   0.709  1.0006  1.2865 -0.1333
19136TIP3    H278900   0.190   4.239   0.630  1.0047  0.5599 -0.8341
19137TIP3   OH278901   3.756   1.687   5.282 -0.1762  0.3999 -0.0017
19137TIP3    H178902   3.809   1.656   5.208  1.2601  2.3946  0.0857
19137TIP3    H278903   3.675   1.719   5.242 -0.4568 -0.7489 -0.3943
19138TIP3   OH278904   1.986   5.585   0.800 -0.2345  0.0322  0.3623
19138TIP3    H178905   2.079   5.605   0.797  0.4819 -3.0384 -2.1402
19138TIP3    H278906   1.971   5.554   0.890  1.5542 -0.9443  0.3686
19139TIP3   OH278907   6.754   1.947   3.224  0.3319  0.0063  0.3952
19139TIP3    H178908   6.716   1.894   3.154 -0.0571 -0.0744  0.6645
19139TIP3    H278909   6.790   2.024   3.180  2.2832 -1.1970 -0.2006
19140TIP3   OH278910   4.314   2.145  14.573 -0.0701  0.2496 -0.2227
19140TIP3    H178911   4.281   2.201  14.642 -0.4932  1.5510 -1.4234
19140TIP3    H278912   4.260   2.067  14.577 -1.8012  1.3693 -0.6771
19141TIP3   OH278913   5.239   6.257  15.212 -0.6774  0.1707 -0.1113
19141TIP3    H178914   5.320   6.296  15.244 -0.4412  1.0945 -1.7691
19141TIP3    H278915   5.202   6.322  15.153  0.2285 -2.3551 -3.8292
19142TIP3   OH278916   2.472   5.391  16.919 -0.7843 -0.2006 -0.3903
19142TIP3    H178917   2.407   5.367  16.986 -0.4046  0.2430  0.1439
19142TIP3    H278918   2.555   5.359  16.954 -0.0502  2.8326  0.9151
19143TIP3   OH278919   3.574   0.020  13.987  0.2657 -0.4482 -0.5255
19143TIP3    H178920   3.507   0.086  14.005 -0.3420 -0.7822 -1.4746
19143TIP3    H278921   3.532  -0.040  13.925  1.3680 -0.8023 -0.9520
19144TIP3   OH278922   1.794   2.923   3.895  0.6882 -0.1584 -0.7599
19144TIP3    H178923   1.752   2.984   3.956  0.1087 -0.9054 -0.3933
19144TIP3    H278924   1.729   2.854   3.882  1.6145 -1.0951 -0.5684
19145TIP3   OH278925   2.402   5.559  10.471  0.4101 -0.3668  0.1002
19145TIP3    H178926   2.343   5.610  10.415 -0.1004 -0.5238  0.4890
19145TIP3    H278927   2.348   5.535  10.546  1.3225  0.5763  1.0954
19146TIP3   OH278928   4.918   2.208   0.426 -0.2609 -0.3746 -0.1336
19146TIP3    H178929   4.913   2.228   0.333  0.1418  2.4279  0.3538
19146TIP3    H278930   4.839   2.247   0.463  1.0872  1.3302  1.0741
19147TIP3   OH278931   1.096   2.316   5.686  0.6825 -0.0948  0.2502
19147TIP3    H178932   1.102   2.348   5.595  1.1347  0.7452  0.5612
19147TIP3    H278933   1.151   2.377   5.736 -0.9446  0.5299  1.3628
19148TIP3   OH278934   6.782   2.296   5.836 -0.5013 -0.0819 -0.3650
19148TIP3    H178935   6.832   2.372   5.867  0.7858 -0.4561 -1.4454
19148TIP3    H278936   6.753   2.252   5.916  2.0182 -0.5751  0.3782
19149TIP3   OH278937   1.155   2.415  11.272  0.0672 -0.0550  0.3254
19149TIP3    H178938   1.089   2.418  11.341  0.0009 -0.2812  0.2742
19149TIP3    H278939   1.180   2.506  11.259 -0.1218  0.0169  0.4547
19150TIP3   OH278940   5.511   4.676   0.487  0.1814 -0.1581  0.6610
19150TIP3    H178941   5.572   4.642   0.553  1.7263  0.5456 -0.3272
19150TIP3    H278942   5.512   4.610   0.418 -0.9024 -0.5631  1.0070
19151TIP3   OH278943   2.626   3.802   5.528  0.1791 -0.3879 -0.1044
19151TIP3    H178944   2.595   3.889   5.502  1.2160  0.0949  0.1864
19151TIP3    H278945   2.719   3.816   5.548  0.9350 -1.9827 -2.1627
19152TIP3   OH278946   4.949   0.537   2.714  0.0325 -0.2137  0.0816
19152TIP3    H178947   4.949   0.633   2.722  1.5980 -0.1793  0.0238
19152TIP3    H278948   4.890   0.519   2.641 -0.0784  0.7315 -0.0781
19153TIP3   OH278949   1.007   2.235   3.640 -0.4174  0.5071 -0.7004
19153TIP3    H178950   1.088   2.218   3.688 -1.4267 -1.0667  0.5803
19153TIP3    H278951   0.962   2.302   3.692 -1.6702 -1.4407  0.9516
19154TIP3   OH278952   2.302   2.624   0.281  0.4981  0.3081  0.3669
19154TIP3    H178953   2.230   2.577   0.239  0.2739 -1.0794  2.1452
19154TIP3    H278954   2.380   2.599   0.232 -0.0441  0.7277 -0.7268
19155TIP3   OH278955   5.545   2.437   1.157  0.1365  0.4904 -0.2286
19155TIP3    H178956   5.594   2.496   1.214  0.0394  1.2008 -0.8553
19155TIP3    H278957   5.457   2.474   1.153 -0.4432 -0.6989  0.7762
19156TIP3   OH278958   2.070   3.364   0.236  0.1188  0.0366 -0.1588
19156TIP3    H178959   2.033   3.278   0.255  0.3727  0.1291  0.8019
19156TIP3    H278960   2.042   3.383   0.146  0.9370 -1.5011 -0.7805
19157TIP3   OH278961   4.315   5.972  12.513  0.2136 -0.8661  0.4100
19157TIP3    H178962   4.282   5.903  12.570  1.6506 -1.3266  0.7049
19157TIP3    H278963   4.393   6.005  12.558 -1.8453  2.8422  1.7027
19158TIP3   OH278964   3.233   1.563   5.342 -0.5628  0.2940 -0.0729
19158TIP3    H178965   3.290   1.562   5.265  1.0303  0.6138  1.0542
19158TIP3    H278966   3.247   1.478   5.384 -2.2326 -0.3097 -0.6629
19159TIP3   OH278967   6.122   1.785  15.898  0.5896  0.1297  0.9785
19159TIP3    H178968   6.153   1.728  15.969  1.3424 -1.0790 -0.2747
19159TIP3    H278969   6.034   1.755  15.879 -0.6266  2.0785  2.9982
19160TIP3   OH278970   4.149   2.056  16.917 -0.2831 -0.9392 -0.5403
19160TIP3    H178971   4.131   2.150  16.920 -1.5338 -1.1664 -0.3633
19160TIP3    H278972   4.226   2.044  16.973 -1.2836 -0.2654  1.0353
19161TIP3   OH278973   6.225   3.838   2.576 -0.3141 -0.7882  0.3203
19161TIP3    H178974   6.312   3.808   2.548 -0.0400  1.3725 -1.4682
19161TIP3    H278975   6.164   3.794   2.518 -0.4531 -2.2096  1.4945
19162TIP3   OH278976   2.830   6.018  13.341 -0.1655  0.0256 -0.1342
19162TIP3    H178977   2.741   5.988  13.362 -0.4354  1.7958  1.5939
19162TIP3    H278978   2.816   6.099  13.291  0.4698  0.0381 -0.2986
19163TIP3   OH278979   2.995   4.525  14.071  0.3301  0.4028  0.1597
19163TIP3    H178980   3.051   4.496  14.000 -0.7598 -2.4076  0.3297
19163TIP3    H278981   2.914   4.476  14.059 -1.6786  3.3274  0.6794
19164TIP3   OH278982   0.216   1.938  15.739 -0.2139  0.2049 -0.5612
19164TIP3    H178983   0.142   1.990  15.706 -0.2208  0.8958  0.4714
19164TIP3    H278984   0.179   1.887  15.811  0.3795  0.8868  0.2553
19165TIP3   OH278985   0.114   5.839  16.365  0.1843 -0.7030 -0.0410
19165TIP3    H178986   0.140   5.928  16.385  0.3056 -0.9239  0.8336
19165TIP3    H278987   0.190   5.786  16.386  0.2032 -0.9900 -0.8096
19166TIP3   OH278988   2.475   6.306   4.143  0.6031  0.3165  0.7620
19166TIP3    H178989   2.564   6.342   4.142  0.2802  1.1543  1.2386
19166TIP3    H278990   2.485   6.219   4.181  1.2786  0.2145  0.3868
19167TIP3   OH278991   1.492   6.223   5.385  0.0099  0.2880 -0.0571
19167TIP3    H178992   1.494   6.254   5.295 -0.9966  0.1468 -0.1388
19167TIP3    H278993   1.547   6.145   5.385  1.1105  1.0454 -0.2404
19168TIP3   OH278994   2.289   3.341  11.914 -0.1094  0.4946 -0.8487
19168TIP3    H178995   2.203   3.376  11.938 -0.6859 -0.6384 -1.1682
19168TIP3    H278996   2.338   3.341  11.996 -0.9154 -0.1854 -0.3498
19169TIP3   OH278997   0.380   3.893  11.100 -0.3182 -0.3257  0.4287
19169TIP3    H178998   0.421   3.905  11.186  2.4146 -1.6260 -0.5858
19169TIP3    H278999   0.328   3.813  11.110 -3.6189  1.7571  1.9535
19170TIP3   OH279000   4.418   2.050   4.249 -0.2158 -0.5073 -0.5936
19170TIP3    H179001   4.506   2.027   4.220  0.3807 -0.4298  1.0595
19170TIP3    H279002   4.420   2.145   4.261 -0.2671 -0.5999  0.2151
19171TIP3   OH279003   2.336   2.648   2.954 -0.0279  0.0256 -0.0199
19171TIP3    H179004   2.299   2.622   2.870  0.7282 -1.6060  0.1166
19171TIP3    H279005   2.267   2.629   3.018 -0.6200  1.3105 -0.2507
19172TIP3   OH279006   6.396   4.609  12.737  0.0748 -0.1039 -0.3766
19172TIP3    H179007   6.397   4.690  12.685 -0.5228  0.6313  0.7123
19172TIP3    H279008   6.379   4.540  12.673 -0.4954  0.7558 -1.1833
19173TIP3   OH279009   4.434   5.067   2.536  0.1326  0.1443  0.0053
19173TIP3    H179010   4.392   5.094   2.455  0.8306  1.2406 -0.0050
19173TIP3    H279011   4.473   5.147   2.572  1.6437 -0.6908  0.3379
19174TIP3   OH279012   1.545   2.817  13.330  0.6312  0.1440 -0.0979
19174TIP3    H179013   1.617   2.801  13.269  0.0073  0.9312 -1.0902
19174TIP3    H279014   1.468   2.824  13.274  0.0581  1.0447  0.7614
19175TIP3   OH279015   0.214   5.990   3.943 -0.1784  0.1624 -0.2132
19175TIP3    H179016   0.188   5.922   3.882 -0.3016 -1.4374  1.5113
19175TIP3    H279017   0.254   6.058   3.889  0.1276 -1.3668 -1.9969
19176TIP3   OH279018   6.628   0.436   5.206  0.2301 -0.1376 -0.3364
19176TIP3    H179019   6.537   0.413   5.222  0.0924 -1.0519 -2.1490
19176TIP3    H279020   6.638   0.525   5.242 -1.2700 -0.1542  0.1603
19177TIP3   OH279021   1.099   1.668   2.674 -0.7028  0.0472 -0.1415
19177TIP3    H179022   1.068   1.619   2.750 -0.4852  0.2022  0.0481
19177TIP3    H279023   1.079   1.759   2.695  1.4642  0.3721  0.7823
19178TIP3   OH279024   6.227   1.535  13.007 -0.5021 -0.1847  0.6038
19178TIP3    H179025   6.247   1.628  13.010 -0.3106 -0.2472  2.5212
19178TIP3    H279026   6.185   1.522  12.922  0.7396  1.3629 -0.2932
19179TIP3   OH279027   1.077   2.564  15.923  0.5568 -0.2065 -0.0240
19179TIP3    H179028   1.001   2.610  15.958  0.7946  0.0625  0.1425
19179TIP3    H279029   1.051   2.538  15.835 -0.5539 -2.0912  0.8096
19180TIP3   OH279030   0.515   0.381  13.309  0.2629 -0.0683 -0.0844
19180TIP3    H179031   0.570   0.456  13.333 -0.5516  0.7115 -0.5989
19180TIP3    H279032   0.442   0.384  13.371 -0.5060  0.4163 -0.9943
19181TIP3   OH279033   4.243   0.033  11.433 -0.7473 -0.1944 -0.0431
19181TIP3    H179034   4.170   0.036  11.371  0.3208 -0.7673 -1.3733
19181TIP3    H279035   4.319   0.013  11.380  0.6627  1.8073  1.0854
19182TIP3   OH279036   2.310   6.316  12.417  0.4919 -0.2603 -0.3063
19182TIP3    H179037   2.221   6.352  12.415 -0.6385 -2.8249 -0.2770
19182TIP3    H279038   2.332   6.312  12.510  1.3843  1.8930 -0.3627
19183TIP3   OH279039   4.743   5.948   1.243 -0.1008 -0.0301  0.3041
19183TIP3    H179040   4.733   5.972   1.151 -0.6074 -0.1824  0.3135
19183TIP3    H279041   4.675   5.999   1.288  0.4258  0.3715  0.6528
19184TIP3   OH279042   4.267   0.500   3.977 -0.1075  0.1762 -0.0236
19184TIP3    H179043   4.290   0.408   3.979  0.6044  0.3617  1.1846
19184TIP3    H279044   4.177   0.502   3.946  0.0962 -0.8652 -0.7260
19185TIP3   OH279045   4.251   0.395   2.402  0.5066  0.2704 -0.4570
19185TIP3    H179046   4.187   0.436   2.460  1.7408  0.6766  0.6771
19185TIP3    H279047   4.249   0.302   2.425 -0.3150  0.1157 -1.0898
19186TIP3   OH279048   2.767   4.780  14.108 -0.1526 -0.3790  0.6931
19186TIP3    H179049   2.731   4.775  14.197  0.1522  0.2335  0.8531
19186TIP3    H279050   2.696   4.817  14.056 -0.2561 -0.5381  0.7174
19187TIP3   OH279051   4.348   3.228   3.423 -0.1986 -0.0201  0.2928
19187TIP3    H179052   4.300   3.309   3.437  0.2029  0.3977 -0.6265
19187TIP3    H279053   4.393   3.211   3.506 -3.3390 -1.4457  1.8673
19188TIP3   OH279054   6.263   1.531   4.158  0.3225 -0.1299  0.6302
19188TIP3    H179055   6.183   1.533   4.106 -0.1034  0.3944  1.2779
19188TIP3    H279056   6.300   1.619   4.148  1.2403 -0.6079 -0.2944
19189TIP3   OH279057   4.290   2.219   2.328  0.1811  0.2880  0.1818
19189TIP3    H179058   4.235   2.181   2.396 -1.1835  0.1532 -0.9503
19189TIP3    H279059   4.277   2.313   2.337  0.3360  0.2901  0.3802
19190TIP3   OH279060   4.652   2.343   3.328 -0.7582 -0.4460 -0.2877
19190TIP3    H179061   4.573   2.336   3.381 -1.1756 -0.0402 -0.8410
19190TIP3    H279062   4.655   2.435   3.302  0.3449 -0.2681  0.3980
19191TIP3   OH279063   4.914   4.451   4.745  0.1910  0.0992  0.3778
19191TIP3    H179064   4.962   4.466   4.664  0.2937 -0.4280  0.3346
19191TIP3    H279065   4.832   4.500   4.734  0.5556  0.6942  0.2966
19192TIP3   OH279066   6.068   6.427   2.179 -0.2171 -0.4791 -0.1927
19192TIP3    H179067   6.142   6.385   2.222  0.4439  1.4753  0.7147
19192TIP3    H279068   6.087   6.419   2.085  2.3030  1.7261  0.0002
19193TIP3   OH279069   5.962   1.553  14.746 -0.2675 -0.0123  0.4596
19193TIP3    H179070   6.047   1.519  14.720 -0.0336  1.7304 -1.3158
19193TIP3    H279071   5.958   1.539  14.841  1.9525 -0.1708  0.5776
19194TIP3   OH279072   5.539   0.247   3.615  0.1381 -0.2634 -0.3250
19194TIP3    H179073   5.464   0.217   3.565 -0.8426 -2.3689  2.2033
19194TIP3    H279074   5.614   0.202   3.575 -0.3888 -0.7139 -0.8141
19195TIP3   OH279075   2.591   2.050   0.731 -0.2811 -0.3636  0.1994
19195TIP3    H179076   2.632   2.036   0.645  2.0084 -1.0945  1.3450
19195TIP3    H279077   2.617   2.139   0.756 -1.2684 -0.0037  0.0232
19196TIP3   OH279078   1.842   2.367   1.694 -0.1344  0.1724 -0.3069
19196TIP3    H179079   1.916   2.383   1.753 -1.0732  0.6262  0.7738
19196TIP3    H279080   1.873   2.298   1.635  0.6689 -0.6344  1.0198
19197TIP3   OH279081   6.656   4.155  14.873 -0.0790 -0.2301 -0.4377
19197TIP3    H179082   6.732   4.200  14.835 -0.1692 -1.0984 -1.6993
19197TIP3    H279083   6.587   4.221  14.874  0.1881  0.0646 -0.9559
19198TIP3   OH279084   3.470   6.739   0.677 -0.1411  0.3856 -0.2169
19198TIP3    H179085   3.402   6.731   0.744  0.0358  1.3197  0.0863
19198TIP3    H279086   3.521   6.659   0.685  1.4021  1.5027  2.4871
19199TIP3   OH279087   0.704   1.761  13.377  0.4784 -0.0392  0.0727
19199TIP3    H179088   0.609   1.766  13.377  0.4367 -0.1038  1.8721
19199TIP3    H279089   0.733   1.853  13.373  0.3128  0.0195  0.1837
19200TIP3   OH279090   0.062   3.876   5.498 -0.0694 -0.0399 -0.0620
19200TIP3    H179091   0.104   3.897   5.581 -0.7077 -0.2324  0.3128
19200TIP3    H279092   0.036   3.785   5.506  0.1484 -0.1537 -0.6009
19201TIP3   OH279093   0.336   6.731   2.121  0.3105 -0.2033 -0.5027
19201TIP3    H179094   0.334   6.670   2.195 -0.9048 -0.8979 -1.0643
19201TIP3    H279095   0.425   6.726   2.087  1.1094  0.6840  1.3415
19202TIP3   OH279096   3.173   3.948   3.411  0.3704  0.1888 -0.2733
19202TIP3    H179097   3.146   4.032   3.449  0.6816  0.7675 -1.2998
19202TIP3    H279098   3.247   3.919   3.465  1.5556  1.5659 -1.0876
19203TIP3   OH279099   0.564   0.191  12.845 -0.3967 -0.2895 -0.5129
19203TIP3    H179100   0.513   0.111  12.853 -1.3507  0.3580 -0.0275
19203TIP3    H279101   0.655   0.160  12.841 -0.3576 -1.2869  3.4965
19204TIP3   OH279102   2.266   2.898  11.371  0.1402  0.2390  0.2764
19204TIP3    H179103   2.220   2.819  11.344 -0.5318  0.3828  0.9446
19204TIP3    H279104   2.198   2.952  11.411  0.3844  1.5477 -0.9528
19205TIP3   OH279105   4.353   1.412  12.198 -0.8175  0.5239 -0.1143
19205TIP3    H179106   4.437   1.386  12.236 -1.5721 -0.0330  1.2500
19205TIP3    H279107   4.377   1.465  12.122  0.7738 -0.7376 -0.5720
19206TIP3   OH279108   0.569   0.329  14.317  0.1454 -0.3369  0.5139
19206TIP3    H179109   0.657   0.353  14.346  0.5772 -0.3970 -0.6797
19206TIP3    H279110   0.511   0.392  14.361  0.9129  0.5795  0.2530
19207TIP3   OH279111   0.096   1.427  12.172  0.1818  0.6667 -0.7408
19207TIP3    H179112   0.010   1.462  12.149 -0.0368  0.4044 -0.3237
19207TIP3    H279113   0.127   1.485  12.243 -0.8865 -0.9208  1.1142
19208TIP3   OH279114   1.228   5.463  14.607 -0.0083  0.2633 -0.4251
19208TIP3    H179115   1.269   5.392  14.656 -0.3715 -0.8114 -1.6258
19208TIP3    H279116   1.299   5.500  14.554  0.3919  1.4476  0.8544
19209TIP3   OH279117   5.141   0.030   4.718  0.8589  0.5599 -0.5650
19209TIP3    H179118   5.163  -0.063   4.707  1.9241  0.7250  0.0925
19209TIP3    H279119   5.218   0.069   4.759 -0.6642  1.1279  2.0117
19210TIP3   OH279120   1.170   5.040   4.244 -0.3010  0.2919 -0.2716
19210TIP3    H179121   1.106   5.009   4.308 -0.5289 -0.7800 -0.9753
19210TIP3    H279122   1.255   5.027   4.286 -0.5187  2.9456  1.1938
19211TIP3   OH279123   4.554   1.894   4.553  0.0560  0.4775  0.3205
19211TIP3    H179124   4.546   1.800   4.571 -1.7115  0.7870  1.3892
19211TIP3    H279125   4.511   1.907   4.469  0.7490  0.2746 -0.0728
19212TIP3   OH279126   3.393   0.035  13.178  0.3605  0.1626  0.1740
19212TIP3    H179127   3.374   0.128  13.194  0.5754  0.2706 -0.1818
19212TIP3    H279128   3.309  -0.008  13.190  0.0303  0.5471 -0.7073
19213TIP3   OH279129   0.982   0.712   4.005 -0.1749 -0.0329 -0.1173
19213TIP3    H179130   0.945   0.789   4.048 -2.9422 -0.2954 -1.8409
19213TIP3    H279131   1.006   0.742   3.918 -0.5301 -0.9309 -0.5364
19214TIP3   OH279132   1.786   2.932  12.502 -0.0732 -0.1947  0.5452
19214TIP3    H179133   1.876   2.906  12.480 -0.8652 -2.7061 -0.0029
19214TIP3    H279134   1.766   3.001  12.438  0.2207 -2.2630 -1.9696
19215TIP3   OH279135   5.022   1.735   5.959  0.5878 -0.4359 -0.3437
19215TIP3    H179136   5.024   1.684   6.039  0.1264  1.6246  1.0771
19215TIP3    H279137   5.114   1.758   5.943  0.4818  1.1953  1.0728
19216TIP3   OH279138   2.253   1.540  10.405 -0.2936  0.1575  0.1800
19216TIP3    H179139   2.186   1.603  10.431 -0.6523  0.1313 -0.6361
19216TIP3    H279140   2.215   1.454  10.424 -0.5781  0.1363 -0.4303
19217TIP3   OH279141   5.668   5.388   5.720 -0.7184  0.0676 -0.0917
19217TIP3    H179142   5.664   5.315   5.658  0.5472  0.1044 -0.2503
19217TIP3    H279143   5.722   5.454   5.676  0.8392 -0.1975  1.2973
19218TIP3   OH279144   1.787   5.207  15.812  0.3008 -0.7900 -0.0651
19218TIP3    H179145   1.819   5.296  15.802  1.0403 -0.7329  2.2141
19218TIP3    H279146   1.694   5.213  15.793  0.0714  0.7703  1.3006
19219TIP3   OH279147   3.531   2.737   1.237 -0.1020  0.0178  0.0552
19219TIP3    H179148   3.568   2.688   1.312 -0.3365  1.2285  0.9910
19219TIP3    H279149   3.509   2.669   1.173  2.7379 -0.8629 -0.1229
19220TIP3   OH279150   3.011   3.038   2.792  0.3228  0.5115 -0.1632
19220TIP3    H179151   3.090   2.988   2.810 -0.7252 -1.4817 -0.8571
19220TIP3    H279152   2.940   2.976   2.803 -1.0882  2.0054 -0.5092
19221TIP3   OH279153   1.007   4.301  12.790 -0.1367 -0.1515  0.0829
19221TIP3    H179154   0.986   4.394  12.777  0.8171 -0.0733 -1.0734
19221TIP3    H279155   0.927   4.264  12.826  0.1894  1.5556  2.9263
19222TIP3   OH279156   3.520   3.718  12.484 -0.4790  0.6627  0.0296
19222TIP3    H179157   3.551   3.670  12.407 -0.8852  2.5505 -1.3696
19222TIP3    H279158   3.551   3.666  12.559  2.6877  0.4411 -1.3202
19223TIP3   OH279159   6.093   1.606   3.448 -0.5251  0.5672  0.3086
19223TIP3    H179160   6.077   1.568   3.362 -0.8617  0.5545  0.3716
19223TIP3    H279161   6.047   1.547   3.508 -0.3606  0.6200  0.4861
19224TIP3   OH279162   6.605   1.830   0.508 -0.4484 -0.5923 -0.0214
19224TIP3    H179163   6.584   1.794   0.594  0.5014  0.1460  0.5398
19224TIP3    H279164   6.638   1.756   0.458  1.0695 -0.6155  0.9767
19225TIP3   OH279165   0.378   6.780   2.712 -0.3639 -0.8611  0.2044
19225TIP3    H179166   0.459   6.764   2.762  0.5734 -1.4674 -1.4404
19225TIP3    H279167   0.388   6.729   2.632 -1.7469  0.2078 -0.7097
19226TIP3   OH279168   1.309   0.621   6.051  0.1832 -0.1465  0.4600
19226TIP3    H179169   1.218   0.650   6.056 -0.2420 -1.1600 -0.8032
19226TIP3    H279170   1.309   0.554   5.983  1.4562 -1.8323  2.0337
19227TIP3   OH279171   0.177   4.754   6.017 -0.1948 -0.7068 -0.1633
19227TIP3    H179172   0.154   4.681   6.074 -2.5080  0.5832  0.6829
19227TIP3    H279173   0.120   4.745   5.941  0.9075 -0.8624 -0.9906
19228TIP3   OH279174   6.314   0.211  14.659 -0.4380 -0.3586  0.0356
19228TIP3    H179175   6.388   0.177  14.608  1.4554  1.4844  1.3691
19228TIP3    H279176   6.258   0.254  14.594 -0.7753 -2.3634 -1.0914
19229TIP3   OH279177   1.829   5.331  12.113  0.4750 -0.0459 -0.2094
19229TIP3    H179178   1.916   5.344  12.151 -0.3326  0.3785  1.6019
19229TIP3    H279179   1.830   5.384  12.034  1.6834  0.3800  0.0624
19230TIP3   OH279180   1.834   1.844  12.777  0.2693  0.1002 -0.3217
19230TIP3    H179181   1.804   1.934  12.768 -1.3852 -0.4243 -0.4691
19230TIP3    H279182   1.782   1.795  12.713  2.4482 -0.7078 -1.5664
19231TIP3   OH279183   3.604   0.273   2.898  0.4675 -0.0714 -0.2956
19231TIP3    H179184   3.623   0.228   2.815 -2.7762 -0.4400 -1.0127
19231TIP3    H279185   3.619   0.366   2.879  0.1853 -0.1971 -1.1862
19232TIP3   OH279186   2.270   5.691  13.125  0.1777  0.0162  0.5935
19232TIP3    H179187   2.186   5.733  13.142 -1.8588 -3.2142 -0.3895
19232TIP3    H279188   2.290   5.644  13.206 -0.8174 -1.8772 -0.1778
19233TIP3   OH279189   6.511   1.036   1.941  0.3213 -0.1369  0.2353
19233TIP3    H179190   6.561   1.116   1.959 -1.7200  1.1616  0.4097
19233TIP3    H279191   6.451   1.027   2.015  0.4039 -1.7854  0.1541
19234TIP3   OH279192   5.195   5.307  12.564  0.0740  0.2281 -0.1022
19234TIP3    H179193   5.266   5.244  12.546  0.7270  1.1375 -0.8243
19234TIP3    H279194   5.115   5.254  12.561  0.7612 -1.0590  1.9423
19235TIP3   OH279195   6.670   1.364  15.502  0.6561  0.0021 -0.2019
19235TIP3    H179196   6.650   1.402  15.416 -1.8092 -0.4446  0.0947
19235TIP3    H279197   6.690   1.272  15.484  0.5565  0.0056 -0.3300
19236TIP3   OH279198   0.594   4.043  13.252 -0.0801  0.3715  0.0601
19236TIP3    H179199   0.563   4.108  13.316  1.2001  0.2629  0.8392
19236TIP3    H279200   0.550   3.962  13.277  0.9269  0.1625  1.2986
19237TIP3   OH279201   3.055   2.884   0.649 -0.2955 -0.4993 -0.0979
19237TIP3    H179202   3.082   2.957   0.593  1.9747 -1.0101  0.2431
19237TIP3    H279203   3.055   2.808   0.591 -0.4916 -0.5986  0.0322
19238TIP3   OH279204   5.661   4.712  12.012 -0.3180  0.6688 -0.4475
19238TIP3    H179205   5.606   4.671  11.945  1.0700 -0.6323 -0.8427
19238TIP3    H279206   5.742   4.734  11.966  0.5368  0.0494  0.7237
19239TIP3   OH279207   5.706   2.847  16.539  0.1101 -0.3089 -0.2220
19239TIP3    H179208   5.676   2.912  16.476  1.8530  0.3414 -0.4514
19239TIP3    H279209   5.686   2.885  16.625 -2.1396 -1.1336 -0.3111
19240TIP3   OH279210   4.147   6.696   2.242 -0.1770  0.2036 -0.0310
19240TIP3    H179211   4.212   6.655   2.299 -0.1547  0.2684 -0.0109
19240TIP3    H279212   4.094   6.622   2.211 -1.2921  0.3327  1.4525
19241TIP3   OH279213   5.351   4.335   1.240  0.2028 -0.3479 -0.3330
19241TIP3    H179214   5.277   4.389   1.211 -0.3973  0.0510  1.7495
19241TIP3    H279215   5.317   4.289   1.317  0.7670 -3.5653 -1.8607
19242TIP3   OH279216   0.280   4.773  14.482  0.3289  0.2336 -0.4461
19242TIP3    H179217   0.199   4.820  14.499  0.7985  0.4801  1.3454
19242TIP3    H279218   0.291   4.716  14.559  2.2124  0.7531 -0.2728
19243TIP3   OH279219   6.348   3.245  16.642 -0.0717 -0.0880 -0.4017
19243TIP3    H179220   6.268   3.214  16.685  0.6604 -0.3549  0.8050
19243TIP3    H279221   6.359   3.187  16.566 -1.2088  0.1915 -0.8014
19244TIP3   OH279222   2.260   1.903  10.668 -0.0995  0.5766  0.3789
19244TIP3    H179223   2.183   1.911  10.724 -0.7041  0.2103 -0.3885
19244TIP3    H279224   2.283   1.993  10.645  0.0280  0.7170  1.0293
19245TIP3   OH279225   2.111   4.388   5.373 -0.2355 -0.1143  0.4625
19245TIP3    H179226   2.133   4.479   5.394  0.8710 -0.5362  1.2391
19245TIP3    H279227   2.028   4.393   5.326  0.1140  1.3411 -0.0333
19246TIP3   OH279228   5.916   6.068  10.858 -0.1805  0.3119  0.0723
19246TIP3    H179229   5.911   6.126  10.783 -1.2397  1.5909  1.0759
19246TIP3    H279230   5.878   5.985  10.827 -3.0247  1.5773 -0.1877
19247TIP3   OH279231   6.679   4.365   0.807  0.2727  0.2874  0.3918
19247TIP3    H179232   6.643   4.312   0.879 -1.3297  1.1130  0.2398
19247TIP3    H279233   6.665   4.312   0.729  0.6415  0.0256  0.5022
19248TIP3   OH279234   4.243   4.981   1.901 -0.1201 -0.5680 -0.4524
19248TIP3    H179235   4.256   5.048   1.833 -0.0331 -0.4706 -0.3409
19248TIP3    H279236   4.326   4.978   1.947 -0.2191 -0.5433 -0.2700
19249TIP3   OH279237   0.520   5.059   1.098 -0.1902 -0.0755  0.3630
19249TIP3    H179238   0.461   5.028   1.166 -1.8167  1.4746 -0.2515
19249TIP3    H279239   0.565   4.981   1.067 -1.0651 -1.1311  1.6701
19250TIP3   OH279240   4.907   1.965   0.658  0.4289 -0.2265  0.2994
19250TIP3    H179241   4.915   2.013   0.575  0.0689  1.6193  1.2879
19250TIP3    H279242   4.857   1.887   0.636  0.3428  0.2274 -1.2295
19251TIP3   OH279243   4.939   5.457   0.572 -0.1298 -0.5690  0.5093
19251TIP3    H179244   5.007   5.407   0.616  0.6940  1.0654  1.2104
19251TIP3    H279245   4.985   5.534   0.537 -0.7802 -1.6440 -3.0828
19252TIP3   OH279246   4.666   5.330  16.868 -0.0237 -0.5003  0.1510
19252TIP3    H179247   4.588   5.276  16.883 -0.3657 -0.2408 -0.6302
19252TIP3    H279248   4.635   5.420  16.874 -0.2681 -0.3512 -2.1944
19253TIP3   OH279249   0.887   0.509   0.688  0.0564  0.2717 -0.3697
19253TIP3    H179250   0.909   0.599   0.711  0.1850  0.0836  0.2566
19253TIP3    H279251   0.913   0.500   0.596  2.4198  0.1144  0.2567
19254TIP3   OH279252   4.356   2.438  12.530  0.2829 -0.1654 -0.4812
19254TIP3    H179253   4.323   2.378  12.595  0.1158  0.1353 -0.2864
19254TIP3    H279254   4.451   2.430  12.536  0.3031 -2.5579 -2.4530
19255TIP3   OH279255   5.921   1.945  13.935  0.2655 -0.2907  0.4744
19255TIP3    H179256   5.976   1.900  13.871  1.9111  0.5432  1.2305
19255TIP3    H279257   5.866   1.876  13.972  1.8816 -1.4920  0.7576
19256TIP3   OH279258   5.787   1.966  11.008 -0.2908 -0.1167  0.3277
19256TIP3    H179259   5.744   1.965  10.923 -0.8774  0.2762  0.6136
19256TIP3    H279260   5.876   1.994  10.990 -0.7590  1.2181 -0.0148
19257TIP3   OH279261   5.160   5.109   0.490 -0.4700  0.2453  0.3269
19257TIP3    H179262   5.250   5.119   0.522 -0.7633  1.7693  0.7747
19257TIP3    H279263   5.158   5.022   0.450  1.3785  0.4340 -0.2790
19258TIP3   OH279264   1.927   6.194  16.434 -0.3855 -0.7578 -0.5266
19258TIP3    H179265   1.881   6.209  16.352 -0.7503  1.5273  0.0383
19258TIP3    H279266   1.917   6.275  16.483  1.9538 -1.1528  0.7574
19259TIP3   OH279267   6.725   1.037  15.194  0.1923 -0.0470  0.0296
19259TIP3    H179268   6.795   1.050  15.130  0.3468  0.4892  0.2957
19259TIP3    H279269   6.730   0.945  15.219  1.9700  0.3667  1.3758
19260TIP3   OH279270   6.576   2.546  16.501  0.6601  0.3571 -0.0813
19260TIP3    H179271   6.525   2.580  16.428  1.3601 -1.0919 -1.3122
19260TIP3    H279272   6.520   2.478  16.539  1.8915 -2.0035 -2.1017
19261TIP3   OH279273   5.108   5.523  14.125 -0.0844 -0.5047  0.1286
19261TIP3    H179274   5.081   5.615  14.117  0.6231 -0.2921  0.1571
19261TIP3    H279275   5.172   5.523  14.196  1.4152 -0.6784 -1.1620
19262TIP3   OH279276   6.047   2.543   0.269  0.2868  0.6622 -0.2009
19262TIP3    H179277   5.979   2.587   0.320  0.4650  4.2890 -2.7307
19262TIP3    H279278   5.997   2.488   0.207 -0.0304 -0.8866  1.3498
19263TIP3   OH279279   4.072   2.565   3.693 -0.1417  0.1122  0.2477
19263TIP3    H179280   3.980   2.546   3.712 -1.0078 -1.7383 -4.5121
19263TIP3    H279281   4.072   2.652   3.654 -0.3044 -0.7612 -1.7813
19264TIP3   OH279282   4.703   2.369   0.147  0.3104 -0.2385  0.0047
19264TIP3    H179283   4.677   2.375   0.239 -0.8405 -3.9480  0.0814
19264TIP3    H279284   4.797   2.349   0.150  0.4306  0.3634  0.3258
19265TIP3   OH279285   3.807   3.496   2.154 -0.3370 -0.4143 -0.2447
19265TIP3    H179286   3.728   3.527   2.111 -0.4954 -0.7402 -0.1917
19265TIP3    H279287   3.815   3.404   2.126  0.2159 -0.2868 -0.5393
19266TIP3   OH279288   1.842   4.370   0.012  0.1047  0.3512  0.8075
19266TIP3    H179289   1.842   4.300   0.078  1.3121  0.0311  0.4921
19266TIP3    H279290   1.788   4.439   0.051  0.7710  0.1611  2.1228
19267TIP3   OH279291   3.907   0.588  16.907 -0.1051  0.1976 -0.1755
19267TIP3    H179292   3.943   0.503  16.882 -1.2951  0.0652 -1.5553
19267TIP3    H279293   3.907   0.587  17.003 -1.2071 -1.8563 -0.1490
19268TIP3   OH279294   3.517   5.101   5.636 -0.0273 -0.3561 -0.3647
19268TIP3    H179295   3.565   5.019   5.645 -1.3334 -1.1795 -0.5535
19268TIP3    H279296   3.563   5.149   5.567  0.0118 -1.4922 -1.1447
19269TIP3   OH279297   2.172   3.147  14.298 -0.6678 -0.2637 -0.6353
19269TIP3    H179298   2.135   3.106  14.220  1.2518 -2.1234 -0.6654
19269TIP3    H279299   2.241   3.204  14.264 -1.3139  0.6498 -0.4151
19270TIP3   OH279300   3.670   1.704   3.598 -0.7727  0.3450  0.9140
19270TIP3    H179301   3.707   1.759   3.530 -0.7045 -0.5932  0.1726
19270TIP3    H279302   3.745   1.681   3.654 -1.1198  2.6976  2.5190
19271TIP3   OH279303   1.196   5.987  12.263  0.2428 -0.0635 -0.2410
19271TIP3    H179304   1.198   5.974  12.357 -0.1833 -2.3710 -0.4818
19271TIP3    H279305   1.287   6.007  12.239  0.3587  0.4730  0.6516
19272TIP3   OH279306   5.946   3.212   5.618  0.0793  0.2149  0.7381
19272TIP3    H179307   5.864   3.189   5.660 -0.7998 -0.0509 -1.0139
19272TIP3    H279308   5.937   3.305   5.597 -0.1729 -0.0027 -0.2082
19273TIP3   OH279309   1.200   2.495  10.870 -0.3388  0.0599 -0.0069
19273TIP3    H179310   1.245   2.434  10.811  0.7145  1.1949 -0.4317
19273TIP3    H279311   1.107   2.475  10.859 -0.0558 -0.9785 -0.6695
19274TIP3   OH279312   1.123   6.021   0.686  0.2796 -0.7268  0.4849
19274TIP3    H179313   1.081   5.939   0.712 -0.0714 -0.8216 -0.3505
19274TIP3    H279314   1.060   6.063   0.628  0.0548  0.5791  1.6082
19275TIP3   OH279315   4.051   2.219   3.396 -0.6177 -0.2908  0.1014
19275TIP3    H179316   4.027   2.136   3.355  0.7918 -0.0557 -1.2785
19275TIP3    H279317   4.115   2.259   3.337 -3.7938  3.5170 -1.2061
19276TIP3   OH279318   0.422   4.982  17.037 -0.0142  0.5385 -0.3483
19276TIP3    H179319   0.439   5.066  17.080 -0.7580  0.0101  1.0373
19276TIP3    H279320   0.330   4.986  17.012 -0.3315 -0.2488  0.6498
19277TIP3   OH279321   0.411   4.209   3.004  0.0056 -0.0767 -0.2847
19277TIP3    H179322   0.343   4.168   2.950  1.3066 -0.2279 -1.8884
19277TIP3    H279323   0.405   4.302   2.983 -0.5867  0.1031  0.6267
19278TIP3   OH279324   1.458   0.747  12.759  0.5802 -0.1692  0.0636
19278TIP3    H179325   1.437   0.841  12.756 -0.1011 -0.3365 -0.5505
19278TIP3    H279326   1.448   0.723  12.851  1.4082  0.5067  0.3392
19279TIP3   OH279327   0.931   0.205   1.726  0.2023  0.0630  0.5596
19279TIP3    H179328   0.895   0.171   1.808 -0.9817  0.2095  0.1252
19279TIP3    H279329   0.939   0.128   1.670 -1.4617  0.3051 -0.0571
19280TIP3   OH279330   3.643   6.412  13.458  0.2124 -0.5012 -0.4393
19280TIP3    H179331   3.717   6.472  13.465 -0.0155 -0.2333 -0.3202
19280TIP3    H279332   3.639   6.391  13.364  0.3100 -0.3559 -0.4776
19281TIP3   OH279333   1.907   4.414  11.814  0.6317 -0.4167  0.1494
19281TIP3    H179334   1.972   4.475  11.780  0.6131 -0.9582 -0.8983
19281TIP3    H279335   1.945   4.380  11.895  1.8984 -1.1091 -0.7069
19282TIP3   OH279336   0.411   1.517   2.696  0.2580 -0.2151 -0.7027
19282TIP3    H179337   0.368   1.483   2.775  2.1777 -2.7769 -0.6281
19282TIP3    H279338   0.502   1.530   2.723  1.1468 -1.9431 -2.6649
19283TIP3   OH279339   4.217   0.524  11.337 -0.5753  0.8561 -0.2314
19283TIP3    H179340   4.200   0.511  11.243 -0.4066 -3.2655  0.0883
19283TIP3    H279341   4.132   0.505  11.378 -0.3789  1.5354  0.4886
19284TIP3   OH279342   5.161   2.109   1.897 -0.1522  0.3787  0.5173
19284TIP3    H179343   5.165   2.187   1.952 -0.1313 -0.0575  1.1511
19284TIP3    H279344   5.114   2.045   1.950  0.3408 -0.2218  0.2411
19285TIP3   OH279345   4.821   3.916   3.536  0.0030 -0.3167  0.0768
19285TIP3    H179346   4.747   3.892   3.480 -0.6254  1.4601  0.0906
19285TIP3    H279347   4.873   3.975   3.482  0.9359 -0.8194  0.4002
19286TIP3   OH279348   6.013   0.533  16.012  0.4622 -0.3975 -0.4714
19286TIP3    H179349   5.940   0.476  15.984  0.5508  0.4286 -2.6038
19286TIP3    H279350   5.971   0.600  16.066  0.1898 -1.7948  1.1250
19287TIP3   OH279351   5.110   1.021   3.277  0.1684  0.6824 -0.5482
19287TIP3    H179352   5.069   0.987   3.357  0.3241 -0.2733 -0.8667
19287TIP3    H279353   5.047   1.001   3.208  1.5314 -1.7017 -1.2050
19288TIP3   OH279354   4.605   5.379  12.917  0.1806  0.7182  0.5435
19288TIP3    H179355   4.692   5.378  12.878  0.5601 -0.8443  1.3450
19288TIP3    H279356   4.619   5.355  13.008 -0.9924  1.4601  0.9390
19289TIP3   OH279357   0.680   3.274  13.285 -0.4129 -0.0368  0.4343
19289TIP3    H179358   0.714   3.261  13.374 -0.2302  0.8502  0.5038
19289TIP3    H279359   0.758   3.284  13.230 -0.5321  0.2481  0.3137
19290TIP3   OH279360   4.055   4.535  13.056  0.3270 -0.1540  0.1320
19290TIP3    H179361   3.966   4.500  13.057  0.2136  0.1231  1.3705
19290TIP3    H279362   4.052   4.611  13.114  0.9455  1.0123 -1.2714
19291TIP3   OH279363   3.451   2.878   2.775 -0.2840  0.3124  0.4938
19291TIP3    H179364   3.496   2.795   2.768 -0.6211  0.1959 -0.5294
19291TIP3    H279365   3.362   2.855   2.801 -0.4274  0.3261  0.0319
19292TIP3   OH279366   6.799   2.677   3.956 -0.6416  0.1860  0.1758
19292TIP3    H179367   6.802   2.680   3.861  1.4187  0.4095  0.2089
19292TIP3    H279368   6.706   2.666   3.977 -1.0193 -0.9903 -1.8703
19293TIP3   OH279369   0.387   2.601   5.322  0.2698  1.0751  0.1450
19293TIP3    H179370   0.300   2.636   5.343 -0.6813 -0.5214 -0.9016
19293TIP3    H279371   0.374   2.555   5.239  1.8041 -0.3903  0.6805
19294TIP3   OH279372   5.575   1.038  14.396 -0.2444  0.7884 -0.2925
19294TIP3    H179373   5.640   1.095  14.436  2.0837 -1.0247 -1.1896
19294TIP3    H279374   5.595   0.951  14.431 -0.7332 -0.1805 -2.2521
19295TIP3   OH279375   0.982   5.319  16.695 -0.0406  0.0761  0.6658
19295TIP3    H179376   0.966   5.393  16.636  1.2935 -0.1233  0.0181
19295TIP3    H279377   0.949   5.348  16.780 -1.9994  0.3640 -0.1630
19296TIP3   OH279378   6.687   4.760  15.813 -0.4012  0.0221  0.2274
19296TIP3    H179379   6.597   4.741  15.786 -1.0593  2.0633  0.8326
19296TIP3    H279380   6.738   4.750  15.733 -1.0207 -1.7543 -0.0090
19297TIP3   OH279381   5.048   4.999   1.368  0.1047 -0.3893 -0.1294
19297TIP3    H179382   4.989   4.925   1.353 -0.6436 -0.0011  0.7912
19297TIP3    H279383   5.043   5.015   1.462  0.9230  0.2853 -0.1872
19298TIP3   OH279384   1.999   6.345   3.596  0.3187  0.4886 -0.1956
19298TIP3    H179385   2.035   6.382   3.677  3.6388 -1.9365 -0.3606
19298TIP3    H279386   2.062   6.371   3.528 -1.1528  0.5058 -1.5956
19299TIP3   OH279387   1.511   2.219   4.783  0.3692  0.2034  0.0439
19299TIP3    H179388   1.472   2.205   4.870 -2.2180  1.7244 -0.7642
19299TIP3    H279389   1.563   2.299   4.792  0.5841  0.0351  0.3209
19300TIP3   OH279390   2.654   4.596  16.798 -1.1984 -0.3230 -0.8423
19300TIP3    H179391   2.603   4.547  16.863 -0.2725  0.1657  0.2767
19300TIP3    H279392   2.632   4.554  16.715 -2.4301 -0.9518 -0.2378
19301TIP3   OH279393   6.186   4.233  10.344 -0.0106 -0.9644 -0.3406
19301TIP3    H179394   6.243   4.204  10.272  0.7064  0.4228 -0.3661
19301TIP3    H279395   6.243   4.233  10.421 -0.0548  0.0721 -0.2912
19302TIP3   OH279396   2.000   5.335   5.608 -0.2005 -0.0551 -0.4373
19302TIP3    H179397   2.043   5.289   5.679  0.1553  0.2171 -0.4733
19302TIP3    H279398   2.041   5.421   5.606 -0.2356 -0.0419 -0.9429
19303TIP3   OH279399   4.535   3.871   4.519 -0.3190 -0.5488  0.1720
19303TIP3    H179400   4.474   3.909   4.583 -1.1010  1.1847 -1.4980
19303TIP3    H279401   4.478   3.836   4.450  0.5275 -0.3734 -0.6389
19304TIP3   OH279402   0.990   1.678   3.454  0.1357 -0.4610 -0.2564
19304TIP3    H179403   1.024   1.706   3.539  1.7255 -0.0245 -0.9964
19304TIP3    H279404   0.912   1.626   3.475 -0.6000  1.2056  1.3414
19305TIP3   OH279405   2.722   3.665  13.645 -0.2403 -0.2182  0.7472
19305TIP3    H179406   2.804   3.661  13.695  1.7528 -2.5137 -2.3101
19305TIP3    H279407   2.737   3.735  13.581 -1.1412  0.0155  0.7754
19306TIP3   OH279408   5.331   0.117  14.148 -0.1893 -0.1069  0.9981
19306TIP3    H179409   5.400   0.131  14.082 -0.2301  1.0536  1.1919
19306TIP3    H279410   5.255   0.090  14.097 -0.1033  0.3862  0.6003
19307TIP3   OH279411   0.245   6.494   6.165  0.1018 -0.8438 -0.6071
19307TIP3    H179412   0.240   6.471   6.258 -1.9588 -2.9339 -1.1460
19307TIP3    H279413   0.333   6.529   6.154  1.4293 -3.1089  1.6204
19308TIP3   OH279414   0.744   5.612  15.346  0.3724  0.6506  0.0722
19308TIP3    H179415   0.675   5.618  15.413  0.9160 -1.3399  0.8809
19308TIP3    H279416   0.731   5.690  15.292 -1.8353  0.8989  0.8368
19309TIP3   OH279417   5.399   3.987  16.116  0.0416 -0.0867  0.2559
19309TIP3    H179418   5.410   4.028  16.030  0.7740  1.2319  0.9600
19309TIP3    H279419   5.463   4.031  16.172 -1.6018  0.2803  1.9163
19310TIP3   OH279420   5.858   5.484   2.259  0.0416 -0.1070 -0.2017
19310TIP3    H179421   5.822   5.483   2.348 -1.3880  0.5848 -0.7304
19310TIP3    H279422   5.923   5.555   2.260 -1.4686  1.3435 -0.2195
19311TIP3   OH279423   5.292   1.885  11.260 -0.5234  0.6308  0.2469
19311TIP3    H179424   5.316   1.836  11.339 -1.5731 -1.5741 -0.7057
19311TIP3    H279425   5.374   1.919  11.227  0.0599  0.7899  1.7755
19312TIP3   OH279426   2.239   1.941   5.476  0.9832  0.0327 -0.3218
19312TIP3    H179427   2.173   2.010   5.489 -0.1485 -0.5607 -2.4333
19312TIP3    H279428   2.309   1.984   5.427  0.3872 -0.2194 -1.4264
19313TIP3   OH279429   1.703   5.214  16.922 -0.4719  0.3125 -0.2618
19313TIP3    H179430   1.757   5.268  16.865 -1.2963  0.8304 -0.5812
19313TIP3    H279431   1.754   5.203  17.002  0.7865 -0.5869 -1.1567
19314TIP3   OH279432   1.798   5.879  15.212  0.5186  0.3943 -0.0802
19314TIP3    H179433   1.764   5.791  15.194  0.9904 -0.0927  1.2231
19314TIP3    H279434   1.738   5.916  15.276 -1.4354  2.2902 -2.7980
19315TIP3   OH279435   3.320   0.872  14.545  0.1394 -0.2265  0.1392
19315TIP3    H179436   3.407   0.868  14.584  0.1218  1.2837  0.3991
19315TIP3    H279437   3.319   0.955  14.497 -0.8915 -0.5964 -0.5183
19316TIP3   OH279438   1.646   1.626  16.631 -0.3054  0.7823  0.0274
19316TIP3    H179439   1.685   1.560  16.574  1.5315  0.8162  1.1533
19316TIP3    H279440   1.586   1.675  16.575 -1.3381 -1.4907 -0.9510
19317TIP3   OH279441   4.342   4.087   1.845 -0.4863  0.2672 -0.6035
19317TIP3    H179442   4.390   4.091   1.928  2.4926  0.1746 -2.1990
19317TIP3    H279443   4.276   4.019   1.859  0.2142 -0.0413  1.5416
19318TIP3   OH279444   6.551   1.748  15.227 -0.2843 -0.3591  0.0662
19318TIP3    H179445   6.573   1.751  15.320 -0.5550 -1.0180  0.1537
19318TIP3    H279446   6.458   1.771  15.224 -0.0968  0.4018 -0.1147
19319TIP3   OH279447   6.037   4.459   1.483  0.6246  0.3181 -0.0103
19319TIP3    H179448   5.984   4.535   1.461 -2.0769 -0.7785  2.1104
19319TIP3    H279449   6.020   4.397   1.412  0.5141  0.6459 -0.2712
19320TIP3   OH279450   1.553   3.599   5.158 -0.9810 -0.2323  0.4012
19320TIP3    H179451   1.596   3.671   5.113 -1.2244 -0.2916  0.0676
19320TIP3    H279452   1.615   3.572   5.226 -0.5396 -0.2428  0.0026
19321TIP3   OH279453   5.414   3.133  16.638  0.1415 -0.4028 -0.1217
19321TIP3    H179454   5.486   3.152  16.578  0.2430  0.6242  0.2973
19321TIP3    H279455   5.339   3.118  16.581  0.6146 -1.1999 -0.5523
19322TIP3   OH279456   0.785   1.258   2.287  0.2085  0.7824  0.2819
19322TIP3    H179457   0.776   1.351   2.304  0.6208  0.8281  0.2566
19322TIP3    H279458   0.782   1.250   2.192 -1.9516  0.5421  0.3377
19323TIP3   OH279459   3.382   3.981   3.600 -0.0429  0.3312  0.4608
19323TIP3    H179460   3.452   3.937   3.552 -0.6918 -0.2328  0.0076
19323TIP3    H279461   3.427   4.045   3.655  0.7936  0.2623 -0.1229
19324TIP3   OH279462   0.398   2.375   1.620  0.2305 -0.2959 -0.4988
19324TIP3    H179463   0.334   2.443   1.600  0.9578  0.1492 -1.3933
19324TIP3    H279464   0.403   2.373   1.716  0.4972  1.2023 -0.4612
19325TIP3   OH279465   2.468   3.978   3.123 -0.1221 -0.1194  0.4437
19325TIP3    H179466   2.478   3.924   3.044  0.8943 -1.7484  1.6004
19325TIP3    H279467   2.374   3.980   3.140 -0.1953 -1.7110  0.4222
19326TIP3   OH279468   0.176   3.613   0.953  0.1348 -0.2531  0.1697
19326TIP3    H179469   0.106   3.624   0.889  0.1902 -2.4943 -0.3847
19326TIP3    H279470   0.135   3.565   1.025  0.5449  0.5327  0.9410
19327TIP3   OH279471   0.000   0.535  17.130  0.0268  0.1214  0.2710
19327TIP3    H179472  -0.009   0.613  17.184  1.2272 -0.8384  1.9496
19327TIP3    H279473  -0.080   0.486  17.145  0.5118 -0.3135  1.5134
19328TIP3   OH279474   3.268   0.430   4.211 -0.2279  0.2204 -0.8574
19328TIP3    H179475   3.299   0.515   4.180 -2.1626  2.3106  2.4054
19328TIP3    H279476   3.173   0.438   4.212 -0.4573 -1.9870 -0.3441
19329TIP3   OH279477   3.153   3.061   4.961 -0.3861  0.0108 -0.7510
19329TIP3    H179478   3.222   2.996   4.948 -2.2946 -2.2315 -0.2778
19329TIP3    H279479   3.111   3.068   4.876 -0.4139  0.4005 -0.7085
19330TIP3   OH279480   5.141   0.054  16.303 -0.1224  0.4373  0.6310
19330TIP3    H179481   5.097   0.072  16.385  0.5431 -2.2708  1.6725
19330TIP3    H279482   5.112   0.124  16.244 -1.1541  2.0473  2.9296
19331TIP3   OH279483   3.611   3.985   2.021 -0.6859  0.6545  0.3457
19331TIP3    H179484   3.518   4.008   2.023 -0.5654  1.1160  0.6918
19331TIP3    H279485   3.635   3.972   2.112 -0.2409  1.2563  0.3265
19332TIP3   OH279486   6.180   6.442  10.851  0.0456 -0.1098 -0.6179
19332TIP3    H179487   6.166   6.482  10.765 -1.1831 -0.0860 -0.4167
19332TIP3    H279488   6.275   6.444  10.862  0.2694 -0.6383 -2.2142
19333TIP3   OH279489   5.565   1.833  13.289  0.2950 -0.1408 -0.0548
19333TIP3    H179490   5.589   1.841  13.381 -0.0920  2.4766 -0.0974
19333TIP3    H279491   5.603   1.910  13.247  0.8975 -1.5225 -2.2352
19334TIP3   OH279492   4.565   6.214   4.523  0.0924 -0.4541  0.6115
19334TIP3    H179493   4.638   6.198   4.464 -0.2899  1.1884 -0.3654
19334TIP3    H279494   4.532   6.127   4.545  0.9727 -1.1408 -0.6701
19335TIP3   OH279495   4.567   3.584  11.348 -0.0339 -0.0780  0.5303
19335TIP3    H179496   4.660   3.571  11.368 -0.0518 -1.3980 -0.1240
19335TIP3    H279497   4.544   3.510  11.292 -1.8560 -0.5861  1.8595
19336TIP3   OH279498   0.109   4.549   1.731  0.3583  0.7311  0.5094
19336TIP3    H179499   0.075   4.638   1.722 -0.3294  0.6313  1.8284
19336TIP3    H279500   0.061   4.499   1.665  0.1877  1.1865  0.2821
19337TIP3   OH279501   3.219   4.629   2.234 -0.6164 -0.0958 -0.3779
19337TIP3    H179502   3.135   4.589   2.211 -0.0310 -0.6927 -1.5903
19337TIP3    H279503   3.211   4.720   2.204 -0.3322 -0.5292 -1.8329
19338TIP3   OH279504   2.677   3.020  13.485 -0.1068  0.8557 -0.1204
19338TIP3    H179505   2.725   3.039  13.405  0.4606 -1.3386 -0.3891
19338TIP3    H279506   2.716   3.077  13.551  0.5295  1.5272 -1.0535
19339TIP3   OH279507   1.006   6.015   6.568 -0.4973  0.2754 -0.4464
19339TIP3    H179508   0.929   6.058   6.530 -1.2085 -0.3678  0.2229
19339TIP3    H279509   0.969   5.949   6.627  0.5755 -0.3211 -0.4306
19340TIP3   OH279510   4.632   2.781   0.309 -0.3556 -0.0027 -0.1872
19340TIP3    H179511   4.653   2.839   0.383 -0.7546 -0.3819  0.2272
19340TIP3    H279512   4.689   2.812   0.238 -1.4307  1.6915 -0.3595
19341TIP3   OH279513   1.022   6.254   4.677  0.2927  0.1616 -0.1040
19341TIP3    H179514   1.111   6.219   4.664  0.8822  1.3166  0.6584
19341TIP3    H279515   1.033   6.323   4.743 -0.8484  1.6411 -1.3889
19342TIP3   OH279516   3.900   1.399  16.682 -0.0716 -0.2031  0.0112
19342TIP3    H179517   3.871   1.342  16.753  1.5335 -0.7277  0.2853
19342TIP3    H279518   3.944   1.472  16.726 -2.0242  1.2573 -0.3371
19343TIP3   OH279519   0.168   2.862   0.176 -0.1481 -0.0978 -0.3800
19343TIP3    H179520   0.127   2.937   0.132 -4.3151 -0.8448  1.7692
19343TIP3    H279521   0.192   2.895   0.263  1.3912 -0.4288 -0.6479
19344TIP3   OH279522   1.070   3.423   0.127  0.3519  0.0439  0.1481
19344TIP3    H179523   1.062   3.441   0.034  0.0773  1.3669  0.4132
19344TIP3    H279524   1.063   3.328   0.134 -1.7360  0.0660 -0.9748
19345TIP3   OH279525   2.724   0.357  16.110  0.5421 -0.5413  0.9028
19345TIP3    H179526   2.632   0.332  16.100 -0.4214  2.9574 -0.7221
19345TIP3    H279527   2.774   0.284  16.074 -1.8601 -0.7316 -2.5130
19346TIP3   OH279528   5.997   4.473  14.328  0.1092 -0.4671 -0.1204
19346TIP3    H179529   5.923   4.419  14.355 -0.0090 -0.3187 -0.1493
19346TIP3    H279530   6.006   4.455  14.234 -0.8628  0.6788 -0.4587
19347TIP3   OH279531   2.767   1.018   0.393  0.4892  0.8424  0.2356
19347TIP3    H179532   2.861   1.007   0.404  0.4054  0.2063  0.3754
19347TIP3    H279533   2.740   1.075   0.465  0.4436 -0.7209  1.5223
19348TIP3   OH279534   2.593   6.209  15.220  0.0989 -0.1518 -0.0531
19348TIP3    H179535   2.608   6.303  15.208 -2.2664  0.4757  1.2050
19348TIP3    H279536   2.546   6.181  15.142  2.4168 -0.8180 -1.3221
19349TIP3   OH279537   6.099   4.163  15.849  0.2707 -0.0239  0.0380
19349TIP3    H179538   6.003   4.160  15.849  0.2668  0.1074 -0.0525
19349TIP3    H279539   6.122   4.193  15.937  0.2396 -0.4316  0.1850
19350TIP3   OH279540   6.186   3.615  12.455 -0.2529  0.1485 -0.2848
19350TIP3    H179541   6.211   3.531  12.416 -1.8671 -0.6896  0.4211
19350TIP3    H279542   6.109   3.596  12.508  0.2824  1.7815  1.1891
19351TIP3   OH279543   1.296   2.597   4.559  0.3841  0.7137  0.2261
19351TIP3    H179544   1.348   2.672   4.529  2.1146 -0.7778 -0.7355
19351TIP3    H279545   1.209   2.612   4.521  1.0096  1.6524 -0.9195
19352TIP3   OH279546   1.554   3.856  15.739 -0.3487  0.6613  0.7015
19352TIP3    H179547   1.599   3.794  15.796 -0.0231  0.6246  0.4049
19352TIP3    H279548   1.478   3.807  15.706 -0.4099  0.6088  0.9139
19353TIP3   OH279549   3.123   6.604  11.973 -0.1850 -0.0937  0.0535
19353TIP3    H179550   3.058   6.568  12.033  1.6815 -3.6213  0.1807
19353TIP3    H279551   3.080   6.604  11.888 -1.0250 -0.3283  0.4687
19354TIP3   OH279552   3.392   4.415   3.560  0.9928 -0.3454  0.2574
19354TIP3    H179553   3.376   4.329   3.522  1.0219 -1.0114  1.6799
19354TIP3    H279554   3.309   4.463   3.548  0.3033 -1.2653  1.1942
19355TIP3   OH279555   0.649   6.689   2.163  0.4703  0.1731 -0.2180
19355TIP3    H179556   0.698   6.666   2.084  1.6385  0.3785  0.4210
19355TIP3    H279557   0.648   6.609   2.216 -1.3744 -0.3321 -0.9326
19356TIP3   OH279558   3.460   2.406   1.032 -0.3772  0.0304  0.1147
19356TIP3    H179559   3.448   2.408   1.126 -1.9508 -1.0090 -0.0217
19356TIP3    H279560   3.379   2.368   0.998  0.4649 -0.3517 -1.5986
19357TIP3   OH279561   6.162   4.469   2.332  0.3505  0.0317 -0.1673
19357TIP3    H179562   6.138   4.560   2.319 -1.0153 -0.6690 -3.3716
19357TIP3    H279563   6.204   4.442   2.250 -0.5248 -2.5650  0.1368
19358TIP3   OH279564   6.777   3.154   4.379 -0.1317  0.4011 -0.2498
19358TIP3    H179565   6.719   3.109   4.317 -1.1770  1.1231  0.1797
19358TIP3    H279566   6.836   3.085   4.411  0.6178  0.0536 -2.2076
19359TIP3   OH279567   0.013   0.420  15.767 -0.0185  0.0922  0.1868
19359TIP3    H179568   0.097   0.411  15.722 -0.1584 -2.3074  0.2932
19359TIP3    H279569  -0.020   0.331  15.776 -2.2330  0.8976  0.8612
19360TIP3   OH279570   5.347   1.816   3.956  0.0149 -0.2945  0.3317
19360TIP3    H179571   5.362   1.790   4.047  1.3056 -0.8185 -0.0064
19360TIP3    H279572   5.377   1.907   3.952  1.3980 -0.7356  0.1097
19361TIP3   OH279573   5.010   4.232   0.850 -0.1837  0.6566  0.0328
19361TIP3    H179574   4.967   4.197   0.928 -0.6392  0.8762 -0.1159
19361TIP3    H279575   5.067   4.162   0.821 -1.7050 -0.2905 -0.7395
19362TIP3   OH279576   3.621   2.812  12.375 -0.7054 -0.3677 -0.7210
19362TIP3    H179577   3.569   2.812  12.455 -1.1593 -2.7739 -0.9316
19362TIP3    H279578   3.557   2.824  12.305 -0.0759  4.3710 -0.8061
19363TIP3   OH279579   6.470   6.611  13.263  0.0228 -0.0994  0.0428
19363TIP3    H179580   6.501   6.526  13.293  0.9936  0.0243 -0.5636
19363TIP3    H279581   6.459   6.601  13.169 -0.7371  0.1863  0.0975
19364TIP3   OH279582   6.373   5.502  14.382  0.9797 -0.2121  0.4338
19364TIP3    H179583   6.382   5.440  14.454 -0.9199 -0.5986  0.3931
19364TIP3    H279584   6.283   5.491  14.352  1.2940  0.9632 -1.0690
19365TIP3   OH279585   0.613   3.569   1.717  0.7012 -0.3437  0.4963
19365TIP3    H179586   0.698   3.601   1.687  0.0517  0.5558 -0.4669
19365TIP3    H279587   0.568   3.542   1.636 -1.4345  2.9482  0.3773
19366TIP3   OH279588   0.875   3.549   1.402 -0.1162  0.0406 -0.6766
19366TIP3    H179589   0.893   3.455   1.415 -0.1705 -0.1820 -2.0298
19366TIP3    H279590   0.907   3.591   1.482 -0.2715 -1.1501  0.0406
19367TIP3   OH279591   3.216   1.356   3.852 -0.1995  0.1237  0.0604
19367TIP3    H179592   3.257   1.440   3.873  0.0397  0.6797 -2.3138
19367TIP3    H279593   3.284   1.308   3.804  0.0885 -1.9847  2.3707
19368TIP3   OH279594   2.279   5.623  14.434  0.6717  0.6302  0.3802
19368TIP3    H179595   2.197   5.651  14.473  0.8426 -0.5667  1.6533
19368TIP3    H279596   2.341   5.619  14.507  1.5924  0.4996 -0.3833
19369TIP3   OH279597   0.978   6.515  13.192 -0.0440 -0.0411  0.5342
19369TIP3    H179598   1.037   6.488  13.121  0.5389 -1.7056  1.6179
19369TIP3    H279599   0.895   6.533  13.148  1.2246  2.6028 -1.0764
19370TIP3   OH279600   0.360   0.654  13.222 -0.5260  0.2924  0.3713
19370TIP3    H179601   0.323   0.600  13.293 -0.0436 -0.1577  0.2893
19370TIP3    H279602   0.452   0.664  13.246 -0.3916  0.2584 -0.1179
19371TIP3   OH279603   5.327   5.331  10.958 -0.3793 -0.5513 -0.2193
19371TIP3    H179604   5.400   5.341  10.896 -0.0219  2.1793  0.4811
19371TIP3    H279605   5.248   5.336  10.904 -0.0565 -0.8858 -0.7250
19372TIP3   OH279606   6.817   1.592  12.411 -0.2170 -0.2750  0.2660
19372TIP3    H179607   6.799   1.538  12.488 -2.0106  2.2647  1.7650
19372TIP3    H279608   6.910   1.612  12.418 -0.2590 -0.4222  1.5404
19373TIP3   OH279609   6.454   4.820  16.367 -0.6522  0.2258 -0.4121
19373TIP3    H179610   6.534   4.770  16.348 -0.1876  0.1140  1.6411
19373TIP3    H279611   6.455   4.893  16.305  1.0304  0.2054 -0.4352
19374TIP3   OH279612   4.823   1.957  12.110  0.1077  0.5789 -0.4879
19374TIP3    H179613   4.815   1.929  12.019  0.3965  1.9526 -0.9617
19374TIP3    H279614   4.905   1.919  12.140  0.7692  1.3263 -1.2844
19375TIP3   OH279615   4.086   0.924   2.738 -0.4271  0.0786  0.2940
19375TIP3    H179616   4.097   0.942   2.832  0.6692 -0.5670  0.3117
19375TIP3    H279617   4.023   0.989   2.708  0.6576  1.5607  1.0743
19376TIP3   OH279618   2.196   3.514  13.938  0.1319 -0.1253  0.3559
19376TIP3    H179619   2.127   3.571  13.972  0.1615  1.1979 -1.6013
19376TIP3    H279620   2.276   3.566  13.946  0.3877 -0.4308 -0.2015
19377TIP3   OH279621   1.619   6.629  11.766  0.4559  0.6583 -1.1354
19377TIP3    H179622   1.647   6.718  11.747  1.5981  0.6596  0.3490
19377TIP3    H279623   1.524   6.635  11.778  0.6232  1.8696 -0.1566
19378TIP3   OH279624   4.335   4.055   0.711  0.0218 -0.6229  0.1181
19378TIP3    H179625   4.330   3.972   0.663 -0.6210 -0.0596 -0.8135
19378TIP3    H279626   4.413   4.099   0.677 -0.2442 -0.3693 -0.1596
19379TIP3   OH279627   1.116   1.266   2.615  0.6539  0.5124  0.4524
19379TIP3    H179628   1.171   1.218   2.554 -0.2248  0.9808 -0.7458
19379TIP3    H279629   1.080   1.338   2.563  0.4132  1.3173  1.6991
19380TIP3   OH279630   2.490   2.511   4.467  0.2708  0.4798  0.4115
19380TIP3    H179631   2.582   2.515   4.495  0.6962  1.1963 -0.9973
19380TIP3    H279632   2.464   2.603   4.458  0.0432  0.2926 -1.0886
19381TIP3   OH279633   2.255   4.609  17.032 -0.2750  0.1743 -0.0942
19381TIP3    H179634   2.296   4.674  17.089 -0.5364 -0.3769  0.7455
19381TIP3    H279635   2.236   4.656  16.951  2.9512  0.2031 -0.9326
19382TIP3   OH279636   4.846   5.918   4.583  0.5663  0.6435  0.3586
19382TIP3    H179637   4.773   5.902   4.524  1.1530 -3.3196  0.3821
19382TIP3    H279638   4.819   5.880   4.667  2.4390 -0.7256  0.4280
19383TIP3   OH279639   2.044   1.719   5.572 -0.0050  0.6326  0.1229
19383TIP3    H179640   2.042   1.629   5.540  1.1927  0.7151 -0.2172
19383TIP3    H279641   2.099   1.765   5.509 -1.5291  1.8806 -0.3641
19384TIP3   OH279642   3.727   2.197   4.649 -0.3296  0.6379  0.1071
19384TIP3    H179643   3.689   2.285   4.658  1.3002  1.2145  2.0229
19384TIP3    H279644   3.755   2.174   4.738 -1.1529 -2.0726 -0.2397
19385TIP3   OH279645   6.397   6.709  14.599  0.0208 -1.0659  0.0433
19385TIP3    H179646   6.318   6.739  14.553 -0.3837 -1.8120  0.2348
19385TIP3    H279647   6.444   6.789  14.622 -0.6962 -0.6147 -0.0474
19386TIP3   OH279648   3.206   4.679  13.697  0.2432  0.0307 -0.0110
19386TIP3    H179649   3.287   4.670  13.747 -0.2871  0.0597  0.8701
19386TIP3    H279650   3.168   4.591  13.697  0.1191  0.0840 -0.1597
19387TIP3   OH279651   4.184   2.712  11.727 -0.1095 -0.3353 -0.3246
19387TIP3    H179652   4.157   2.708  11.819 -0.9667 -1.6296 -0.6167
19387TIP3    H279653   4.142   2.792  11.693 -1.4924 -0.9370 -0.1001
19388TIP3   OH279654   4.514   6.280   4.898  0.7574 -0.2008 -0.6519
19388TIP3    H179655   4.428   6.242   4.882  0.1809  0.4100  0.8657
19388TIP3    H279656   4.576   6.209   4.878 -0.1775 -1.2327  0.0271
19389TIP3   OH279657   5.460   1.059   5.526  0.2686  0.2690 -0.1865
19389TIP3    H179658   5.459   1.154   5.513  2.2665  0.2822 -0.5444
19389TIP3    H279659   5.467   1.048   5.620 -1.5874  0.4077  0.0068
19390TIP3   OH279660   1.702   4.487   2.777 -0.4694 -0.1151  0.4303
19390TIP3    H179661   1.738   4.558   2.723 -2.3890  1.9779  1.7362
19390TIP3    H279662   1.610   4.481   2.752 -0.8136 -0.7854  1.7559
19391TIP3   OH279663   5.239   2.855   0.237  0.4597 -0.6017 -0.2843
19391TIP3    H179664   5.326   2.845   0.198 -0.1853 -1.1408 -1.6468
19391TIP3    H279665   5.184   2.887   0.165 -0.5950 -0.7941  0.4125
19392TIP3   OH279666   3.525   6.593  16.885 -0.0032 -0.3567 -0.4654
19392TIP3    H179667   3.573   6.512  16.903  0.6334 -0.1934 -1.3326
19392TIP3    H279668   3.477   6.612  16.965 -0.7805 -2.0127 -0.5050
19393TIP3   OH279669   6.535   4.091  11.322  0.3272 -0.3009  0.0118
19393TIP3    H179670   6.602   4.059  11.262 -2.2295 -2.8137 -1.8246
19393TIP3    H279671   6.490   4.161  11.274  1.2802  1.0931  1.0661
19394TIP3   OH279672   6.266   3.881   4.756  0.1978  0.0864 -0.3983
19394TIP3    H179673   6.172   3.861   4.755  0.1036  0.4424  0.5279
19394TIP3    H279674   6.304   3.814   4.813  0.3955  0.4144 -0.1463
19395TIP3   OH279675   6.260   2.936   4.580 -0.0140 -0.7231  0.3429
19395TIP3    H179676   6.208   3.011   4.610 -1.0870 -1.7786  1.2608
19395TIP3    H279677   6.229   2.863   4.634  3.3572 -1.2010  1.8825
19396TIP3   OH279678   1.791   6.350   3.249 -0.0236 -0.5878 -0.2372
19396TIP3    H179679   1.760   6.358   3.339 -0.1779 -0.0901 -0.3323
19396TIP3    H279680   1.886   6.348   3.256 -0.0368 -0.6010 -0.0618
19397TIP3   OH279681   4.302   5.987   3.866 -0.0544  0.7906 -0.2960
19397TIP3    H179682   4.394   6.014   3.872 -0.5878  2.4831  1.0283
19397TIP3    H279683   4.254   6.068   3.854 -1.3532 -0.1511 -1.9328
19398TIP3   OH279684   4.005   4.378  14.562  0.2513  0.1134 -0.2498
19398TIP3    H179685   4.056   4.337  14.632 -0.6048 -0.4040  0.0745
19398TIP3    H279686   3.962   4.306  14.518 -0.6585  0.5923 -0.1610
19399TIP3   OH279687   3.968   1.332  15.579  0.2196  0.1786  0.6825
19399TIP3    H179688   3.995   1.249  15.540 -0.5461  0.5168 -0.6187
19399TIP3    H279689   3.892   1.359  15.529  0.0786  1.3723  1.4875
19400TIP3   OH279690   1.902   4.478  12.736 -0.8618 -0.2841  0.0108
19400TIP3    H179691   1.890   4.546  12.802 -2.0538 -0.4033 -0.0620
19400TIP3    H279692   1.997   4.472  12.725 -0.7345  2.2690 -0.9324
19401TIP3   OH279693   1.529   5.769   2.979 -0.2590 -0.4221  0.3883
19401TIP3    H179694   1.512   5.771   2.885 -0.2178 -0.4042  0.3812
19401TIP3    H279695   1.592   5.840   2.994 -0.8549  0.0789  0.5511
19402TIP3   OH279696   6.298   0.959  13.849  0.1390 -0.1999 -0.2075
19402TIP3    H179697   6.282   0.941  13.757  0.1199 -2.0433  0.1103
19402TIP3    H279698   6.214   0.988  13.883 -0.1129 -0.5136 -0.5589
19403TIP3   OH279699   4.563   4.974  14.959  0.4143 -0.3519 -0.3350
19403TIP3    H179700   4.551   4.927  15.042 -2.1108 -0.8189 -0.9033
19403TIP3    H279701   4.578   5.065  14.984 -0.6997 -0.4190  0.6542
19404TIP3   OH279702   1.766   5.871  12.912  0.2197  0.0249  0.2810
19404TIP3    H179703   1.841   5.819  12.939 -0.2652 -1.2444 -0.7157
19404TIP3    H279704   1.763   5.862  12.817 -0.7753  0.6261  0.2380
19405TIP3   OH279705   6.664   0.990   2.588 -0.1947  0.4709 -0.0601
19405TIP3    H179706   6.704   0.924   2.532  0.9958  1.2266 -0.1395
19405TIP3    H279707   6.643   1.062   2.529  1.6211  1.5213  0.4908
19406TIP3   OH279708   2.758   6.045   0.894  0.2392  0.1474 -0.3635
19406TIP3    H179709   2.847   6.052   0.859 -0.1078 -0.0885 -1.3267
19406TIP3    H279710   2.769   6.058   0.989  1.4525 -1.0730 -0.3054
19407TIP3   OH279711   4.502   3.056  14.601  0.6050 -0.1858  0.2367
19407TIP3    H179712   4.501   2.968  14.640 -0.3693 -0.6665 -0.7985
19407TIP3    H279713   4.411   3.073  14.578  0.7300  1.2551  0.7282
19408TIP3   OH279714   6.056   3.705   5.816  0.9088  0.0646  0.1452
19408TIP3    H179715   6.004   3.761   5.873  0.3261  0.7735 -1.0586
19408TIP3    H279716   6.145   3.711   5.852  0.9778  2.1984 -0.2308
19409TIP3   OH279717   5.872   4.414  12.936 -0.1490 -0.2256 -0.3032
19409TIP3    H179718   5.806   4.374  12.880  1.1235 -2.1580 -0.5206
19409TIP3    H279719   5.954   4.405  12.888  0.6106  0.2658  0.8339
19410TIP3   OH279720   6.657   4.769   3.747 -0.4836  0.1379 -0.1681
19410TIP3    H179721   6.636   4.696   3.805  2.5045 -0.0379  0.8871
19410TIP3    H279722   6.627   4.847   3.794 -0.0447 -0.1520  0.5987
19411TIP3   OH279723   0.405   1.697  13.883 -0.1511  0.1682 -0.3762
19411TIP3    H179724   0.408   1.705  13.788 -0.5000 -1.1172 -0.5091
19411TIP3    H279725   0.496   1.681  13.909  0.0253  1.0373 -0.4291
19412TIP3   OH279726   5.798   5.144   3.017 -0.5751  0.2640 -0.1716
19412TIP3    H179727   5.797   5.170   3.109  1.1269  0.8722 -0.3000
19412TIP3    H279728   5.724   5.084   3.009 -1.0767  0.6057  1.4606
19413TIP3   OH279729   0.018   5.552   0.112  0.1923 -0.4901  0.1973
19413TIP3    H179730  -0.057   5.505   0.148  0.6099 -0.6019  0.9470
19413TIP3    H279731   0.089   5.533   0.173  0.7895 -0.2579 -0.4213
19414TIP3   OH279732   3.098   2.125  15.605 -0.6073 -0.5897 -0.3148
19414TIP3    H179733   3.039   2.064  15.562 -0.7014  0.5823 -1.9735
19414TIP3    H279734   3.113   2.194  15.539 -1.0701  1.5340  1.6537
19415TIP3   OH279735   5.886   3.857   5.939  0.1924  0.3641  0.0042
19415TIP3    H179736   5.872   3.894   6.026 -2.0765  0.9327 -0.5475
19415TIP3    H279737   5.823   3.903   5.883  1.6923  0.1252 -1.9867
19416TIP3   OH279738   3.377   3.661  14.222  0.9380  0.3229 -0.7764
19416TIP3    H179739   3.304   3.668  14.161  0.2572 -1.7578 -0.2849
19416TIP3    H279740   3.365   3.732  14.284 -0.1050  0.5774 -1.2557
19417TIP3   OH279741   4.336   6.723   2.574 -0.5862 -0.1153 -0.8758
19417TIP3    H179742   4.300   6.706   2.660 -0.0859 -0.4252 -0.7209
19417TIP3    H279743   4.302   6.653   2.519 -1.2111  0.2999 -1.0198
19418TIP3   OH279744   3.038   0.135   4.932  0.4307  0.2147  0.3644
19418TIP3    H179745   2.990   0.098   5.006  0.4955 -0.3316  0.1363
19418TIP3    H279746   2.996   0.220   4.917  1.0320  0.7559  1.6162
19419TIP3   OH279747   0.574   6.475   5.825 -0.1926 -0.0334 -0.2517
19419TIP3    H179748   0.502   6.432   5.872  0.0693 -0.1873  0.0160
19419TIP3    H279749   0.614   6.406   5.773  0.0201 -0.0440 -0.0779
19420TIP3   OH279750   0.941   6.270  15.573 -0.2360 -0.2188 -0.1880
19420TIP3    H179751   1.034   6.252  15.560 -0.4171 -3.2206  1.8304
19420TIP3    H279752   0.896   6.207  15.517 -1.2241  2.1398 -2.2817
19421TIP3   OH279753   2.074   4.897   1.530 -0.1280 -0.0565 -0.3869
19421TIP3    H179754   2.101   4.805   1.542  0.4358  0.1841  0.2454
19421TIP3    H279755   2.022   4.896   1.450  0.4520 -0.8186 -0.7757
19422TIP3   OH279756   5.573   4.861  16.084  0.2591 -1.1263 -0.7540
19422TIP3    H179757   5.574   4.796  16.155 -2.0748 -0.3566  0.0562
19422TIP3    H279758   5.595   4.943  16.127  2.3548 -1.1754 -1.6251
19423TIP3   OH279759   4.728   6.396  13.721  0.1275 -0.1026 -0.4757
19423TIP3    H179760   4.783   6.319  13.735  0.6777  0.6912  2.3756
19423TIP3    H279761   4.640   6.368  13.744  0.2786  0.0128  0.2666
19424TIP3   OH279762   4.816   0.796  14.912 -0.2027 -0.1464 -0.2375
19424TIP3    H179763   4.784   0.711  14.882 -0.1638 -0.3941  0.4155
19424TIP3    H279764   4.861   0.778  14.994  1.9564  0.1479 -1.3016
19425TIP3   OH279765   3.299   0.074  14.207 -0.5308  0.0283  0.1018
19425TIP3    H179766   3.255   0.079  14.122 -1.5476 -0.3529  0.5924
19425TIP3    H279767   3.306  -0.020  14.224  0.4546  0.0774  0.0617
19426TIP3   OH279768   2.410   1.115   4.232 -0.5905 -0.5702  0.0013
19426TIP3    H179769   2.362   1.088   4.153  1.3653 -0.2377 -1.3747
19426TIP3    H279770   2.389   1.207   4.243 -1.0564 -0.6755  0.0208
19427TIP3   OH279771   5.242   0.982   2.622 -0.1245 -0.0100 -0.5374
19427TIP3    H179772   5.164   0.999   2.569 -0.1261 -1.0445 -0.9020
19427TIP3    H279773   5.209   0.942   2.702 -0.1955  2.3831  0.7040
19428TIP3   OH279774   5.356   4.555  11.117 -0.6832 -0.2729 -0.4763
19428TIP3    H179775   5.273   4.517  11.147 -1.2122  0.8051 -0.5357
19428TIP3    H279776   5.334   4.601  11.037  0.2544 -1.0871 -1.2390
19429TIP3   OH279777   3.675   2.544  15.233  0.2194  0.0976 -0.4545
19429TIP3    H179778   3.754   2.492  15.247  0.0835  0.1131  0.3949
19429TIP3    H279779   3.674   2.559  15.139  0.8585 -0.4906 -0.5700
19430TIP3   OH279780   3.638   3.280  12.499  0.1409  0.3978 -0.2476
19430TIP3    H179781   3.709   3.216  12.493 -0.0729  0.0783  0.5116
19430TIP3    H279782   3.682   3.363  12.522  0.3006  0.2636 -0.0641
19431TIP3   OH279783   3.147   1.861  14.813 -0.2453  0.2520 -0.0402
19431TIP3    H179784   3.083   1.827  14.751  2.7312 -2.0396 -2.2274
19431TIP3    H279785   3.135   1.807  14.891 -1.1034  0.0057 -0.3319
19432TIP3   OH279786   5.097   6.451   5.456 -0.0813 -0.4023 -0.0782
19432TIP3    H179787   5.144   6.534   5.461 -0.5124 -0.0951 -0.8962
19432TIP3    H279788   5.158   6.386   5.489  1.6592 -0.2918 -2.7684
19433TIP3   OH279789   5.765   2.814  13.031 -0.4765  0.1464  0.5245
19433TIP3    H179790   5.791   2.862  12.952 -0.4510  0.1215  0.5174
19433TIP3    H279791   5.772   2.879  13.101  1.3490 -0.3160  0.8183
19434TIP3   OH279792   1.235   4.575   1.358 -0.1107  0.6309 -0.2927
19434TIP3    H179793   1.156   4.581   1.305 -1.4012 -1.1096  1.2604
19434TIP3    H279794   1.281   4.498   1.325 -0.6504 -0.1452  0.6968
19435TIP3   OH279795   1.234   0.954  11.782 -0.8917 -0.0733 -0.2924
19435TIP3    H179796   1.184   0.981  11.706 -1.3979 -1.8954 -0.6553
19435TIP3    H279797   1.291   0.883  11.750  2.1489  2.0001  0.0410
19436TIP3   OH279798   6.777   3.708  13.612 -0.3525  0.3844 -0.0528
19436TIP3    H179799   6.814   3.774  13.671  0.4594  0.2014 -0.3356
19436TIP3    H279800   6.841   3.636  13.613 -0.4196  0.2919 -0.9836
19437TIP3   OH279801   3.459   2.840  12.146 -0.0438  0.1121 -0.1506
19437TIP3    H179802   3.454   2.776  12.075 -0.2372  1.5127 -1.4513
19437TIP3    H279803   3.370   2.873  12.156  0.1304  0.4901  0.2103
19438TIP3   OH279804   6.807   6.856   2.584  0.1715  0.0872 -0.0731
19438TIP3    H179805   6.727   6.823   2.541  0.0587  2.1880 -1.5955
19438TIP3    H279806   6.862   6.887   2.512  1.1678  1.2395  1.1440
19439TIP3   OH279807   0.830   2.782   3.303 -0.1191  0.2313 -0.6166
19439TIP3    H179808   0.878   2.786   3.220 -0.3719  0.9158 -0.7408
19439TIP3    H279809   0.805   2.873   3.320  1.6500  0.4472  1.2494
19440TIP3   OH279810   0.900   0.669   3.579 -0.3297  0.1582 -0.0359
19440TIP3    H179811   0.849   0.588   3.589  1.2015 -0.7864  0.6360
19440TIP3    H279812   0.852   0.720   3.514 -1.6844 -1.0133 -0.0160
19441TIP3   OH279813   1.801   3.449   1.618 -0.0261 -0.9008 -0.0364
19441TIP3    H179814   1.814   3.388   1.690  2.3260 -0.7518 -0.2695
19441TIP3    H279815   1.838   3.405   1.542 -0.9510 -0.3626 -0.8246
19442TIP3   OH279816   6.690   6.153   3.914  0.1303 -0.7005 -0.5490
19442TIP3    H179817   6.738   6.191   3.988  0.2058  0.5892 -1.2487
19442TIP3    H279818   6.700   6.058   3.927 -3.2188 -0.7846  3.3396
19443TIP3   OH279819   5.732   2.903   0.745 -0.0552 -0.1786 -0.3614
19443TIP3    H179820   5.803   2.933   0.688 -0.2967  0.2223 -0.4523
19443TIP3    H279821   5.731   2.808   0.733  2.2463 -0.5720  1.6844
19444TIP3   OH279822   0.205   2.212  16.030 -0.6282  0.1084  0.1504
19444TIP3    H179823   0.156   2.215  16.112 -1.7858  0.3977 -0.5411
19444TIP3    H279824   0.216   2.118  16.012 -3.0305 -0.0315 -0.8987
19445TIP3   OH279825   2.444   2.727  14.697 -0.0595 -0.2594  0.2393
19445TIP3    H179826   2.377   2.685  14.750  0.3412 -0.6566  0.4452
19445TIP3    H279827   2.485   2.791  14.755  1.0001 -1.3330  0.7345
19446TIP3   OH279828   0.010   4.461  16.143 -0.5597  0.1046  0.8308
19446TIP3    H179829   0.074   4.484  16.211  1.5784 -1.0609 -0.6778
19446TIP3    H279830   0.016   4.533  16.080 -0.6352 -0.0801  0.6117
19447TIP3   OH279831   0.157   0.200  13.461 -0.3463  0.8459 -0.5250
19447TIP3    H179832   0.139   0.225  13.551  0.1285 -0.9302  0.1125
19447TIP3    H279833   0.100   0.125  13.445 -0.4987  1.1972 -1.7427
19448TIP3   OH279834   3.066   3.430  16.503 -0.5088 -0.2362 -0.0920
19448TIP3    H179835   2.986   3.397  16.543  0.0185 -1.6130 -0.1131
19448TIP3    H279836   3.136   3.398  16.559  0.0845  0.0335 -0.6605
19449TIP3   OH279837   3.424   5.586  15.366 -0.0818 -0.2085  0.0595
19449TIP3    H179838   3.461   5.574  15.278 -0.5001  0.6730 -0.2441
19449TIP3    H279839   3.485   5.540  15.424  0.7489  0.0633 -0.5794
19450TIP3   OH279840   6.437   3.527  11.633  0.4145 -0.0658 -0.7755
19450TIP3    H179841   6.416   3.590  11.702 -1.9883 -1.2380 -0.3077
19450TIP3    H279842   6.532   3.517  11.637  0.7344  2.5719 -0.0763
19451TIP3   OH279843   1.615   4.541   0.040 -0.0889 -0.4710  0.2175
19451TIP3    H179844   1.634   4.610   0.103 -0.1135 -0.4432  0.1944
19451TIP3    H279845   1.566   4.584  -0.030  0.8200 -0.2994 -0.3227
19452TIP3   OH279846   3.454   4.560  11.904  0.2529  0.3612 -0.3144
19452TIP3    H179847   3.537   4.522  11.934  0.7732  0.9245 -1.0190
19452TIP3    H279848   3.472   4.653  11.897 -0.4113  0.4705 -0.5787
19453TIP3   OH279849   4.366   6.657  10.932 -0.0708 -0.7715  0.2696
19453TIP3    H179850   4.403   6.745  10.932 -0.7168 -0.3915 -2.5256
19453TIP3    H279851   4.304   6.657  11.005 -1.3586  1.7244 -0.6927
19454TIP3   OH279852   1.804   3.082  12.832 -0.0338 -0.1241  0.4933
19454TIP3    H179853   1.900   3.085  12.839 -0.0526 -1.7294  2.4383
19454TIP3    H279854   1.785   2.992  12.806 -0.9778  0.9422 -2.9646
19455TIP3   OH279855   6.625   5.935   4.207 -0.3690  0.2223 -0.3697
19455TIP3    H179856   6.588   5.856   4.167 -0.9475  1.1634 -1.8095
19455TIP3    H279857   6.715   5.912   4.227 -0.7758 -1.0652  0.0232
19456TIP3   OH279858   0.841   0.196  16.829 -0.3643 -0.1226  0.2981
19456TIP3    H179859   0.766   0.153  16.871 -0.6691 -0.3160 -0.4289
19456TIP3    H279860   0.881   0.128  16.775  0.7488 -0.2014  1.1857
19457TIP3   OH279861   4.280   0.208  14.895  0.3666  0.3208  0.4479
19457TIP3    H179862   4.194   0.246  14.875  0.6335  0.6847 -0.0197
19457TIP3    H279863   4.271   0.116  14.871 -0.8802 -0.4146  3.3096
19458TIP3   OH279864   1.517   6.387   0.646  0.4386 -0.3407 -0.3391
19458TIP3    H179865   1.605   6.351   0.647  0.8715  0.6786 -0.0034
19458TIP3    H279866   1.493   6.388   0.553  1.8337  1.7384 -0.7724
19459TIP3   OH279867   4.045   6.811   1.614  0.0685 -0.4881  0.2419
19459TIP3    H179868   3.980   6.816   1.544  0.3346  2.2836  0.0564
19459TIP3    H279869   3.995   6.828   1.694  0.3976  1.1337  0.1505
19460TIP3   OH279870   4.986   4.383   1.552  1.0915 -0.2011 -0.2378
19460TIP3    H179871   4.931   4.308   1.575  0.5282  0.3716  0.2953
19460TIP3    H279872   5.060   4.377   1.613  1.3872 -0.6926 -0.6342
19461TIP3   OH279873   3.003   4.057  12.781 -0.5210  0.3260  0.3210
19461TIP3    H179874   2.967   4.077  12.867 -1.3774 -0.8898  0.2564
19461TIP3    H279875   3.060   3.982  12.796  0.2711  0.8486  0.0199
19462TIP3   OH279876   5.712   3.107   5.727 -0.7885 -0.2085 -0.6360
19462TIP3    H179877   5.755   3.024   5.748  0.0078  0.0703 -1.1128
19462TIP3    H279878   5.636   3.110   5.785  0.1383 -0.4669  0.6548
19463TIP3   OH279879   4.032   3.459   2.488 -0.6969 -0.4471 -0.1258
19463TIP3    H179880   3.984   3.540   2.471 -1.3692 -0.6576  0.7102
19463TIP3    H279881   4.112   3.487   2.532 -0.4850 -0.1699 -0.6743
19464TIP3   OH279882   0.192   1.655  16.892  0.1238  0.2838 -0.4386
19464TIP3    H179883   0.131   1.657  16.818 -0.0633  1.0199 -0.2760
19464TIP3    H279884   0.213   1.562  16.904 -1.1997 -0.0177 -0.3109
19465TIP3   OH279885   3.941   5.643   2.280 -0.0467  0.2043  0.0506
19465TIP3    H179886   3.956   5.627   2.373 -0.7393  0.1304  0.1529
19465TIP3    H279887   3.899   5.563   2.248  0.8006 -0.0451 -0.4819
19466TIP3   OH279888   4.250   0.967  16.007  0.5633 -0.1895 -0.0711
19466TIP3    H179889   4.286   0.879  15.996  2.2441  0.5175 -0.6774
19466TIP3    H279890   4.299   1.003  16.081 -0.8179 -0.0910  0.8159
19467TIP3   OH279891   1.623   4.256   0.467 -0.1966 -0.0092  0.2397
19467TIP3    H179892   1.553   4.286   0.410 -0.8693 -2.1613 -0.1592
19467TIP3    H279893   1.703   4.290   0.427 -0.8008  0.0877 -0.9083
19468TIP3   OH279894   4.687   4.849  14.141 -0.1559 -0.2055  0.3615
19468TIP3    H179895   4.782   4.842  14.144 -0.1485 -0.4791 -0.2260
19468TIP3    H279896   4.657   4.759  14.128 -0.4627 -0.0604  0.0327
19469TIP3   OH279897   5.174   0.429  10.659  0.1391  0.0290  0.2555
19469TIP3    H179898   5.243   0.456  10.720 -0.8652  1.9515  0.6228
19469TIP3    H279899   5.215   0.362  10.604  2.2141  0.9293  0.6153
19470TIP3   OH279900   5.388   2.288  11.253 -0.2527  0.1707  0.5182
19470TIP3    H179901   5.344   2.338  11.322  0.1297 -0.2723  1.0939
19470TIP3    H279902   5.319   2.237  11.211 -0.6212  1.0509  0.0274
19471TIP3   OH279903   2.430   3.094   4.378 -0.0171 -0.0628 -0.0401
19471TIP3    H179904   2.486   3.092   4.301 -1.0496  0.4878 -0.8186
19471TIP3    H279905   2.416   3.002   4.400  1.3337 -0.2032  0.2858
19472TIP3   OH279906   5.135   2.447   3.709  0.3502 -0.0355  0.0792
19472TIP3    H179907   5.057   2.501   3.691 -0.9304 -0.7763  2.7866
19472TIP3    H279908   5.209   2.507   3.698 -0.4891  0.5631 -3.0562
19473TIP3   OH279909   0.738   5.503   3.836  0.4562  0.4992 -0.1283
19473TIP3    H179910   0.682   5.444   3.785  0.3442  0.5377 -0.0489
19473TIP3    H279911   0.689   5.585   3.841  0.5745  0.5743 -0.1655
19474TIP3   OH279912   4.255   2.289   2.829 -0.0265  0.2448 -0.4342
19474TIP3    H179913   4.183   2.284   2.766 -0.3846 -2.2421  0.0492
19474TIP3    H279914   4.328   2.244   2.787  0.1475 -0.2526  0.3575
19475TIP3   OH279915   6.139   5.357   4.393  0.3335 -0.4720  0.0675
19475TIP3    H179916   6.202   5.429   4.397  0.4042 -0.4567 -0.8918
19475TIP3    H279917   6.090   5.362   4.475  0.5256  0.5002  0.1299
19476TIP3   OH279918   2.373   0.276  12.808 -0.1002 -0.0520  0.4526
19476TIP3    H179919   2.332   0.284  12.894  1.1086  0.9636  0.9674
19476TIP3    H279920   2.360   0.184  12.783 -0.5099 -0.3475  1.6987
19477TIP3   OH279921   0.488   6.619   3.547  0.0417  0.4143 -0.1410
19477TIP3    H179922   0.576   6.643   3.517  0.4211 -0.1484  0.4739
19477TIP3    H279923   0.503   6.579   3.633 -0.6424 -1.0123 -0.6463
19478TIP3   OH279924   1.875   0.714  13.602 -0.1988  0.0359  0.4970
19478TIP3    H179925   1.868   0.810  13.606  0.7074  0.0855  1.0808
19478TIP3    H279926   1.803   0.683  13.657  0.6412  0.4324  1.8673
19479TIP3   OH279927   6.619   3.421   5.505 -0.1278  0.4941  0.5927
19479TIP3    H179928   6.686   3.390   5.445 -0.3046  1.5495 -0.1626
19479TIP3    H279929   6.587   3.341   5.548  0.4638 -0.1979 -0.2215
19480TIP3   OH279930   4.997   6.374   4.110  0.1164  0.2474  0.0888
19480TIP3    H179931   5.024   6.351   4.199 -2.1284  1.0387  1.0572
19480TIP3    H279932   5.006   6.293   4.060  0.9969 -0.3212  1.1288
19481TIP3   OH279933   1.777   3.581   4.985 -0.4581 -0.0066 -0.1284
19481TIP3    H179934   1.722   3.505   4.968  0.4673 -0.5653 -0.6993
19481TIP3    H279935   1.811   3.605   4.899  1.4209 -0.6363  0.4106
19482TIP3   OH279936   1.537   6.759   6.191  0.0038 -0.3428 -0.3971
19482TIP3    H179937   1.545   6.833   6.130 -1.1246 -1.3219 -1.8068
19482TIP3    H279938   1.474   6.789   6.257  1.3252  0.7757  0.4033
19483TIP3   OH279939   3.260   4.266   2.440 -0.4270 -0.5252  0.3084
19483TIP3    H179940   3.189   4.211   2.405 -0.6362  1.2022 -2.2137
19483TIP3    H279941   3.340   4.227   2.406 -0.4891 -0.0005 -0.4514
19484TIP3   OH279942   2.486   3.438   0.769 -0.2632  0.3539  0.3077
19484TIP3    H179943   2.495   3.343   0.760  0.6316  0.5398 -1.3028
19484TIP3    H279944   2.405   3.450   0.817  0.5617 -1.2490  2.2316
19485TIP3   OH279945   3.711   1.434  15.456  0.1968 -0.3231 -0.0440
19485TIP3    H179946   3.671   1.347  15.461 -1.1960  0.3401  0.9210
19485TIP3    H279947   3.641   1.495  15.480  1.5628  0.9576  0.9129
19486TIP3   OH279948   6.158   0.735   3.144 -0.6503 -0.1215 -0.1911
19486TIP3    H179949   6.148   0.645   3.115 -0.9867 -0.1076 -0.1143
19486TIP3    H279950   6.134   0.788   3.067 -0.8144 -0.0936 -0.1209
19487TIP3   OH279951   2.191   1.802   1.747  0.2654  0.6539  0.5281
19487TIP3    H179952   2.149   1.869   1.693  0.6438 -0.0240 -0.6511
19487TIP3    H279953   2.130   1.788   1.820 -2.4505 -1.4146 -1.8960
19488TIP3   OH279954   1.441   6.436  12.679 -0.1656 -0.3810 -0.0883
19488TIP3    H179955   1.516   6.493  12.692 -1.4843  1.2505  0.8051
19488TIP3    H279956   1.401   6.467  12.598  0.9471 -2.2927 -1.4612
19489TIP3   OH279957   5.415   3.179  10.887  0.9255 -0.2380  0.1074
19489TIP3    H179958   5.415   3.249  10.822  0.9891  1.2389  1.6215
19489TIP3    H279959   5.449   3.103  10.840  0.9430  0.7556 -1.5817
19490TIP3   OH279960   5.790   5.242  14.532 -0.2322 -0.3058  0.2686
19490TIP3    H179961   5.828   5.307  14.591 -1.6981 -0.3946  1.3453
19490TIP3    H279962   5.739   5.293  14.469 -1.4965 -0.3831  1.1975
19491TIP3   OH279963   6.421   4.711  12.010 -0.1073 -0.3664  0.3707
19491TIP3    H179964   6.334   4.674  11.998 -0.7037  0.0863  2.7831
19491TIP3    H279965   6.447   4.685  12.098  2.2172 -0.4648 -0.2639
19492TIP3   OH279966   6.190   4.441  13.701 -0.0656 -0.3795  0.4134
19492TIP3    H179967   6.257   4.440  13.633  0.1396 -2.8748  0.5717
19492TIP3    H279968   6.110   4.413  13.657  0.3481 -3.3284  1.3519
19493TIP3   OH279969   3.377   2.641  13.742  0.5055 -0.5031 -0.1260
19493TIP3    H179970   3.443   2.710  13.741 -0.2528  0.2448 -0.1350
19493TIP3    H279971   3.304   2.678  13.792 -0.0614 -1.1531 -0.4469
19494TIP3   OH279972   0.352   0.144   4.166 -0.3463  0.0179  0.2280
19494TIP3    H179973   0.300   0.193   4.102  0.7779 -0.7204 -1.3087
19494TIP3    H279974   0.318   0.055   4.162 -1.1123  0.1979  1.6452
19495TIP3   OH279975   3.588   4.940  15.633  0.3664  0.3338 -0.1448
19495TIP3    H179976   3.584   4.848  15.658 -0.4998 -0.1178 -1.8057
19495TIP3    H279977   3.565   4.988  15.713 -1.0550 -0.9713  0.2742
19496TIP3   OH279978   4.904   3.610   5.034  0.8405  0.4509  0.2896
19496TIP3    H179979   4.839   3.640   5.097 -1.8714 -2.4176 -0.9222
19496TIP3    H279980   4.951   3.690   5.009 -1.7468  2.5809  1.7366
19497TIP3   OH279981   1.141   1.111  16.416  0.1271  0.2192 -0.1421
19497TIP3    H179982   1.051   1.086  16.395  0.9546 -2.5886 -0.7011
19497TIP3    H279983   1.139   1.131  16.510 -1.1601  0.6910 -0.2521
19498TIP3   OH279984   6.480   3.274  14.034  0.5910  0.2124  0.4112
19498TIP3    H179985   6.405   3.271  14.094  0.6160 -2.0507  0.4022
19498TIP3    H279986   6.553   3.238  14.085  0.4157 -2.5765 -1.1498
19499TIP3   OH279987   0.907   6.754  12.006  0.2962  0.0689 -0.0895
19499TIP3    H179988   0.991   6.754  11.960  0.3609 -0.4207  0.0239
19499TIP3    H279989   0.845   6.719  11.942  0.2414  0.1115 -0.0601
19500TIP3   OH279990   3.391   4.839   3.893  0.2414  0.6833  0.0613
19500TIP3    H179991   3.391   4.800   3.805 -0.5744 -2.9294  1.5273
19500TIP3    H279992   3.330   4.912   3.886  1.5240  1.6646 -2.7339
19501TIP3   OH279993   1.544   2.804  12.199  0.3459 -0.8605 -0.1400
19501TIP3    H179994   1.502   2.870  12.254 -0.2747 -0.3065 -1.2616
19501TIP3    H279995   1.472   2.760  12.154  0.9353  0.3941 -2.4288
19502TIP3   OH279996   2.730   1.046   5.202  0.3261  0.0765 -0.1118
19502TIP3    H179997   2.665   0.977   5.187  1.2894 -0.6573 -0.9869
19502TIP3    H279998   2.791   1.009   5.266 -0.0257  0.7200  0.6186
19503TIP3   OH279999   5.820   3.216  14.166 -0.5625  0.1578  0.1052
19503TIP3    H180000   5.749   3.225  14.102  1.3518 -0.3550 -2.2045
19503TIP3    H280001   5.837   3.306  14.195 -0.2296  0.6567 -1.5542
19504TIP3   OH280002   0.911   1.633  16.846  0.2162  0.0157  0.2486
19504TIP3    H180003   0.821   1.604  16.833  1.1966 -3.5142  0.3887
19504TIP3    H280004   0.941   1.660  16.758 -1.0087  1.5432  0.2667
19505TIP3   OH280005   0.728   0.669   2.065 -0.6228 -0.1182  0.3159
19505TIP3    H180006   0.660   0.683   1.998 -0.5707  3.5290  0.7994
19505TIP3    H280007   0.685   0.695   2.147  0.5791 -0.3033  1.0179
19506TIP3   OH280008   4.638   6.819  13.371 -0.4802 -0.1928 -0.5137
19506TIP3    H180009   4.683   6.873  13.436 -0.8516  1.5369 -1.6232
19506TIP3    H280010   4.683   6.735  13.375  0.8115  0.4977  0.5636
19507TIP3   OH280011   0.991   5.184  12.610 -0.1034  0.3422 -0.2028
19507TIP3    H180012   0.994   5.254  12.546  0.0606  1.3474  0.8783
19507TIP3    H280013   1.064   5.202  12.669  0.0050 -0.8015  0.0339
19508TIP3   OH280014   4.788   3.621  10.974  0.0357  0.5311  0.3974
19508TIP3    H180015   4.753   3.622  10.885  0.2639  0.6418  0.3066
19508TIP3    H280016   4.726   3.568  11.024  0.3498 -0.2399 -0.0117
19509TIP3   OH280017   4.258   2.020   3.999  0.1462 -0.5343  0.0912
19509TIP3    H180018   4.182   2.072   3.971  0.3925 -0.5245 -0.5851
19509TIP3    H280019   4.297   2.070   4.070  0.2396  0.0903 -0.3926
19510TIP3   OH280020   3.238   2.513   0.311  0.3793 -0.1100 -0.6038
19510TIP3    H180021   3.309   2.574   0.292 -0.3329  0.7150 -0.7291
19510TIP3    H280022   3.249   2.492   0.404  0.7888  0.0198 -0.6229
19511TIP3   OH280023   6.491   0.712  12.905  0.2596 -0.1502  0.3756
19511TIP3    H180024   6.506   0.647  12.836  0.0531 -0.2506  0.4241
19511TIP3    H280025   6.563   0.700  12.966 -0.7004 -1.5317  1.3039
19512TIP3   OH280026   3.634   4.304   6.590  0.4245  0.1751  0.3480
19512TIP3    H180027   3.694   4.231   6.604  0.7864  0.2941 -0.5314
19512TIP3    H280028   3.547   4.267   6.607  0.4886 -0.8176 -1.3199
19513TIP3   OH280029   5.057   4.948   4.042 -0.1029 -0.1712 -0.2422
19513TIP3    H180030   5.033   4.958   3.949  2.2921 -0.2315 -0.9283
19513TIP3    H280031   4.993   5.003   4.088  0.2627  2.1018 -2.1828
19514TIP3   OH280032   5.663   5.968   3.497  0.3544 -0.2582 -0.5322
19514TIP3    H180033   5.674   6.000   3.586  1.0821 -0.2189 -0.6290
19514TIP3    H280034   5.568   5.957   3.486  0.1349  1.2577 -0.3000
19515TIP3   OH280035   2.549   2.227  14.793  0.3319 -0.0780 -0.6092
19515TIP3    H180036   2.488   2.166  14.752 -1.2052  0.6276  0.5107
19515TIP3    H280037   2.620   2.237  14.730  0.6259 -2.9600 -0.8315
19516TIP3   OH280038   2.140   5.692   4.266 -0.0981  0.2054 -0.4202
19516TIP3    H180039   2.125   5.779   4.302 -0.5241 -0.0619  0.0477
19516TIP3    H280040   2.055   5.667   4.229  0.2187  0.3003 -1.2402
19517TIP3   OH280041   4.933   1.190  16.340 -0.2944 -0.1538  0.1850
19517TIP3    H180042   5.014   1.226  16.306  0.8336 -2.8609 -0.2428
19517TIP3    H280043   4.958   1.147  16.422 -1.2150 -1.2767 -0.0961
19518TIP3   OH280044   2.132   1.841  15.852  0.1295  0.1514 -0.4463
19518TIP3    H180045   2.218   1.842  15.810  0.4266 -1.4690  0.0430
19518TIP3    H280046   2.151   1.820  15.943 -0.8116 -1.1587 -0.5179
19519TIP3   OH280047   2.502   3.054  11.273  0.5066  0.5972  0.3036
19519TIP3    H180048   2.427   3.020  11.321  0.3404  2.1987  1.2602
19519TIP3    H280049   2.481   3.146  11.256  0.5126  0.1226 -3.0215
19520TIP3   OH280050   4.086   3.353   3.371  0.7075 -0.4629  0.7535
19520TIP3    H180051   4.032   3.282   3.405 -0.9772  1.0939  1.4812
19520TIP3    H280052   4.113   3.323   3.285 -2.4154 -0.8246 -0.2220
19521TIP3   OH280053   3.899   1.004   1.618  0.2902 -0.2498  0.2074
19521TIP3    H180054   3.846   0.938   1.572  1.4901 -0.4992 -0.8660
19521TIP3    H280055   3.922   0.962   1.701 -2.1083  0.2944  1.2131
19522TIP3   OH280056   5.475   2.273  14.264  0.6401  0.0600  0.0465
19522TIP3    H180057   5.384   2.277  14.234  0.7284 -0.4340 -0.3097
19522TIP3    H280058   5.478   2.331  14.340 -0.6663 -2.0033  1.8035
19523TIP3   OH280059   5.804   2.563   6.406  0.2606  0.0062 -0.1310
19523TIP3    H180060   5.750   2.605   6.340 -0.5904  0.6885  0.9775
19523TIP3    H280061   5.822   2.631   6.470 -0.3499 -1.0459  1.2194
19524TIP3   OH280062   2.416   0.767   0.154 -0.2280 -0.3805 -0.0084
19524TIP3    H180063   2.443   0.822   0.228  2.0189  1.9218 -2.3235
19524TIP3    H280064   2.347   0.817   0.111 -1.6179 -1.7687  0.5260
19525TIP3   OH280065   2.813   1.049  13.534  0.1746 -0.4938  0.0165
19525TIP3    H180066   2.855   1.055  13.620 -0.2709 -0.0143  0.2046
19525TIP3    H280067   2.876   1.000  13.480  0.2979 -1.1118  0.7093
19526TIP3   OH280068   6.464   6.254   3.641  0.4198  0.1029  0.1994
19526TIP3    H180069   6.435   6.164   3.654  1.0740 -0.1913 -0.3022
19526TIP3    H280070   6.463   6.265   3.546 -1.6679  1.3140  0.2885
19527TIP3   OH280071   6.855   4.157   5.825  0.0506  0.1997 -0.0464
19527TIP3    H180072   6.852   4.149   5.920  0.3438 -2.2536 -0.1697
19527TIP3    H280073   6.765   4.141   5.797  0.2323 -0.5269 -0.2346
19528TIP3   OH280074   2.873   2.704   3.550  0.3396 -0.6159 -0.8476
19528TIP3    H180075   2.938   2.701   3.620 -0.5175 -0.5567 -0.0282
19528TIP3    H280076   2.833   2.617   3.551 -0.1431 -0.4008 -0.7911
19529TIP3   OH280077   3.147   1.738   6.534  0.3039 -0.0526  0.3097
19529TIP3    H180078   3.076   1.794   6.566  0.7813 -0.4954  2.2886
19529TIP3    H280079   3.208   1.799   6.492 -0.4916  0.5313 -0.0206
19530TIP3   OH280080   5.415   3.621   0.699 -0.0769 -0.3748 -0.4620
19530TIP3    H180081   5.361   3.633   0.621  0.2304 -1.5507 -0.8742
19530TIP3    H280082   5.430   3.527   0.704  0.2281 -0.2790  0.8122
19531TIP3   OH280083   3.557   1.880  14.685  0.2295 -0.4556  0.2583
19531TIP3    H180084   3.496   1.808  14.698 -0.5553  0.1763  0.1352
19531TIP3    H280085   3.525   1.950  14.742  0.8283 -0.1029  0.1780
19532TIP3   OH280086   1.280   1.258  12.439 -0.0213  0.2137  0.6223
19532TIP3    H180087   1.339   1.330  12.419  0.1734  0.1084  0.8165
19532TIP3    H280088   1.219   1.256  12.365 -0.0567  0.6058  0.6399
19533TIP3   OH280089   3.075   2.849  11.465  0.1731  0.6884  0.0526
19533TIP3    H180090   3.066   2.888  11.378  1.5404 -0.9944 -0.8975
19533TIP3    H280091   3.155   2.888  11.501 -0.7271  1.8585  0.8649
19534TIP3   OH280092   2.535   0.761   1.978 -0.2025 -0.3468  0.1567
19534TIP3    H180093   2.565   0.821   2.046  0.6238  0.4415 -0.8509
19534TIP3    H280094   2.511   0.681   2.024  1.2454 -0.1712  1.2831
19535TIP3   OH280095   2.116   1.162   3.275 -0.0002  0.5341  0.3873
19535TIP3    H180096   2.048   1.170   3.342  0.3979  2.7680  0.6151
19535TIP3    H280097   2.182   1.104   3.314 -1.0375 -0.4089  0.7872
19536TIP3   OH280098   5.854   3.620  10.868  0.3044  0.3946  0.3760
19536TIP3    H180099   5.801   3.561  10.813  1.8497 -1.1596  0.4807
19536TIP3    H280100   5.837   3.707  10.832  0.3419 -0.4343 -1.8341
19537TIP3   OH280101   6.253   0.030   3.132 -0.3024 -0.6086  0.3165
19537TIP3    H180102   6.198   0.097   3.092  1.6894 -0.1911 -1.9579
19537TIP3    H280103   6.311   0.078   3.190 -0.9616 -0.8081  1.1660
19538TIP3   OH280104   1.332   2.759   1.057 -0.2320  0.3951  0.2463
19538TIP3    H180105   1.349   2.665   1.052 -0.6873  0.2054  1.8396
19538TIP3    H280106   1.237   2.767   1.043  0.1822  0.9840 -3.3434
19539TIP3   OH280107   3.421   0.170  12.236 -0.1670 -0.0093  0.5444
19539TIP3    H180108   3.423   0.106  12.165  2.5883  0.6374 -0.0660
19539TIP3    H280109   3.513   0.188  12.255 -0.8352  1.4608  2.8391
19540TIP3   OH280110   2.522   5.019   5.771 -0.0748  0.1224 -0.4019
19540TIP3    H180111   2.517   4.983   5.682 -1.6407  2.2279 -1.2485
19540TIP3    H280112   2.476   4.954   5.825 -1.4040  0.0133 -1.5950
19541TIP3   OH280113   6.167   0.227  10.329  0.4481 -0.0878 -0.1184
19541TIP3    H180114   6.196   0.198  10.416 -0.8978 -3.6828 -0.6711
19541TIP3    H280115   6.077   0.257  10.343 -0.3438 -2.1434 -0.3679
19542TIP3   OH280116   4.780   5.528   2.730 -0.1820  0.0470  0.7226
19542TIP3    H180117   4.700   5.576   2.752 -0.2182 -0.0858  0.8871
19542TIP3    H280118   4.804   5.483   2.812 -1.4270 -2.0782  0.0041
19543TIP3   OH280119   5.465   5.601  15.471 -0.2305  0.1470  0.7007
19543TIP3    H180120   5.460   5.509  15.445  1.7413  0.1578  0.1475
19543TIP3    H280121   5.481   5.647  15.388 -1.5669  1.0632  0.9159
19544TIP3   OH280122   3.363   6.478   2.756  0.2663 -0.0822 -0.4530
19544TIP3    H180123   3.290   6.449   2.810  0.8922 -0.4965  0.1850
19544TIP3    H280124   3.400   6.397   2.721  1.3573  0.0000  0.4682
19545TIP3   OH280125   1.092   5.799  15.837  0.4405  0.5976 -0.2234
19545TIP3    H180126   1.100   5.712  15.798  0.8354  0.2733  0.5599
19545TIP3    H280127   1.035   5.786  15.913 -0.6955  1.3073 -0.9252
19546TIP3   OH280128   3.999   6.850  11.962  0.1018  0.4163 -0.5746
19546TIP3    H180129   4.036   6.776  12.011 -0.6269  0.9671  0.8919
19546TIP3    H280130   4.073   6.885  11.913  0.4399 -1.3161 -1.3860
19547TIP3   OH280131   5.313   1.548   5.864 -0.2566  0.0315  0.0670
19547TIP3    H180132   5.347   1.637   5.859 -3.0756  1.2206  0.1985
19547TIP3    H280133   5.303   1.531   5.957 -1.0125  0.1393  0.0112
19548TIP3   OH280134   2.899   0.364  15.089 -0.8261 -0.3788  0.4006
19548TIP3    H180135   2.815   0.405  15.111 -1.5276 -0.3174 -2.1761
19548TIP3    H280136   2.883   0.270  15.100 -0.9145 -0.3182  0.8375
19549TIP3   OH280137   1.080   3.041  11.825 -0.1222 -0.1302 -0.3478
19549TIP3    H180138   1.026   3.078  11.895  0.8892  1.5868 -0.4190
19549TIP3    H280139   1.159   3.009  11.870 -0.3429 -0.8674 -0.4731
19550TIP3   OH280140   6.271   3.554   6.386  0.1091 -0.0406 -0.0239
19550TIP3    H180141   6.209   3.481   6.384 -0.5667  0.5352 -1.9208
19550TIP3    H280142   6.329   3.539   6.311 -1.8457  2.8046 -2.3021
19551TIP3   OH280143   1.677   5.599  16.715 -0.0628  0.0759 -0.4600
19551TIP3    H180144   1.625   5.544  16.655  0.1131 -0.0769 -0.4725
19551TIP3    H280145   1.654   5.567  16.802  0.5986 -0.5186 -0.4978
19552TIP3   OH280146   2.045   6.725  14.972 -0.6125 -0.1064 -0.1354
19552TIP3    H180147   1.994   6.792  15.017  0.6169  1.5386 -1.0645
19552TIP3    H280148   1.988   6.649  14.968 -2.0211  0.8447  1.0731
19553TIP3   OH280149   4.296   6.506  13.717  0.0721  0.2137 -0.0093
19553TIP3    H180150   4.215   6.476  13.675  0.4347 -1.2101  0.2656
19553TIP3    H280151   4.363   6.497  13.650  0.5552 -1.5667  0.6716
19554TIP3   OH280152   3.985   4.699   4.051  0.2019 -0.3622 -0.1234
19554TIP3    H180153   4.005   4.753   3.975 -0.5278 -0.1138 -0.1362
19554TIP3    H280154   3.923   4.633   4.019  0.4066 -0.6691  0.1009
19555TIP3   OH280155   0.798   2.617  12.074  0.3076 -0.3223 -0.0163
19555TIP3    H180156   0.823   2.525  12.077  0.3867 -0.2762  1.0965
19555TIP3    H280157   0.704   2.615  12.057  0.4227 -0.5800 -0.6708
19556TIP3   OH280158   1.172   3.710  13.052 -0.7490  0.0947  0.1849
19556TIP3    H180159   1.234   3.730  12.982 -0.5351  1.5823  0.7526
19556TIP3    H280160   1.222   3.726  13.132 -1.2273 -0.8135  0.6780
19557TIP3   OH280161   4.356   5.306  16.080  0.5083  0.6061 -0.0288
19557TIP3    H180162   4.393   5.289  15.993  0.5639  0.4259  0.0317
19557TIP3    H280163   4.403   5.248  16.139  0.0901  0.3349  0.0412
19558TIP3   OH280164   0.056   3.506   0.533  0.3000 -0.2862  0.0597
19558TIP3    H180165   0.142   3.548   0.542  0.6847 -1.1769  0.7516
19558TIP3    H280166   0.001   3.573   0.493  1.8398 -0.3932 -2.4307
19559TIP3   OH280167   4.969   1.676   1.005  0.3046  0.2336  0.4217
19559TIP3    H180168   4.967   1.580   0.997 -0.3852  0.2627  0.1719
19559TIP3    H280169   4.889   1.698   1.054  0.1242  0.7270 -0.0844
19560TIP3   OH280170   4.469   4.405  14.695 -0.3406 -0.2370  0.2291
19560TIP3    H180171   4.450   4.327  14.642  0.3798  0.5036 -1.1724
19560TIP3    H280172   4.397   4.465  14.675  0.1956  0.2325 -0.3069
19561TIP3   OH280173   2.033   3.478  15.508  0.0005 -0.1084 -0.3492
19561TIP3    H180174   1.985   3.546  15.461 -0.0521  0.0693 -0.0418
19561TIP3    H280175   2.077   3.428  15.439 -0.4484 -0.1396 -0.6172
19562TIP3   OH280176   5.551   4.342  11.163  0.7043 -0.2150  0.9724
19562TIP3    H180177   5.519   4.274  11.221 -1.0039 -0.6026 -0.3562
19562TIP3    H280178   5.477   4.402  11.151  1.0849  0.0123 -0.5321
19563TIP3   OH280179   1.757   4.953   1.429  0.3787 -0.3315 -0.2513
19563TIP3    H180180   1.746   4.914   1.342 -2.5839  1.4765 -0.8210
19563TIP3    H280181   1.719   4.889   1.489  0.6502 -0.7430 -0.5143
19564TIP3   OH280182   6.253   1.681   5.104 -0.0085 -0.1786  0.0954
19564TIP3    H180183   6.224   1.658   5.016  0.2104 -0.0193 -0.0181
19564TIP3    H280184   6.275   1.597   5.145 -1.0485 -0.3427  0.3318
19565TIP3   OH280185   1.895   6.089  13.889  0.8720  0.5939  0.3878
19565TIP3    H180186   1.872   6.042  13.809 -0.3537  1.0639  0.4389
19565TIP3    H280187   1.886   6.182  13.866 -0.7350  0.7246  1.3809
19566TIP3   OH280188   3.078   5.062   1.919  0.8379  0.2360  0.2841
19566TIP3    H180189   3.114   5.097   1.838  1.8207  0.5626  0.8442
19566TIP3    H280190   2.986   5.087   1.917  0.7067 -0.2665 -0.9955
19567TIP3   OH280191   3.100   0.556   3.303  0.0914  0.3058 -0.1393
19567TIP3    H180192   3.151   0.577   3.381 -0.3276 -1.0662  0.5334
19567TIP3    H280193   3.156   0.499   3.251  0.2312  0.9278 -0.6951
19568TIP3   OH280194   5.277   0.858   4.980 -0.1801  0.2019  0.3736
19568TIP3    H180195   5.256   0.906   4.900  2.6085 -0.9849 -1.2369
19568TIP3    H280196   5.336   0.916   5.028  0.9823 -0.4259 -0.2348
19569TIP3   OH280197   0.735   2.191   3.833  0.7430 -0.5178 -0.1025
19569TIP3    H180198   0.674   2.204   3.760  0.2188  2.1659  0.6845
19569TIP3    H280199   0.770   2.278   3.850 -0.2511 -0.7042  3.7440
19570TIP3   OH280200   1.932   5.913   5.293  0.8403  0.3159  0.0592
19570TIP3    H180201   1.901   5.885   5.380 -0.2153  2.4655  0.4313
19570TIP3    H280202   1.854   5.944   5.248  1.7163  1.3360 -0.8148
19571TIP3   OH280203   5.064   5.735   6.340  0.1830  1.0323  0.1014
19571TIP3    H180204   5.118   5.675   6.392  1.6533  0.6699 -1.7139
19571TIP3    H280205   5.123   5.765   6.270 -1.1432  2.9703 -0.2575
19572TIP3   OH280206   2.355   2.937  16.395 -0.0081 -0.4331  0.7062
19572TIP3    H180207   2.380   2.942  16.303  1.0132 -0.1282  0.9813
19572TIP3    H280208   2.259   2.940  16.395 -0.0041 -0.0665 -0.3187
19573TIP3   OH280209   4.154   5.963   1.235 -0.4141 -0.2748  0.6504
19573TIP3    H180210   4.137   6.011   1.154 -1.2733  0.5162  1.2849
19573TIP3    H280211   4.073   5.916   1.254 -0.8843  0.9853  1.9923
19574TIP3   OH280212   1.627   5.496   0.495  0.3726 -0.4479  0.4338
19574TIP3    H180213   1.606   5.516   0.587  2.0215 -1.5927  1.0899
19574TIP3    H280214   1.690   5.564   0.470 -0.5999  0.2883 -0.1203
19575TIP3   OH280215   6.302   6.076   0.064  0.1787  0.0549 -0.3787
19575TIP3    H180216   6.346   6.020   0.128  0.1354 -0.5864 -0.8946
19575TIP3    H280217   6.251   6.015   0.010  0.2115  0.5838 -1.0216
19576TIP3   OH280218   5.777   2.365   2.832  0.2839  0.3357 -0.2322
19576TIP3    H180219   5.849   2.425   2.816 -0.3284  1.1132 -0.1229
19576TIP3    H280220   5.771   2.359   2.928 -0.0950  0.6408 -0.2362
19577TIP3   OH280221   1.285   2.878  13.212 -0.9019 -0.0799  0.0691
19577TIP3    H180222   1.256   2.929  13.136  1.5526  1.4617  0.0318
19577TIP3    H280223   1.264   2.788  13.190 -0.9546  0.4086 -2.1429
19578TIP3   OH280224   3.874   3.177   1.362  0.3398 -0.6063  0.3054
19578TIP3    H180225   3.915   3.193   1.447 -3.1872 -1.5376  2.3856
19578TIP3    H280226   3.916   3.097   1.331  0.6072 -1.1692  1.9862
19579TIP3   OH280227   2.292   5.287   2.320  0.3289 -0.4578  0.0146
19579TIP3    H180228   2.232   5.293   2.246  0.4709 -0.3740 -0.0936
19579TIP3    H280229   2.250   5.225   2.380 -0.4575  0.4864  0.4834
19580TIP3   OH280230   1.488   1.096  13.009  0.1178 -0.3193  0.0619
19580TIP3    H180231   1.485   1.160  12.938  0.5958 -1.3607 -0.9331
19580TIP3    H280232   1.571   1.113  13.053 -0.5906  0.9186  0.9690
19581TIP3   OH280233   3.206   1.807   4.195  0.5914  0.0937 -0.0045
19581TIP3    H180234   3.188   1.896   4.225  2.8439  0.5277  0.2937
19581TIP3    H280235   3.261   1.819   4.117 -1.3549 -1.0634 -1.6703
19582TIP3   OH280236   1.340   5.347   5.709  0.1766 -0.1484 -0.2000
19582TIP3    H180237   1.301   5.262   5.690 -0.4309  0.5062 -2.0467
19582TIP3    H280238   1.354   5.387   5.624  1.3505  1.2309  0.5905
19583TIP3   OH280239   5.564   4.985  11.053  0.1946 -0.5133 -0.3481
19583TIP3    H180240   5.544   4.917  11.118 -1.1193 -0.8640 -1.0728
19583TIP3    H280241   5.562   4.938  10.969  0.3121  0.2218 -0.7682
19584TIP3   OH280242   2.647   3.654   0.823 -0.3065 -0.5692  0.0962
19584TIP3    H180243   2.609   3.576   0.782 -0.1032 -0.7249  0.2036
19584TIP3    H280244   2.589   3.673   0.897 -0.1834 -0.7984  0.2522
19585TIP3   OH280245   0.903   3.832   0.104  1.0697 -0.0361 -0.5041
19585TIP3    H180246   0.968   3.897   0.076  1.0711 -0.3073 -1.1464
19585TIP3    H280247   0.873   3.792   0.022  0.7106 -0.5012 -0.1458
19586TIP3   OH280248   4.878   2.326  15.267 -0.4200 -0.1997  0.0103
19586TIP3    H180249   4.938   2.307  15.338 -0.0574  0.6643 -0.0472
19586TIP3    H280250   4.794   2.291  15.295 -0.6142  1.3391  1.4956
19587TIP3   OH280251   4.414   3.053  16.742 -0.3316  0.3196  0.3648
19587TIP3    H180252   4.472   3.009  16.804  1.2456  0.1889 -1.1161
19587TIP3    H280253   4.449   3.142  16.734 -0.5099  0.3402 -0.3140
19588TIP3   OH280254   0.816   0.030  13.625  0.1728  0.2701  0.2686
19588TIP3    H180255   0.830   0.001  13.715 -1.1422 -1.8104 -0.1195
19588TIP3    H280256   0.903   0.030  13.585  0.6093 -0.0370  1.1985
19589TIP3   OH280257   0.247   1.044   2.175 -0.9817  0.3594  1.3402
19589TIP3    H180258   0.234   0.979   2.106  0.3232  0.6511  0.7859
19589TIP3    H280259   0.343   1.052   2.183 -1.0973  0.2741  3.2416
19590TIP3   OH280260   1.798   5.819  12.649  0.1406  0.0099  0.0542
19590TIP3    H180261   1.874   5.769  12.620 -0.0167 -0.5281  0.5535
19590TIP3    H280262   1.724   5.779  12.605  0.1213  0.4360 -0.3107
19591TIP3   OH280263   6.771   5.510   5.304 -0.3295  0.2378  0.3024
19591TIP3    H180264   6.685   5.513   5.346 -0.4371 -0.8225  0.1826
19591TIP3    H280265   6.778   5.421   5.269  0.9589  0.1947  0.6196
19592TIP3   OH280266   6.497   3.957  14.298  0.0567  0.2852  0.0784
19592TIP3    H180267   6.487   3.913  14.383 -0.8346  0.3758  0.0211
19592TIP3    H280268   6.549   3.896  14.246  0.9195  0.3771  0.7960
19593TIP3   OH280269   1.732   3.275  15.726 -0.2128  0.2321 -0.3189
19593TIP3    H180270   1.689   3.237  15.802  0.3492 -1.9348 -1.0031
19593TIP3    H280271   1.825   3.262  15.742 -0.1109 -1.4000 -1.8463
19594TIP3   OH280272   3.957   1.618  14.752 -0.2059 -0.5857 -0.2126
19594TIP3    H180273   3.909   1.692  14.716  0.4918 -0.1412 -0.2592
19594TIP3    H280274   3.911   1.541  14.720 -0.4615 -0.1803 -0.8376
19595TIP3   OH280275   2.861   4.033  13.743  0.4399  0.0748  0.6265
19595TIP3    H180276   2.887   4.077  13.824  0.2637  1.0888  0.1438
19595TIP3    H280277   2.786   3.980  13.767 -1.2851  2.3594  0.6330
19596TIP3   OH280278   3.449   5.633  16.615  0.1753  0.1648  0.0097
19596TIP3    H180279   3.458   5.624  16.710 -1.0193  0.9975  0.2200
19596TIP3    H280280   3.535   5.666  16.586  1.2086 -1.9258  0.4987
19597TIP3   OH280281   1.298   3.851   1.944  0.4724 -0.2236 -0.1055
19597TIP3    H180282   1.353   3.776   1.920  0.1783 -0.1468 -1.0423
19597TIP3    H280283   1.226   3.813   1.995  0.2154 -0.6046 -0.7492
19598TIP3   OH280284   5.110   4.116  14.800  0.0852 -0.0487 -0.1514
19598TIP3    H180285   5.046   4.155  14.740  1.7395 -0.2931 -2.2047
19598TIP3    H280286   5.064   4.043  14.841 -1.2017  0.3117 -0.9127
19599TIP3   OH280287   4.755   5.289   2.161  0.0809  0.0789 -0.2102
19599TIP3    H180288   4.796   5.351   2.100  0.8422 -0.7188 -0.5226
19599TIP3    H280289   4.784   5.203   2.132  0.1324 -0.3497  1.0453
19600TIP3   OH280290   2.752   6.134  14.553  0.1730  0.1812 -0.8765
19600TIP3    H180291   2.689   6.203  14.530 -0.5106 -0.5413 -1.1961
19600TIP3    H280292   2.726   6.108  14.642  0.9430  0.8853 -0.4278
19601TIP3   OH280293   5.459   5.911  12.893 -0.1537 -0.2452 -0.5665
19601TIP3    H180294   5.511   5.971  12.838 -1.1429 -0.1078 -1.3816
19601TIP3    H280295   5.379   5.960  12.913 -0.9149 -1.2284 -1.1312
19602TIP3   OH280296   3.336   2.710  15.938 -0.2465 -0.0434  0.1505
19602TIP3    H180297   3.285   2.632  15.958  1.1456 -0.8454  0.6837
19602TIP3    H280298   3.417   2.677  15.901 -0.3490  1.2331 -1.3505
19603TIP3   OH280299   3.420   1.653   0.136 -0.5065  0.0408  0.0332
19603TIP3    H180300   3.328   1.647   0.161 -0.2065 -0.2558  1.1249
19603TIP3    H280301   3.420   1.641   0.041 -1.5791 -0.0660  0.0352
19604TIP3   OH280302   1.812   1.974   4.912  0.3275 -0.0125  0.0477
19604TIP3    H180303   1.829   2.066   4.932  3.1727 -0.3555 -0.3751
19604TIP3    H280304   1.867   1.926   4.973 -1.4654 -1.5188  0.5759
19605TIP3   OH280305   5.307   5.061   1.608 -0.1963 -0.2429  0.4482
19605TIP3    H180306   5.356   5.079   1.528 -1.1232  1.1761  0.1641
19605TIP3    H280307   5.348   5.116   1.674  0.7061 -1.5697  1.0485
19606TIP3   OH280308   2.336   3.832  15.995 -0.2391 -0.1985  0.2791
19606TIP3    H180309   2.379   3.895  15.938  0.2541 -0.9919 -0.2367
19606TIP3    H280310   2.327   3.878  16.079  1.2749  0.1189  0.2896
19607TIP3   OH280311   0.745   5.870   1.038  0.0367 -0.1390 -0.9447
19607TIP3    H180312   0.680   5.929   1.002 -0.8081 -0.7672 -0.4860
19607TIP3    H280313   0.702   5.785   1.040  1.9051 -1.2762 -3.5831
19608TIP3   OH280314   5.057   0.850  12.055  1.1575  0.2750  0.7219
19608TIP3    H180315   5.133   0.891  12.014  1.3076 -1.2763 -0.6553
19608TIP3    H280316   5.011   0.806  11.983  0.3140 -0.8542  1.9010
19609TIP3   OH280317   6.175   5.917   2.613 -0.3176 -0.1440 -0.2629
19609TIP3    H180318   6.188   5.858   2.687  0.5796 -0.5815 -0.7566
19609TIP3    H280319   6.215   5.871   2.539 -2.2266 -0.2466 -1.2766
19610TIP3   OH280320   4.042   6.196   5.108 -0.1377  0.8047 -0.2986
19610TIP3    H180321   4.056   6.274   5.161  4.5380  0.4184 -0.4815
19610TIP3    H280322   4.027   6.126   5.171 -0.2539  1.2269  0.1492
19611TIP3   OH280323   1.132   3.760  13.431  0.3177 -0.0829 -0.2743
19611TIP3    H180324   1.139   3.785  13.523 -0.4252  0.9060 -0.4578
19611TIP3    H280325   1.222   3.747  13.402  0.8823  3.0142 -0.2698
19612TIP3   OH280326   4.707   3.134  12.222 -0.6994  0.3363  0.4066
19612TIP3    H180327   4.678   3.044  12.209  1.3422 -0.0971 -1.6343
19612TIP3    H280328   4.794   3.127  12.261 -0.6095  1.4537  0.4597
19613TIP3   OH280329   0.553   2.721  16.674  0.2791  0.2808 -0.2359
19613TIP3    H180330   0.584   2.644  16.721 -1.6566  0.0375  0.7192
19613TIP3    H280331   0.616   2.731  16.602  1.0359 -1.7065  0.0673
19614TIP3   OH280332   0.908   2.256  13.391 -0.7019  0.2699 -0.1823
19614TIP3    H180333   0.833   2.299  13.433 -0.4556 -0.0712  0.6066
19614TIP3    H280334   0.964   2.227  13.463 -0.0705  0.0432 -0.7509
19615TIP3   OH280335   2.357   0.354   5.753  0.0360 -0.0824 -0.7128
19615TIP3    H180336   2.425   0.286   5.748  1.6206  1.4100 -0.7890
19615TIP3    H280337   2.292   0.328   5.688  0.0588 -2.0543  0.0080
19616TIP3   OH280338   3.429   5.398   0.344  0.4429  0.4248  0.2748
19616TIP3    H180339   3.404   5.340   0.415 -0.2341  0.9190  0.4409
19616TIP3    H280340   3.403   5.351   0.264 -3.0858  1.7885  0.4531
19617TIP3   OH280341   2.981   3.283   1.236  0.4593 -0.3203  0.2103
19617TIP3    H180342   3.019   3.363   1.199  0.1067 -0.0156  0.4964
19617TIP3    H280343   2.984   3.220   1.165 -0.3483  0.3029 -0.3888
19618TIP3   OH280344   6.771   2.948   1.806  0.3482  0.0334 -0.8553
19618TIP3    H180345   6.807   3.032   1.835 -3.0432  1.5581 -0.5891
19618TIP3    H280346   6.742   2.905   1.886 -0.5518 -0.0553 -1.2232
19619TIP3   OH280347   2.101   2.133  12.111 -0.0929 -0.1728 -0.6878
19619TIP3    H180348   2.010   2.121  12.086 -0.3834  0.4129  0.0697
19619TIP3    H280349   2.131   2.044  12.133 -1.1465 -0.0985  1.2589
19620TIP3   OH280350   3.900   4.395  11.720  0.6313 -0.0227  0.1020
19620TIP3    H180351   3.883   4.410  11.627 -1.0279  3.0147  0.7575
19620TIP3    H280352   3.921   4.482  11.754 -1.6792 -0.4746  3.0550
19621TIP3   OH280353   4.511   5.815  13.285  0.5099 -0.0921 -0.3556
19621TIP3    H180354   4.486   5.790  13.196  1.2752 -0.5964 -0.4455
19621TIP3    H280355   4.534   5.732  13.328 -2.4738 -0.2278  1.2182
19622TIP3   OH280356   5.811   0.061   0.711  0.5502 -0.6722 -0.1862
19622TIP3    H180357   5.799   0.038   0.803  1.7659  0.2419  0.2237
19622TIP3    H280358   5.902   0.038   0.692  0.4413 -0.4279 -1.0239
19623TIP3   OH280359   0.663   1.946  11.781 -0.6672  0.0893 -0.0735
19623TIP3    H180360   0.685   1.854  11.769  0.9156  0.3579  0.4284
19623TIP3    H280361   0.634   1.953  11.872 -0.4918  0.1208 -0.0180
19624TIP3   OH280362   3.224   5.454   1.180 -0.1918 -0.8819 -0.2655
19624TIP3    H180363   3.314   5.453   1.213 -0.9953 -1.0312  2.0316
19624TIP3    H280364   3.223   5.528   1.119  1.2025 -0.1601  0.5162
19625TIP3   OH280365   4.480   5.377   6.699  0.1865 -0.6432  0.2517
19625TIP3    H180366   4.408   5.394   6.639  0.8778 -0.7950 -0.6536
19625TIP3    H280367   4.523   5.462   6.708 -1.3625 -0.0329  2.5463
19626TIP3   OH280368   2.276   4.477  12.739 -0.1136  0.3934  0.0774
19626TIP3    H180369   2.305   4.410  12.677 -0.3752  1.0723 -0.7898
19626TIP3    H280370   2.350   4.490  12.797  0.7872  1.0113 -1.1714
19627TIP3   OH280371   4.259   0.483   1.164 -0.5994  0.1223  0.4227
19627TIP3    H180372   4.185   0.541   1.145 -1.0578 -0.9569 -1.3021
19627TIP3    H280373   4.286   0.450   1.078  2.8682  1.6115  0.7847
19628TIP3   OH280374   4.966   3.045   2.285  0.3857 -0.2725  0.6991
19628TIP3    H180375   5.016   3.093   2.351 -0.2761  0.4835  0.6516
19628TIP3    H280376   4.965   3.102   2.209  0.8373 -0.9908  0.1450
19629TIP3   OH280377   2.315   4.750  16.541  0.6173 -1.0340 -0.1955
19629TIP3    H180378   2.229   4.789  16.523  0.8422 -1.5794 -2.8964
19629TIP3    H280379   2.294   4.673  16.594 -0.2313  0.2926  1.5173
19630TIP3   OH280380   3.974   3.803   2.884 -0.4902 -0.3508  0.6772
19630TIP3    H180381   3.908   3.822   2.950  0.6579 -0.6014  1.9412
19630TIP3    H280382   3.933   3.829   2.801 -1.5583  1.0452  1.5874
19631TIP3   OH280383   5.827   5.788   5.927  0.1007 -0.4307  0.1056
19631TIP3    H180384   5.850   5.759   6.015  1.1391 -1.3141 -0.4322
19631TIP3    H280385   5.816   5.883   5.935  0.1250 -0.5117  1.1892
19632TIP3   OH280386   5.786   1.589  11.539  0.4234 -0.1941  0.7763
19632TIP3    H180387   5.696   1.610  11.564  0.2593 -1.7581  1.6112
19632TIP3    H280388   5.787   1.598  11.444  0.0448  2.1744  0.9261
19633TIP3   OH280389   0.019   3.622  12.860  0.3006 -0.4208 -0.1033
19633TIP3    H180390   0.048   3.568  12.934 -0.1646  0.4986  0.7565
19633TIP3    H280391   0.066   3.704  12.871 -1.8921  0.7840  0.8156
19634TIP3   OH280392   5.296   6.291  14.705 -0.0487 -0.0076 -0.9009
19634TIP3    H180393   5.252   6.355  14.649 -2.0662 -1.5007 -1.1653
19634TIP3    H280394   5.384   6.283  14.669 -0.5250  0.8698 -2.3301
19635TIP3   OH280395   2.159   1.531  15.460  0.6460 -0.1403  0.3358
19635TIP3    H180396   2.175   1.445  15.421  2.0414  0.7673 -1.2447
19635TIP3    H280397   2.090   1.516  15.524  3.0388 -3.1054  2.5227
19636TIP3   OH280398   2.279   4.099   2.428 -0.8953  0.3601 -0.1068
19636TIP3    H180399   2.267   4.165   2.496 -0.4815  1.4214 -1.0272
19636TIP3    H280400   2.373   4.098   2.412 -0.9167 -0.3381 -0.2255
19637TIP3   OH280401   2.788   2.372   5.510  0.0430 -0.3621 -0.2237
19637TIP3    H180402   2.811   2.283   5.486 -1.8791 -0.9550 -0.0045
19637TIP3    H280403   2.760   2.366   5.602 -4.0852 -0.4176 -1.3015
19638TIP3   OH280404   0.849   1.884  14.639 -1.0782  0.0440  0.5102
19638TIP3    H180405   0.886   1.890  14.727 -2.5760  1.5073  1.0792
19638TIP3    H280406   0.891   1.955  14.591  3.1432 -3.2860 -1.4427
19639TIP3   OH280407   4.655   3.004  14.050 -0.6778  0.3226 -0.1621
19639TIP3    H180408   4.718   3.076  14.041  0.0147 -0.3085 -0.4425
19639TIP3    H280409   4.569   3.047  14.046 -0.2780  1.2982  1.0265
19640TIP3   OH280410   6.787   6.164  11.235 -0.4267 -0.0773 -0.2201
19640TIP3    H180411   6.758   6.127  11.151 -0.8258 -1.7589  0.6175
19640TIP3    H280412   6.881   6.145  11.238 -0.8472 -2.3738  0.7807
19641TIP3   OH280413   1.069   6.247  16.255 -0.0064 -0.5949  0.1294
19641TIP3    H180414   1.121   6.261  16.176 -1.2381 -0.2632 -0.6437
19641TIP3    H280415   1.053   6.153  16.257 -1.1989 -0.4341 -0.8362
19642TIP3   OH280416   0.326   6.493  10.741 -0.2405  0.3368  0.5536
19642TIP3    H180417   0.273   6.530  10.670  0.8082  2.0501  0.6044
19642TIP3    H280418   0.280   6.413  10.766 -1.5731  0.6008 -0.8846
19643TIP3   OH280419   5.546   0.083   2.333 -0.2818 -0.2541 -0.2289
19643TIP3    H180420   5.489   0.107   2.260 -2.0931  0.7609  1.4324
19643TIP3    H280421   5.622   0.141   2.324  0.0752 -0.9111 -1.8921
19644TIP3   OH280422   6.438   2.078   4.432  0.2819  0.9764  0.0554
19644TIP3    H180423   6.492   2.155   4.448 -0.4048  1.3512  0.6171
19644TIP3    H280424   6.496   2.004   4.450  1.1781  1.3238 -1.2085
19645TIP3   OH280425   3.313   6.521   3.991 -1.1353  0.1305 -0.2992
19645TIP3    H180426   3.277   6.518   3.902 -2.0729  0.0753  0.0699
19645TIP3    H280427   3.323   6.614   4.010 -1.1775  0.1489 -0.3667
19646TIP3   OH280428   6.700   5.428  14.355  0.0410  0.0568  0.4565
19646TIP3    H180429   6.727   5.415  14.446 -0.7628 -0.3406  0.6399
19646TIP3    H280430   6.612   5.392  14.350  0.7355 -1.6056 -0.9157
19647TIP3   OH280431   0.701   5.148  16.707 -0.1985  0.3206 -0.0657
19647TIP3    H180432   0.748   5.166  16.788 -0.2408 -0.5347  0.1679
19647TIP3    H280433   0.759   5.088  16.659 -0.5925  0.0732 -0.2352
19648TIP3   OH280434   5.707   4.391  16.378  0.3305  0.7520  0.3446
19648TIP3    H180435   5.790   4.437  16.367 -0.0269  1.0590 -1.3642
19648TIP3    H280436   5.640   4.459  16.366 -0.1730  0.2914  0.4886
19649TIP3   OH280437   2.701   3.680  14.959  0.0677  0.1045  0.0002
19649TIP3    H180438   2.674   3.711  15.045  1.1980 -0.1761  0.4667
19649TIP3    H280439   2.620   3.678  14.908 -0.8035 -0.7563  1.3530
19650TIP3   OH280440   1.764   3.600  13.176 -0.0048  0.4145  0.0179
19650TIP3    H180441   1.773   3.515  13.220  0.9304  0.8019  0.6291
19650TIP3    H280442   1.744   3.661  13.247 -2.3760  0.4706 -0.6336
19651TIP3   OH280443   6.829   0.707   3.748 -0.8594 -0.4919  0.2500
19651TIP3    H180444   6.815   0.644   3.678  0.2389 -0.5828  0.1047
19651TIP3    H280445   6.756   0.768   3.740  0.1004  0.4620 -2.0267
19652TIP3   OH280446   3.594   4.280  16.696 -0.4469 -0.0324  0.5302
19652TIP3    H180447   3.551   4.235  16.767 -1.9909 -0.0842 -0.3997
19652TIP3    H280448   3.593   4.218  16.623 -1.6892  1.0866 -0.4570
19653TIP3   OH280449   3.355   5.152   6.412  0.2962  0.3546 -0.1170
19653TIP3    H180450   3.309   5.230   6.442  0.4814  0.6751 -0.6452
19653TIP3    H280451   3.442   5.183   6.387  0.8264 -0.2493  0.8991
19654TIP3   OH280452   5.164   5.525   3.256 -0.2027  0.7619  0.6672
19654TIP3    H180453   5.178   5.431   3.247  2.6925  1.1394  0.4023
19654TIP3    H280454   5.161   5.540   3.350  0.3261  0.5268  0.7208
19655TIP3   OH280455   3.874   2.502  11.900 -0.0192  0.0750 -0.3081
19655TIP3    H180456   3.915   2.470  11.980  2.0474 -1.4969 -1.8681
19655TIP3    H280457   3.786   2.466  11.902 -0.1588  0.4301  1.4287
19656TIP3   OH280458   3.392   5.358  14.350  0.2506 -0.2960 -0.0261
19656TIP3    H180459   3.329   5.286  14.360 -0.2500 -0.0265 -1.0767
19656TIP3    H280460   3.356   5.429  14.404 -0.3183 -0.1647 -0.5713
19657TIP3   OH280461   3.474   6.790   3.240  0.6027  0.2200  0.3564
19657TIP3    H180462   3.474   6.873   3.192  1.6436 -0.6709 -1.2614
19657TIP3    H280463   3.565   6.760   3.237  0.4396 -0.5101  1.8031
19658TIP3   OH280464   5.933   2.602  16.375 -1.1148  0.2007 -0.4997
19658TIP3    H180465   5.879   2.648  16.310  0.1258 -1.3313 -2.7604
19658TIP3    H280466   5.999   2.667  16.401 -1.0119  0.5623 -1.5972
19659TIP3   OH280467   1.071   4.635  14.626 -0.3149  0.0912 -0.5286
19659TIP3    H180468   1.029   4.709  14.582 -1.2803  0.4305  0.8864
19659TIP3    H280469   1.029   4.558  14.590 -1.9281  0.4137  0.5680
19660TIP3   OH280470   4.107   2.478  10.435  0.2721  0.8067 -0.2589
19660TIP3    H180471   4.178   2.416  10.451  0.5232  1.0807 -0.3143
19660TIP3    H280472   4.027   2.425  10.440  0.4996  0.4332 -0.5326
19661TIP3   OH280473   3.215   3.329   4.791  0.3902 -0.1825  0.2687
19661TIP3    H180474   3.257   3.268   4.852 -0.7869 -0.1188  1.1675
19661TIP3    H280475   3.208   3.280   4.709 -0.1319 -1.1109  0.8523
19662TIP3   OH280476   2.637   0.851  16.352 -0.2202  0.1183 -0.0576
19662TIP3    H180477   2.586   0.905  16.291 -1.8784 -0.8028  0.4262
19662TIP3    H280478   2.582   0.773  16.366  0.0359  0.3275  2.6623
19663TIP3   OH280479   4.068   6.575  12.681  0.1823  0.4932  0.2944
19663TIP3    H180480   4.104   6.653  12.639  1.2345  0.5336  1.2387
19663TIP3    H280481   4.016   6.608  12.754  0.9270  0.3133  0.9180
19664TIP3   OH280482   4.048   6.833   1.179  0.4121  0.0986  0.2124
19664TIP3    H180483   4.134   6.803   1.150 -0.2300 -0.6778 -0.9501
19664TIP3    H280484   4.066   6.915   1.226  1.5427  1.3762 -2.2681
19665TIP3   OH280485   1.762   0.206  15.514  0.4759 -0.1537  0.5899
19665TIP3    H180486   1.769   0.112  15.498  0.3001  0.0007 -0.4455
19665TIP3    H280487   1.827   0.246  15.456 -0.6640  0.4659 -0.3237
19666TIP3   OH280488   2.166   1.199   1.575 -0.2682 -0.0333  0.2517
19666TIP3    H180489   2.082   1.221   1.534 -0.6372  0.3906  1.2179
19666TIP3    H280490   2.142   1.152   1.655  0.4267 -0.1370  0.4016
19667TIP3   OH280491   0.221   6.327   0.820  0.7634 -0.3735 -0.1245
19667TIP3    H180492   0.155   6.260   0.840  1.0448 -0.4783  0.4581
19667TIP3    H280493   0.169   6.404   0.793  0.3463 -0.1158  1.3212
19668TIP3   OH280494   2.944   0.752   1.965  0.2576  0.3488  0.6329
19668TIP3    H180495   3.022   0.807   1.963  1.1043 -0.8247 -0.6832
19668TIP3    H280496   2.878   0.802   1.917  0.7603  0.5928  0.1856
19669TIP3   OH280497   5.545   6.686  14.811  0.3436 -0.2100  0.0437
19669TIP3    H180498   5.476   6.699  14.746  1.0365  0.2732 -0.6090
19669TIP3    H280499   5.545   6.591  14.826 -0.0703 -0.2862 -0.3983
19670TIP3   OH280500   3.751   0.569  13.134  0.5247  0.2216 -0.0087
19670TIP3    H180501   3.722   0.477  13.137  0.6110  0.1254 -1.4672
19670TIP3    H280502   3.845   0.564  13.120  0.3576  0.5066 -1.3618
19671TIP3   OH280503   5.463   3.524  16.076 -0.1300  0.2879  0.3346
19671TIP3    H180504   5.409   3.583  16.129  0.0860  0.5236  0.2951
19671TIP3    H280505   5.469   3.566  15.991 -1.2402 -0.5439 -0.1682
19672TIP3   OH280506   6.008   1.172   1.600 -0.2383  0.3252  0.0117
19672TIP3    H180507   5.941   1.141   1.660 -1.8824  1.2578 -1.2865
19672TIP3    H280508   6.060   1.234   1.651  0.7015 -1.5898  1.4948
19673TIP3   OH280509   3.612   0.543   4.487 -0.3342 -0.5193 -0.1320
19673TIP3    H180510   3.577   0.598   4.417 -0.0430 -0.3638 -0.1559
19673TIP3    H280511   3.534   0.515   4.536 -0.3663  1.8524  1.3494
19674TIP3   OH280512   4.262   0.663  15.161 -0.2168  1.0291  0.0006
19674TIP3    H180513   4.305   0.731  15.109 -0.9441  2.4822  1.2379
19674TIP3    H280514   4.266   0.695  15.251  1.0488 -1.4438  0.9398
19675TIP3   OH280515   0.320   5.237   2.854  0.3114  0.2354 -0.0752
19675TIP3    H180516   0.228   5.211   2.862 -0.2965  2.3364  0.6271
19675TIP3    H280517   0.368   5.174   2.908 -0.6164 -1.2337 -0.9009
19676TIP3   OH280518   2.536   5.376  10.328 -0.9121 -0.0038 -0.4615
19676TIP3    H180519   2.510   5.455  10.376 -0.2126  0.6405 -1.1157
19676TIP3    H280520   2.499   5.387  10.241  1.4834  0.9557 -1.4269
19677TIP3   OH280521   5.676   6.092  16.605 -0.3653 -0.1857  0.0149
19677TIP3    H180522   5.672   5.997  16.613 -1.0702 -0.2177 -0.6164
19677TIP3    H280523   5.688   6.108  16.511  0.1320  0.3416  0.1594
19678TIP3   OH280524   4.326   1.939  14.981  0.0294  0.4481 -0.0606
19678TIP3    H180525   4.349   2.004  14.915 -1.4711 -1.3807 -2.5505
19678TIP3    H280526   4.236   1.960  15.005 -0.1542 -0.1860 -0.1915
19679TIP3   OH280527   6.378   1.727   1.770 -0.5363 -0.1766 -0.7029
19679TIP3    H180528   6.361   1.821   1.760 -1.7497 -0.4517 -1.3973
19679TIP3    H280529   6.468   1.716   1.738  0.4066  1.0434  1.3498
19680TIP3   OH280530   5.089   5.272   4.140  0.4743  0.0610  0.4151
19680TIP3    H180531   5.009   5.253   4.188 -0.0803  1.0685 -0.0717
19680TIP3    H280532   5.068   5.251   4.049 -0.1624  2.7797 -0.1463
19681TIP3   OH280533   1.475   0.094   6.004 -0.5138  0.5521 -0.1638
19681TIP3    H180534   1.498   0.176   5.959 -1.7076  0.2957 -1.2893
19681TIP3    H280535   1.380   0.097   6.013 -0.5064 -0.4120  0.4219
19682TIP3   OH280536   5.127   2.538  15.660  0.2728  0.3464  0.0027
19682TIP3    H180537   5.112   2.445  15.676  1.6213 -0.0376 -0.7484
19682TIP3    H280538   5.041   2.574  15.640 -0.1355 -0.9530 -0.6993
19683TIP3   OH280539   4.898   1.786   4.108 -0.1928 -0.7387  0.3770
19683TIP3    H180540   4.957   1.829   4.045 -0.9260  1.0699  0.8440
19683TIP3    H280541   4.851   1.722   4.056  0.5908 -0.6423 -0.4954
19684TIP3   OH280542   5.509   1.973   1.759  0.3353 -0.0669  0.4734
19684TIP3    H180543   5.453   1.901   1.728 -0.5179  1.1429 -0.9080
19684TIP3    H280544   5.588   1.968   1.706  0.3442 -0.0781  0.4878
19685TIP3   OH280545   2.049   2.865   0.655  0.0975  0.2114  0.4099
19685TIP3    H180546   1.998   2.877   0.575  2.2033 -0.7538 -1.1974
19685TIP3    H280547   2.076   2.953   0.680 -0.3205  0.4933 -0.1255
19686TIP3   OH280548   4.708   4.165   5.809 -0.1495 -0.5072 -0.2542
19686TIP3    H180549   4.652   4.242   5.808  1.5776  0.9441  2.1411
19686TIP3    H280550   4.748   4.167   5.896  1.5316 -2.9657 -0.8831
19687TIP3   OH280551   6.651   1.217   0.772  0.1905 -0.0427 -0.0755
19687TIP3    H180552   6.561   1.233   0.802 -0.1258 -2.6402  0.5526
19687TIP3    H280553   6.683   1.147   0.829  2.3415  0.2508 -0.8481
19688TIP3   OH280554   3.134   2.539  15.665  0.6439 -0.0016 -0.4212
19688TIP3    H180555   3.221   2.526  15.704  0.4912 -0.8754 -0.3555
19688TIP3    H280556   3.121   2.461  15.610 -0.2210 -0.0055 -0.2113
19689TIP3   OH280557   6.799   6.232   5.418 -0.3925  0.0154  0.0366
19689TIP3    H180558   6.815   6.166   5.486  4.0039 -0.1112 -0.8385
19689TIP3    H280559   6.816   6.316   5.463  1.9108 -0.0372 -0.6016
19690TIP3   OH280560   6.108   6.609  14.767 -0.4059  0.0790  0.6187
19690TIP3    H180561   6.191   6.650  14.792 -1.0273  0.5330  2.0447
19690TIP3    H280562   6.071   6.669  14.702  0.5110 -0.2960 -0.2790
19691TIP3   OH280563   0.586   3.328  11.028  0.4648 -0.4765 -0.2232
19691TIP3    H180564   0.625   3.414  11.014 -0.1926 -0.2843 -0.9018
19691TIP3    H280565   0.501   3.332  10.985 -0.0194 -1.1264  0.6333
19692TIP3   OH280566   5.242   6.316  13.793 -0.1550 -0.0883  0.0415
19692TIP3    H180567   5.302   6.332  13.866  0.4147 -0.2961 -0.3746
19692TIP3    H280568   5.270   6.231  13.758 -1.6396 -0.9141  0.7672
19693TIP3   OH280569   1.615   3.344   3.718  0.0560  0.1987  0.2955
19693TIP3    H180570   1.638   3.274   3.657 -0.3909 -0.9780  1.4423
19693TIP3    H280571   1.559   3.402   3.667 -0.8651 -1.1159 -0.2396
19694TIP3   OH280572   3.631   2.138  10.969 -0.4298 -0.0323  0.1800
19694TIP3    H180573   3.673   2.089  10.898 -0.3976  0.2134  0.0270
19694TIP3    H280574   3.548   2.166  10.932 -1.0876 -1.1803  0.7420
19695TIP3   OH280575   4.402   2.057   1.323 -0.1449 -0.0881 -0.2092
19695TIP3    H180576   4.361   1.977   1.289  0.6477 -0.0906 -1.1919
19695TIP3    H280577   4.348   2.128   1.288 -0.6096 -0.1684  0.3303
19696TIP3   OH280578   2.276   6.679  17.034  0.7524 -0.2713 -0.0171
19696TIP3    H180579   2.360   6.695  17.077 -0.7474  3.0841  2.0210
19696TIP3    H280580   2.243   6.766  17.013 -1.8586 -1.5301 -1.5332
19697TIP3   OH280581   6.466   0.480  17.032 -0.3406  0.2585 -0.0168
19697TIP3    H180582   6.525   0.414  16.996  0.0979 -0.2417  1.5294
19697TIP3    H280583   6.378   0.449  17.011 -0.1152 -0.4700  0.0908
19698TIP3   OH280584   4.369   4.076  11.993 -0.3853 -0.3549  0.0583
19698TIP3    H180585   4.401   3.999  12.041 -1.0951 -1.2687 -0.9000
19698TIP3    H280586   4.287   4.047  11.954 -0.7816  0.9744 -0.1367
19699TIP3   OH280587   5.379   1.631   0.610 -0.0769  0.5026 -0.7376
19699TIP3    H180588   5.323   1.657   0.682  0.8285 -0.5589  0.3963
19699TIP3    H280589   5.466   1.623   0.649  0.9743  2.3828 -2.4965
19700TIP3   OH280590   4.631   5.767  11.719  0.3068  0.2443 -0.5004
19700TIP3    H180591   4.649   5.852  11.760 -0.4430 -0.0223  0.4154
19700TIP3    H280592   4.691   5.707  11.761  1.1418  0.3736 -1.4569
19701TIP3   OH280593   2.692   2.215   0.151  0.4716 -0.7125  0.1929
19701TIP3    H180594   2.739   2.271   0.089 -0.3985  1.8914  1.7013
19701TIP3    H280595   2.716   2.249   0.237 -2.8888 -0.1734  1.0824
19702TIP3   OH280596   6.341   0.439   5.316  0.3146 -0.1423 -0.0395
19702TIP3    H180597   6.282   0.375   5.356 -0.8945  0.7927 -0.2571
19702TIP3    H280598   6.400   0.465   5.386  1.0383 -1.7100 -0.0330
19703TIP3   OH280599   2.534   2.644   1.960  0.1175 -0.4276  0.8941
19703TIP3    H180600   2.613   2.600   1.927 -0.1125 -0.3733  0.2612
19703TIP3    H280601   2.469   2.574   1.967 -0.1796 -0.2384  0.1076
19704TIP3   OH280602   4.619   2.907  16.059  0.0413  1.3237  0.0532
19704TIP3    H180603   4.637   2.885  16.150 -1.1291 -0.1075 -0.0376
19704TIP3    H280604   4.539   2.960  16.062 -0.0625  1.1805 -0.1485
19705TIP3   OH280605   3.577   0.966  13.434  0.2156 -0.6702 -0.1663
19705TIP3    H180606   3.527   0.952  13.515  2.2641 -1.2938  1.0817
19705TIP3    H280607   3.565   0.884  13.385  1.1011 -1.4208  0.7989
19706TIP3   OH280608   2.007   4.582  16.617  0.2871 -0.1064 -0.8086
19706TIP3    H180609   2.072   4.519  16.648  0.8994  1.2172  0.7964
19706TIP3    H280610   1.953   4.600  16.694  0.7461  2.0237 -0.9215
19707TIP3   OH280611   5.642   1.168   6.555 -0.1794  0.2310  0.1403
19707TIP3    H180612   5.677   1.081   6.537 -0.3519  0.3401 -0.7740
19707TIP3    H280613   5.636   1.210   6.469 -1.4871  0.6132  0.3980
19708TIP3   OH280614   1.852   2.163   0.178  1.0971 -0.7560  0.1495
19708TIP3    H180615   1.812   2.243   0.212 -0.5808 -1.2408 -0.5465
19708TIP3    H280616   1.903   2.129   0.251  1.6303  0.8078  0.5318
19709TIP3   OH280617   4.163   4.199   1.241 -0.3208  0.1590  0.2433
19709TIP3    H180618   4.145   4.243   1.324  0.3209  0.5939  0.1561
19709TIP3    H280619   4.085   4.214   1.188 -0.9090 -0.4585  0.8977
19710TIP3   OH280620   4.017   0.356  16.842 -0.1592  0.1379  0.4833
19710TIP3    H180621   4.039   0.317  16.927  0.3312  1.7454  1.1305
19710TIP3    H280622   4.100   0.358  16.794  0.1757  1.7574  1.0632
19711TIP3   OH280623   3.455   6.173  16.054 -0.7326  0.3385  0.2887
19711TIP3    H180624   3.513   6.099  16.035 -0.3190  0.0843  2.2897
19711TIP3    H280625   3.372   6.149  16.014  0.1251  0.0609 -1.4268
19712TIP3   OH280626   6.543   6.758  10.882 -0.0838 -0.1058  0.7449
19712TIP3    H180627   6.460   6.767  10.929  0.0548 -0.2377  1.0107
19712TIP3    H280628   6.533   6.816  10.806 -1.1943 -1.6129 -0.3145
19713TIP3   OH280629   2.590   6.764   5.400  0.5257  0.1755 -0.0717
19713TIP3    H180630   2.647   6.792   5.472  0.4996  2.9672 -1.0079
19713TIP3    H280631   2.649   6.725   5.336  1.1777  1.3396 -0.2192
19714TIP3   OH280632   0.916   6.392  15.235 -0.0606  0.7446  0.4890
19714TIP3    H180633   0.900   6.453  15.307 -0.9935 -0.6226  1.4857
19714TIP3    H280634   0.840   6.400  15.178 -0.1868  0.4921  0.6240
19715TIP3   OH280635   0.629   2.794   1.022  0.5298 -0.2159  1.0326
19715TIP3    H180636   0.569   2.788   0.948 -0.4470  0.4127  1.7664
19715TIP3    H280637   0.696   2.728   1.003  0.4681  0.1376 -0.5518
19716TIP3   OH280638   0.671   4.088   2.191 -0.1821 -0.0481 -0.8437
19716TIP3    H180639   0.764   4.112   2.182  0.7069 -1.7825  2.3249
19716TIP3    H280640   0.673   3.997   2.221 -2.8458  0.3514  0.7807
19717TIP3   OH280641   6.827   0.160  15.079 -0.0628 -0.4231  0.7715
19717TIP3    H180642   6.776   0.240  15.089 -1.4421 -0.9794 -1.2462
19717TIP3    H280643   6.869   0.169  14.993 -0.0179 -1.7204  0.6409
19718TIP3   OH280644   3.082   4.149   6.000  0.0214 -0.5342  0.3962
19718TIP3    H180645   3.144   4.183   5.935 -0.1605  0.0903  0.5384
19718TIP3    H280646   3.136   4.115   6.071  0.2407 -1.7982 -0.3487
19719TIP3   OH280647   2.305   4.786   3.977  0.2067 -0.3673  0.1112
19719TIP3    H180648   2.377   4.750   4.028  1.0881 -0.4161 -1.1078
19719TIP3    H280649   2.346   4.853   3.922 -0.9153  0.5481  0.3505
19720TIP3   OH280650   4.681   0.288  11.544  0.6332  0.0624 -0.1455
19720TIP3    H180651   4.647   0.210  11.588 -1.1900  0.0823 -1.3870
19720TIP3    H280652   4.671   0.358  11.609 -0.4325 -0.2177  0.0146
19721TIP3   OH280653   6.524   4.225  15.092 -0.1267 -0.3504 -1.0628
19721TIP3    H180654   6.505   4.188  15.006 -0.7544 -0.0787 -1.0483
19721TIP3    H280655   6.611   4.191  15.114  1.3841  1.8718 -3.0642
19722TIP3   OH280656   3.196   1.530  13.599  0.2986  0.0933 -0.0934
19722TIP3    H180657   3.259   1.474  13.644  0.6364  0.3562 -0.2407
19722TIP3    H280658   3.155   1.473  13.534  0.9855  0.1362 -0.5752
19723TIP3   OH280659   0.030   4.677   5.808 -0.5954 -0.3249  0.1002
19723TIP3    H180660  -0.049   4.629   5.833  0.3853 -2.9294 -1.3852
19723TIP3    H280661   0.019   4.694   5.714  0.8090 -1.2520 -0.2619
19724TIP3   OH280662   5.925   2.413   4.343 -0.0550 -0.4255 -0.2539
19724TIP3    H180663   5.928   2.331   4.294  1.5339 -2.1317  2.4416
19724TIP3    H280664   5.992   2.403   4.410 -0.1845  2.9068  0.5416
19725TIP3   OH280665   5.261   2.245   1.210 -0.6223 -0.3600  0.1353
19725TIP3    H180666   5.225   2.257   1.122 -2.2898 -2.0121  0.5341
19725TIP3    H280667   5.210   2.304   1.265  0.1176  0.3369  0.1011
19726TIP3   OH280668   4.240   5.392  15.496 -0.1880 -0.1024 -0.0954
19726TIP3    H180669   4.166   5.337  15.521 -1.6978  2.2942  1.1606
19726TIP3    H280670   4.316   5.352  15.539 -1.2239 -1.1250  0.8592
19727TIP3   OH280671   2.588   3.976   6.032 -0.2701 -0.1006  0.3909
19727TIP3    H180672   2.542   3.914   6.089 -2.3734  0.7111 -0.3048
19727TIP3    H280673   2.630   3.921   5.966  0.0830 -0.9075  1.2650
19728TIP3   OH280674   5.136   1.151  14.170 -0.4008 -0.2481 -0.1623
19728TIP3    H180675   5.189   1.230  14.185 -0.3829 -0.3316  0.2263
19728TIP3    H280676   5.073   1.151  14.243 -0.2773 -0.6961 -0.0530
19729TIP3   OH280677   4.554   0.707   2.596 -0.3262 -0.0426 -0.0423
19729TIP3    H180678   4.555   0.702   2.691 -3.2438  0.9595  0.1308
19729TIP3    H280679   4.625   0.767   2.574 -0.9751  1.4523  1.7093
19730TIP3   OH280680   6.321   2.901   2.266  0.0716  0.3499 -0.3336
19730TIP3    H180681   6.308   2.958   2.190  1.1767  0.2845 -0.5927
19730TIP3    H280682   6.332   2.961   2.339 -0.3202  0.4304 -0.3398
19731TIP3   OH280683   6.538   2.672   3.405  0.4926 -0.0433 -0.1704
19731TIP3    H180684   6.532   2.682   3.500 -0.4749  0.5266 -0.2833
19731TIP3    H280685   6.497   2.588   3.386  1.3575 -0.5155 -0.0271
19732TIP3   OH280686   4.198   1.872   6.447  0.5263 -0.3426  0.2899
19732TIP3    H180687   4.105   1.878   6.468  0.7162 -1.1557  1.4209
19732TIP3    H280688   4.213   1.943   6.384 -0.5411  0.7333  1.1976
19733TIP3   OH280689   5.268   3.095  12.085  0.3287 -0.0126 -0.6014
19733TIP3    H180690   5.292   3.187  12.090  0.3208 -0.0570  0.6650
19733TIP3    H280691   5.352   3.049  12.078  0.5335 -0.0301  1.3914
19734TIP3   OH280692   2.745   6.482   1.588 -0.7116 -0.0756 -0.0769
19734TIP3    H180693   2.815   6.425   1.620 -0.6397  0.6756  1.1984
19734TIP3    H280694   2.791   6.562   1.560 -0.7226 -0.8770 -2.6027
19735TIP3   OH280695   5.002   3.968  13.655 -0.0749 -0.7857 -0.2601
19735TIP3    H180696   5.031   3.984  13.744 -1.2220 -0.0899  0.0139
19735TIP3    H280697   5.027   3.877  13.637  0.1406 -0.9418  0.7826
19736TIP3   OH280698   1.247   2.266   1.811 -0.0852 -0.1843  0.8021
19736TIP3    H180699   1.235   2.206   1.884  1.4977 -0.0892  1.1818
19736TIP3    H280700   1.335   2.302   1.824  0.1115  0.0645 -0.9852
19737TIP3   OH280701   1.638   6.735   4.918 -0.2928  0.5791  0.8558
19737TIP3    H180702   1.617   6.826   4.899  0.2611  0.2995 -1.3824
19737TIP3    H280703   1.557   6.687   4.901  0.2710  0.2959 -1.3236
19738TIP3   OH280704   6.157   2.625   5.140 -0.8420  0.2895  0.5862
19738TIP3    H180705   6.065   2.601   5.144 -0.2762 -2.8102 -1.1758
19738TIP3    H280706   6.198   2.576   5.211 -0.1412 -1.4299 -0.9004
19739TIP3   OH280707   5.511   4.695  14.686 -0.1847 -0.0228  0.4526
19739TIP3    H180708   5.439   4.708  14.624 -0.7324 -0.4934  0.9768
19739TIP3    H280709   5.561   4.776  14.682  0.2254 -0.3144 -1.1461
19740TIP3   OH280710   2.655   1.397  12.355  0.0121  0.2720  0.3476
19740TIP3    H180711   2.704   1.319  12.383  0.5331 -0.1492 -1.6252
19740TIP3    H280712   2.573   1.362  12.321  0.7576  0.4195 -1.7133
19741TIP3   OH280713   0.418   2.967  15.635  0.2990 -0.2479 -0.1935
19741TIP3    H180714   0.439   3.037  15.573 -0.6750 -0.4581 -0.7841
19741TIP3    H280715   0.431   3.006  15.721  0.3006  0.4893 -0.5227
19742TIP3   OH280716   5.499   4.513  16.603  0.4203  0.0967 -0.2998
19742TIP3    H180717   5.535   4.563  16.530 -0.2463  1.3226  0.1712
19742TIP3    H280718   5.436   4.453  16.563  0.0158  0.8012 -0.7532
19743TIP3   OH280719   3.311   5.994  11.858  0.1676  0.0454 -0.6805
19743TIP3    H180720   3.319   5.906  11.894  0.5950 -1.3883 -3.9461
19743TIP3    H280721   3.229   5.992  11.808 -0.6784  2.0843  0.4856
19744TIP3   OH280722   3.035   0.857   1.333  0.2015 -0.0535 -0.4642
19744TIP3    H180723   3.085   0.776   1.319  0.3080  0.0824 -0.8770
19744TIP3    H280724   2.996   0.845   1.419  1.4156  0.0880  0.1326
19745TIP3   OH280725   0.522   2.978  16.510 -0.0481  0.1847  0.1669
19745TIP3    H180726   0.588   2.912  16.489 -2.0390 -1.8544 -0.0871
19745TIP3    H280727   0.457   2.970  16.440 -2.2360 -0.3259  2.1287
19746TIP3   OH280728   4.114   6.016  13.067  0.2897  0.3987  0.4627
19746TIP3    H180729   4.026   6.045  13.044  0.7468  1.1982 -0.3508
19746TIP3    H280730   4.123   5.931  13.023 -0.2624  0.0565  1.0018
19747TIP3   OH280731   6.595   0.561   2.577 -0.0702 -0.1910  0.5224
19747TIP3    H180732   6.619   0.629   2.513 -2.2643  0.1241 -0.0378
19747TIP3    H280733   6.595   0.606   2.661  0.6615 -0.0611  0.4604
19748TIP3   OH280734   1.740   4.426   4.696 -0.5405  0.0824  0.5477
19748TIP3    H180735   1.752   4.508   4.648  1.6599 -0.4608  0.0345
19748TIP3    H280736   1.664   4.385   4.656 -0.6575  1.1064 -0.3133
19749TIP3   OH280737   6.546   5.527  12.409  0.2368 -0.0133  0.4748
19749TIP3    H180738   6.531   5.498  12.319 -1.3843  2.0417 -0.0037
19749TIP3    H280739   6.496   5.465  12.463  0.2770 -0.5726 -0.1178
19750TIP3   OH280740   0.953   5.593   1.848  0.2252  0.1547  0.0252
19750TIP3    H180741   1.032   5.617   1.799  0.4651 -1.2730 -0.3200
19750TIP3    H280742   0.950   5.656   1.920  1.6185  0.3015 -0.0146
19751TIP3   OH280743   1.095   0.753  11.161 -0.3381 -0.1439  0.0396
19751TIP3    H180744   1.089   0.816  11.089  1.3756 -0.6180 -0.5623
19751TIP3    H280745   1.064   0.670  11.123 -3.6200  0.4467  1.1200
19752TIP3   OH280746   3.597   3.946   1.016  0.0530  0.1738 -0.0695
19752TIP3    H180747   3.553   3.865   0.989 -0.5505 -0.0133  1.3955
19752TIP3    H280748   3.688   3.934   0.987 -0.6303  0.2849 -2.5453
19753TIP3   OH280749   4.044   2.859   4.128  0.0628 -0.1247 -0.4424
19753TIP3    H180750   4.037   2.950   4.101  0.7168 -0.5686 -2.2755
19753TIP3    H280751   4.129   2.853   4.171 -0.3367  0.2859  0.4224
19754TIP3   OH280752   1.983   3.076  16.836  0.5132  0.2000 -0.0478
19754TIP3    H180753   1.929   3.037  16.767 -0.1076  1.5833 -0.3755
19754TIP3    H280754   1.942   3.045  16.917  0.5602 -0.5238 -0.2918
19755TIP3   OH280755   2.859   3.092  13.258 -0.4037 -0.0908  0.1464
19755TIP3    H180756   2.949   3.120  13.276 -0.4522  0.3014 -0.2089
19755TIP3    H280757   2.809   3.173  13.254 -0.6989 -0.2832 -0.0587
19756TIP3   OH280758   1.177   3.106  12.154  0.3797 -0.5457 -0.7506
19756TIP3    H180759   1.246   3.165  12.185 -1.7771  1.3803  0.7108
19756TIP3    H280760   1.128   3.083  12.233 -1.5117 -0.6587 -1.9116
19757TIP3   OH280761   6.793   5.650  14.623 -0.1905 -0.3597  0.2837
19757TIP3    H180762   6.763   5.696  14.702  2.1293  1.9862 -0.0246
19757TIP3    H280763   6.724   5.666  14.558 -0.7378  0.2796  1.0014
19758TIP3   OH280764   5.658   1.374   1.755 -0.4216  0.1563  0.0945
19758TIP3    H180765   5.676   1.467   1.740  1.6140 -0.2956 -0.6151
19758TIP3    H280766   5.684   1.332   1.673  1.1358 -1.3050  1.2922
19759TIP3   OH280767   0.429   1.173  11.539  0.5910 -0.0627 -0.2713
19759TIP3    H180768   0.434   1.080  11.519  1.7372  0.1371 -1.0655
19759TIP3    H280769   0.471   1.216  11.464 -1.0754  1.1851 -0.5341
19760TIP3   OH280770   3.601   6.662   0.238  0.2290 -0.1927  0.1527
19760TIP3    H180771   3.616   6.728   0.306  0.8308  0.2223 -0.3633
19760TIP3    H280772   3.649   6.695   0.162 -0.1499 -0.8165 -0.3727
19761TIP3   OH280773   1.096   1.516   3.877 -0.5826 -0.2611  0.2346
19761TIP3    H180774   1.018   1.481   3.919 -0.3151 -0.6266  0.4349
19761TIP3    H280775   1.168   1.462   3.910 -0.1669  0.4365  0.4996
19762TIP3   OH280776   3.025   4.263   4.731  0.2276  0.8024 -0.0503
19762TIP3    H180777   2.931   4.273   4.744  0.0346  0.4324 -1.0683
19762TIP3    H280778   3.033   4.194   4.665  1.2311  0.4541  0.4097
19763TIP3   OH280779   2.649   0.408  13.297 -0.1693 -0.0211  0.3946
19763TIP3    H180780   2.598   0.447  13.368 -0.3397  1.2611 -0.3899
19763TIP3    H280781   2.658   0.316  13.321 -2.0597 -0.0915  1.0278
19764TIP3   OH280782   2.548   6.111   0.339 -0.3038  0.4736 -0.1019
19764TIP3    H180783   2.568   6.109   0.433 -0.5439  0.8901 -0.0408
19764TIP3    H280784   2.623   6.068   0.298  0.5061  1.5770  0.1669
19765TIP3   OH280785   2.353   6.597   5.360  0.1522  0.4552 -0.5007
19765TIP3    H180786   2.388   6.585   5.272  0.6617  0.4344 -0.3008
19765TIP3    H280787   2.419   6.651   5.405  0.2353 -0.1209  0.0781
19766TIP3   OH280788   0.206   0.771  11.937 -0.3649  0.2225  0.2123
19766TIP3    H180789   0.227   0.719  12.015 -2.8739  0.1567  0.9615
19766TIP3    H280790   0.130   0.823  11.964  0.0522  1.8504 -1.5489
19767TIP3   OH280791   4.442   5.726   1.009 -0.5874  0.7847 -0.5904
19767TIP3    H180792   4.483   5.807   1.037 -0.1125  0.1839  0.4983
19767TIP3    H280793   4.386   5.701   1.082 -0.8099  0.1789 -0.9591
19768TIP3   OH280794   3.694   3.309  14.155  0.4232 -0.6725  0.0028
19768TIP3    H180795   3.614   3.334  14.202  0.3163  0.6722 -0.8656
19768TIP3    H280796   3.730   3.237  14.207 -0.7758 -0.5890  1.0019
19769TIP3   OH280797   1.285   3.933   6.248 -0.2629 -0.0618 -0.5618
19769TIP3    H180798   1.320   3.957   6.333 -1.7029  1.5732 -0.3911
19769TIP3    H280799   1.327   3.849   6.228  0.8466  0.0040  1.2856
19770TIP3   OH280800   4.333   2.684   0.381 -0.3458 -0.0785 -0.0093
19770TIP3    H180801   4.356   2.599   0.344 -0.0995 -0.0639  0.1061
19770TIP3    H280802   4.409   2.740   0.363  0.2042 -0.3462  1.3961
19771TIP3   OH280803   1.300   5.901   4.564 -0.4321  0.5097 -0.5828
19771TIP3    H180804   1.332   5.913   4.475  1.8543  1.8712  0.3325
19771TIP3    H280805   1.360   5.837   4.602  0.5488  2.1782  0.8204
19772TIP3   OH280806   1.407   1.348  15.692 -0.3100 -0.0731 -0.4973
19772TIP3    H180807   1.334   1.335  15.754 -0.4604  0.8214 -0.4781
19772TIP3    H280808   1.384   1.427  15.645  1.2635  0.9630  0.3896
19773TIP3   OH280809   2.146   1.053  14.706 -0.1806 -0.3166 -0.0817
19773TIP3    H180810   2.237   1.083  14.703  0.3379 -1.8221 -0.3720
19773TIP3    H280811   2.135   1.017  14.793 -0.2992 -0.7332 -0.2686
19774TIP3   OH280812   6.715   3.126  16.670 -0.2066  0.1361 -0.0514
19774TIP3    H180813   6.733   3.171  16.753  0.3606  0.2878 -0.2470
19774TIP3    H280814   6.802   3.103  16.636 -0.4744 -0.9357 -0.0558
19775TIP3   OH280815   2.687   4.250  16.997  0.2984  0.0929 -0.0040
19775TIP3    H180816   2.709   4.235  17.089  0.6867 -1.7072 -0.3385
19775TIP3    H280817   2.741   4.325  16.971  1.8669 -0.7379  0.6810
19776TIP3   OH280818   2.777   5.945   2.929  0.0811 -0.4003  0.4979
19776TIP3    H180819   2.818   5.975   2.848 -2.0033  0.6353 -0.2400
19776TIP3    H280820   2.837   5.879   2.963  0.7601 -1.3204 -2.2148
19777TIP3   OH280821   6.317   1.572  12.283 -0.1877  0.3695  0.0399
19777TIP3    H180822   6.322   1.660  12.246  0.0519 -0.3751 -1.7978
19777TIP3    H280823   6.372   1.518  12.226 -0.1833 -0.9526  1.2215
19778TIP3   OH280824   5.889   0.529   5.799  0.3435  0.6913 -0.5076
19778TIP3    H180825   5.890   0.517   5.704 -2.5644  1.1499 -0.6829
19778TIP3    H280826   5.853   0.616   5.812  0.5610  0.5774  1.0515
19779TIP3   OH280827   0.086   0.002  11.635 -0.1838  0.1890  0.1079
19779TIP3    H180828   0.178  -0.021  11.622 -0.5955 -0.6851 -1.5352
19779TIP3    H280829   0.087   0.064  11.707  1.7421  0.5341 -0.1555
19780TIP3   OH280830   0.445   1.493   3.737 -0.2062  0.3960  0.0695
19780TIP3    H180831   0.455   1.587   3.719  0.3397  0.8615  2.4263
19780TIP3    H280832   0.473   1.483   3.828 -0.7627 -1.9928  0.0481
19781TIP3   OH280833   0.978   1.864  13.150 -0.1069  0.7274 -0.5483
19781TIP3    H180834   0.945   1.883  13.062 -0.0706 -0.0999 -0.7496
19781TIP3    H280835   1.068   1.896  13.150  0.5653 -1.0175 -1.4770
19782TIP3   OH280836   1.511   4.359  11.515  0.2316 -0.4166 -0.5150
19782TIP3    H180837   1.569   4.359  11.592 -0.6230  0.0093  0.1441
19782TIP3    H280838   1.464   4.442  11.520 -0.1492 -0.5794 -1.2585
19783TIP3   OH280839   2.009   2.129   3.335  0.0204  0.0726 -0.3477
19783TIP3    H180840   1.972   2.071   3.269  1.5555 -0.6916 -0.5580
19783TIP3    H280841   1.940   2.195   3.350 -1.4960 -1.4058 -0.5558
19784TIP3   OH280842   2.817   3.676  16.145 -0.4115  0.2745  0.0705
19784TIP3    H180843   2.725   3.656  16.125 -0.1625  0.9311 -1.9259
19784TIP3    H280844   2.817   3.770  16.165 -0.3851 -0.0363  1.6516
19785TIP3   OH280845   3.748   0.279  13.999  0.5201 -0.4237 -0.2174
19785TIP3    H180846   3.750   0.290  14.094  0.0682  0.5259 -0.2930
19785TIP3    H280847   3.674   0.221  13.983  0.7140 -0.7376  0.0194
19786TIP3   OH280848   5.320   5.292  14.045 -0.5266 -0.4579  0.0453
19786TIP3    H180849   5.406   5.331  14.031 -0.3161 -0.2843  1.6069
19786TIP3    H280850   5.292   5.328  14.130 -2.6508  0.4171 -0.9599
19787TIP3   OH280851   6.817   1.716   6.161 -0.2170  0.2491  0.1700
19787TIP3    H180852   6.906   1.750   6.173 -0.9447  3.0573 -1.5037
19787TIP3    H280853   6.764   1.762   6.227 -0.8459  0.6816 -0.6161
19788TIP3   OH280854   1.654   4.406   4.011  0.4036 -0.1901  0.0195
19788TIP3    H180855   1.661   4.311   4.022  0.6266  0.0262  1.9816
19788TIP3    H280856   1.661   4.441   4.099  0.1921  1.6624 -0.6654
19789TIP3   OH280857   5.036   1.626  14.720  0.2348  0.0267 -0.2826
19789TIP3    H180858   5.092   1.702  14.738  0.5170 -0.4285  0.8882
19789TIP3    H280859   5.088   1.551  14.750 -0.5100 -0.5213 -0.3302
19790TIP3   OH280860   5.860   0.129   1.765  0.3993  0.2006 -0.0624
19790TIP3    H180861   5.780   0.093   1.802 -0.1548  1.5994  0.1638
19790TIP3    H280862   5.911   0.053   1.737 -0.9448 -0.7123 -0.0751
19791TIP3   OH280863   2.351   4.708   1.399 -0.1909  0.0859  0.7429
19791TIP3    H180864   2.362   4.617   1.373  2.4036  0.2791  0.9346
19791TIP3    H280865   2.306   4.749   1.325 -2.0659 -1.4390  0.9613
19792TIP3   OH280866   3.561   0.076   5.068 -0.0598  0.1081 -0.2456
19792TIP3    H180867   3.478   0.060   5.024  0.5556  1.4614 -2.0711
19792TIP3    H280868   3.622   0.013   5.028  0.5937  1.6029 -1.7472
19793TIP3   OH280869   3.777   6.011   4.217 -0.3278 -0.3497 -0.0690
19793TIP3    H180870   3.693   5.971   4.240 -0.6708 -1.2938 -2.7039
19793TIP3    H280871   3.823   5.943   4.168  1.4570  0.6241  0.1916
19794TIP3   OH280872   3.758   0.788  13.858 -0.4109  0.5194  0.5278
19794TIP3    H180873   3.720   0.700  13.864 -0.6591  0.6406  0.7482
19794TIP3    H280874   3.788   0.807  13.946  0.3102  0.3636  0.3225
19795TIP3   OH280875   1.225   1.703   4.098  0.6687  0.2606  0.2497
19795TIP3    H180876   1.195   1.626   4.146  0.6495 -0.5373 -0.9884
19795TIP3    H280877   1.159   1.770   4.115  0.3183 -0.2078  0.7664
19796TIP3   OH280878   0.569   1.269  14.818  0.1967  0.0187  0.2984
19796TIP3    H180879   0.518   1.344  14.790 -0.7837 -0.8146 -0.2267
19796TIP3    H280880   0.650   1.273  14.766 -0.8026 -0.4962 -1.3679
19797TIP3   OH280881   4.547   6.539  11.093 -0.4641  0.2388  0.1990
19797TIP3    H180882   4.467   6.573  11.053 -0.0705  1.8170  0.6547
19797TIP3    H280883   4.523   6.453  11.126 -1.8125  0.4371 -0.1861
19798TIP3   OH280884   1.663   4.632  11.487  0.7436  0.3364 -0.0170
19798TIP3    H180885   1.682   4.654  11.579 -0.9305  0.4860  0.3338
19798TIP3    H280886   1.567   4.628  11.483  0.8070 -0.2564 -1.6378
19799TIP3   OH280887   2.814   6.728   0.837 -0.0441 -0.3724  0.5353
19799TIP3    H180888   2.790   6.785   0.765  0.4297 -3.6586 -2.5207
19799TIP3    H280889   2.736   6.676   0.854  0.1236 -0.2475  1.8510
19800TIP3   OH280890   2.669   2.371  16.004  0.2496 -0.0339 -0.2195
19800TIP3    H180891   2.678   2.451  15.952 -0.3107 -0.2216 -0.6150
19800TIP3    H280892   2.608   2.395  16.074  0.1223 -0.0945 -0.3081
19801TIP3   OH280893   4.343   1.102   4.670  0.0549 -0.1077  0.3334
19801TIP3    H180894   4.313   1.192   4.674  0.1370 -0.0833  0.4240
19801TIP3    H280895   4.264   1.049   4.668 -0.0276  0.0321 -1.5690
19802TIP3   OH280896   0.904   1.342   2.049 -0.0955  0.4735 -0.3689
19802TIP3    H180897   0.816   1.370   2.024 -0.1784 -0.5009 -1.2834
19802TIP3    H280898   0.948   1.421   2.079 -0.8718  1.2212 -1.1525
19803TIP3   OH280899   1.626   4.107   3.993  0.2406  0.3437  0.1242
19803TIP3    H180900   1.534   4.105   3.967  0.4535  0.7281 -0.7072
19803TIP3    H280901   1.624   4.114   4.088 -0.5865 -1.1571  0.2554
19804TIP3   OH280902   5.259   4.665   1.141 -0.1075  0.1963 -0.9099
19804TIP3    H180903   5.213   4.659   1.224  0.1246  1.2573 -0.6833
19804TIP3    H280904   5.344   4.703   1.164 -0.2780  1.0838 -1.7075
19805TIP3   OH280905   0.770   3.456   4.187  0.3179 -1.2608 -0.5073
19805TIP3    H180906   0.806   3.397   4.121  0.7689 -1.9205  0.3168
19805TIP3    H280907   0.752   3.537   4.138  0.2642 -1.8593 -1.5193
19806TIP3   OH280908   2.338   3.321   4.771 -0.1506 -0.1877 -0.1938
19806TIP3    H180909   2.340   3.228   4.746 -0.3609 -0.3126  0.2427
19806TIP3    H280910   2.407   3.361   4.718  0.8068 -0.8252  0.5254
19807TIP3   OH280911   6.455   3.421  11.210  0.3587 -0.2135  0.1195
19807TIP3    H180912   6.478   3.401  11.119  0.8300  0.3781  0.1023
19807TIP3    H280913   6.506   3.358  11.262 -1.7302 -2.1962 -0.0780
19808TIP3   OH280914   5.695   1.508   3.959  0.5890 -0.1700  0.3107
19808TIP3    H180915   5.759   1.462   4.013 -0.1261 -2.1159 -0.3954
19808TIP3    H280916   5.739   1.589   3.933  3.1659 -1.8301 -0.8872
19809TIP3   OH280917   3.855   1.400  14.646  0.0502  0.0771 -0.3761
19809TIP3    H180918   3.855   1.422  14.553 -1.1709  1.2057 -0.1396
19809TIP3    H280919   3.909   1.321  14.652 -0.2411 -0.2944 -2.1015
19810TIP3   OH280920   4.234   3.473   5.684 -0.3998 -0.7872  0.4615
19810TIP3    H180921   4.324   3.440   5.689 -0.1081 -0.0856  0.0219
19810TIP3    H280922   4.240   3.564   5.712 -0.4324  0.1776 -2.3683
19811TIP3   OH280923   0.536   4.686  11.731  0.4949  0.5021  0.2245
19811TIP3    H180924   0.451   4.650  11.707  0.5926  0.3139  0.1491
19811TIP3    H280925   0.524   4.781  11.731  0.4783  0.5039 -0.5242
19812TIP3   OH280926   6.820   1.144   4.856 -0.2751 -0.5635 -0.3769
19812TIP3    H180927   6.783   1.060   4.826 -1.4242 -0.3860  0.4671
19812TIP3    H280928   6.744   1.193   4.888  0.5912  0.1497  0.6520
19813TIP3   OH280929   0.657   3.677   2.583 -0.2210  0.4078  0.3404
19813TIP3    H180930   0.602   3.700   2.659  0.7772 -0.9624  1.5383
19813TIP3    H280931   0.743   3.712   2.604 -0.4362  2.0039 -1.2462
19814TIP3   OH280932   3.941   4.388   3.146 -0.3480  0.5928  0.4353
19814TIP3    H180933   3.968   4.473   3.110  1.3812  0.4839  1.3546
19814TIP3    H280934   3.917   4.337   3.069 -1.3469  1.8716 -0.1479
19815TIP3   OH280935   1.177   6.609   2.429 -0.2148  0.3342  0.0822
19815TIP3    H180936   1.088   6.624   2.395 -0.1594 -0.4621 -0.4494
19815TIP3    H280937   1.167   6.536   2.490  0.4952 -1.8189 -2.2001
19816TIP3   OH280938   4.028   5.777   4.124  0.8258  0.0196 -0.2776
19816TIP3    H180939   3.972   5.700   4.137 -1.0782  1.3466 -0.2220
19816TIP3    H280940   4.064   5.767   4.036 -0.3932 -0.3354 -0.7450
19817TIP3   OH280941   6.480   5.635   3.402  0.2012  0.2040 -0.0533
19817TIP3    H180942   6.412   5.593   3.455 -0.4794 -1.7157 -2.2854
19817TIP3    H280943   6.433   5.690   3.340  0.8083  0.5040 -0.2613
19818TIP3   OH280944   5.096   4.928   3.053  0.4224 -0.4511 -0.3269
19818TIP3    H180945   5.040   5.001   3.027  3.5303  1.4867 -2.2221
19818TIP3    H280946   5.136   4.956   3.135 -0.9375 -1.6464  0.8008
19819TIP3   OH280947   5.252   4.584   0.712  0.4000 -0.0714  0.2613
19819TIP3    H180948   5.331   4.635   0.733  1.1541 -0.8107 -0.6898
19819TIP3    H280949   5.192   4.648   0.674  0.6928  0.4253  0.6157
19820TIP3   OH280950   6.417   6.639   0.632 -0.0347 -0.0621  0.0399
19820TIP3    H180951   6.422   6.723   0.677 -2.2208  1.4389 -2.2563
19820TIP3    H280952   6.355   6.587   0.683 -2.3639  1.5535 -1.0057
19821TIP3   OH280953   3.738   4.174   1.441  0.0349 -0.5106  0.4396
19821TIP3    H180954   3.814   4.141   1.488  0.1286  0.5925  1.0835
19821TIP3    H280955   3.666   4.168   1.504  0.4576  2.3864  1.3359
19822TIP3   OH280956   1.095   5.244  15.639 -0.9393  0.2264  0.0106
19822TIP3    H180957   1.151   5.260  15.715 -0.9919 -0.6174  0.2297
19822TIP3    H280958   1.151   5.200  15.576 -0.4623  2.2326 -1.0768
19823TIP3   OH280959   1.336   4.103  13.713  0.0771 -0.3925 -0.0801
19823TIP3    H180960   1.383   4.098  13.797  2.0829  0.2352 -1.1145
19823TIP3    H280961   1.399   4.070  13.649 -0.8333  0.6707 -1.5594
19824TIP3   OH280962   5.384   1.993  13.677  0.2550 -0.6000  0.0044
19824TIP3    H180963   5.469   1.970  13.714  0.1187 -0.5347  0.3603
19824TIP3    H280964   5.385   2.089  13.671  0.3366 -0.6194 -0.3056
19825TIP3   OH280965   6.493   3.017  15.241  0.6380  0.5608  0.4350
19825TIP3    H180966   6.576   2.990  15.203  0.0664 -0.5805 -0.0606
19825TIP3    H280967   6.515   3.043  15.330  1.7414  1.6941 -0.1386
19826TIP3   OH280968   3.484   4.464   0.156  0.1106  0.1953 -0.3670
19826TIP3    H180969   3.487   4.387   0.213  0.9166  1.3249  1.2108
19826TIP3    H280970   3.407   4.451   0.101 -0.0307 -1.5029  0.1925
19827TIP3   OH280971   4.411   4.469   4.909  0.2402 -0.0104  0.1496
19827TIP3    H180972   4.426   4.379   4.881  0.1354  0.1514 -0.4349
19827TIP3    H280973   4.324   4.491   4.876 -0.6003 -0.3491  2.0179
19828TIP3   OH280974   3.197   6.111  14.160  0.4359 -0.1111 -0.0064
19828TIP3    H180975   3.142   6.035  14.142  0.5325  0.0443 -1.0562
19828TIP3    H280976   3.223   6.102  14.251 -2.6333  0.6828  1.0518
19829TIP3   OH280977   3.284   3.920  15.553  0.0521 -0.1275 -0.5427
19829TIP3    H180978   3.264   3.871  15.633  0.5585 -0.4406 -0.6035
19829TIP3    H280979   3.261   4.011  15.573 -0.6945 -0.3585 -0.3567
19830TIP3   OH280980   1.019   2.557   2.498 -0.0142  0.5552 -0.1811
19830TIP3    H180981   0.935   2.583   2.461  0.8268  2.1937 -1.0398
19830TIP3    H280982   1.071   2.530   2.423  0.6524  0.8066  0.1793
19831TIP3   OH280983   4.201   1.608  13.460  0.3913 -0.0594 -0.6069
19831TIP3    H180984   4.167   1.542  13.521 -0.7087 -0.4888 -1.6592
19831TIP3    H280985   4.165   1.691  13.491  1.9654  0.1471  0.8612
19832TIP3   OH280986   0.552   3.155   2.105 -0.0590  0.5153 -0.1305
19832TIP3    H180987   0.563   3.193   2.192  0.1921 -0.8578  0.4709
19832TIP3    H280988   0.562   3.228   2.045  1.3143  1.2354  0.9174
19833TIP3   OH280989   5.646   0.853  16.317 -0.3681 -0.2700  0.0840
19833TIP3    H180990   5.657   0.913  16.391 -1.7632  0.1278 -0.0046
19833TIP3    H280991   5.735   0.826  16.295  0.3941  2.4027 -0.4155
19834TIP3   OH280992   3.436   3.405  14.267  0.2492 -0.4941  0.1219
19834TIP3    H180993   3.412   3.497  14.254 -0.0842 -0.5666  0.2127
19834TIP3    H280994   3.434   3.394  14.362 -0.2708 -0.7418  0.0855
19835TIP3   OH280995   1.341   6.778  15.666 -1.3162  0.3600 -0.1493
19835TIP3    H180996   1.276   6.847  15.653 -2.2320 -0.5341 -0.5002
19835TIP3    H280997   1.300   6.719  15.730 -0.5597  0.1194  0.1251
19836TIP3   OH280998   3.899   6.551  12.260 -0.6223 -0.7051  0.3850
19836TIP3    H180999   3.879   6.622  12.321  0.2575 -0.4518  0.3957
19836TIP3    H281000   3.895   6.472  12.312  1.0836 -0.4137  1.0457
19837TIP3   OH281001   2.820   5.243  15.858  0.2245 -0.6264 -0.1387
19837TIP3    H181002   2.809   5.155  15.894 -1.0444 -0.2752  0.3905
19837TIP3    H281003   2.730   5.278  15.852  0.6984  0.6086 -0.3926
19838TIP3   OH281004   0.249   3.212  12.341 -0.0148 -0.4485  0.7796
19838TIP3    H181005   0.320   3.208  12.278  0.4071 -1.6369  1.2965
19838TIP3    H281006   0.281   3.163  12.417 -0.4092  1.1303  2.0225
19839TIP3   OH281007   0.739   1.847   0.806  0.5548  0.1945  0.0010
19839TIP3    H181008   0.688   1.926   0.823  0.1604 -0.0025 -0.2477
19839TIP3    H281009   0.824   1.879   0.777 -0.0986  0.5494 -1.6151
19840TIP3   OH281010   6.199   2.194   1.037 -0.0288 -0.3631  0.6374
19840TIP3    H181011   6.234   2.150   1.115 -0.0088 -0.6589  0.4644
19840TIP3    H281012   6.272   2.196   0.976 -0.8818 -3.1551 -0.6638
19841TIP3   OH281013   1.033   1.490   2.493  0.0955 -0.0885 -0.0496
19841TIP3    H181014   1.075   1.563   2.538 -0.5463 -0.2883  0.8966
19841TIP3    H281015   0.962   1.530   2.443  1.5199  0.2882 -1.8782
19842TIP3   OH281016   4.022   1.379   6.178  0.3918 -0.0511 -0.2644
19842TIP3    H181017   3.950   1.411   6.124 -0.2370  1.5060  1.3967
19842TIP3    H281018   3.997   1.290   6.202 -0.4337  0.0749 -0.6352
19843TIP3   OH281019   5.776   3.124  16.353 -0.4698  0.5297 -0.2733
19843TIP3    H181020   5.684   3.098  16.362 -0.1369 -0.7571 -0.3893
19843TIP3    H281021   5.803   3.087  16.269  0.6321 -0.6685  0.5781
19844TIP3   OH281022   0.380   2.498  11.642  0.6907 -0.2744  0.2436
19844TIP3    H181023   0.365   2.404  11.656  1.3692 -0.2514  1.2216
19844TIP3    H281024   0.296   2.539  11.661  0.2948 -0.7008 -0.5129
19845TIP3   OH281025   4.496   4.901  16.519 -0.4283  0.3033 -0.2693
19845TIP3    H181026   4.472   4.813  16.547  2.6702 -0.4790  0.3312
19845TIP3    H281027   4.536   4.888  16.433  0.1934  1.0833 -0.1059
19846TIP3   OH281028   4.574   3.105   4.602 -0.2905  0.1236 -0.2481
19846TIP3    H181029   4.609   3.086   4.689 -0.7874 -0.1999 -0.1106
19846TIP3    H281030   4.567   3.201   4.599  1.3416  0.2594 -0.5846
19847TIP3   OH281031   1.488   5.363  15.670  0.0050  0.2600  0.0550
19847TIP3    H181032   1.490   5.302  15.597  0.1999  1.0415 -0.6166
19847TIP3    H281033   1.399   5.357  15.705  0.2172 -0.8705  0.4138
19848TIP3   OH281034   6.295   6.503   1.338 -0.2164 -0.3456  0.8384
19848TIP3    H181035   6.212   6.454   1.337  0.0562 -0.8172 -0.1135
19848TIP3    H281036   6.273   6.586   1.381 -0.7864 -1.1171  2.1152
19849TIP3   OH281037   1.518   5.249  15.340  0.0527  0.1634 -0.5042
19849TIP3    H181038   1.525   5.251  15.245  1.7828 -0.9946 -0.4649
19849TIP3    H281039   1.608   5.236  15.370 -0.5865 -0.6275  1.2344
19850TIP3   OH281040   3.431   4.608  13.819 -0.4816 -0.0003 -0.0963
19850TIP3    H181041   3.406   4.647  13.903 -1.2270 -4.0572  1.7879
19850TIP3    H281042   3.526   4.592  13.828  0.0309  2.0525 -1.2635
19851TIP3   OH281043   0.460   3.904   4.409 -0.0507 -0.6903  0.5575
19851TIP3    H181044   0.450   3.895   4.503  0.2828 -1.5079  0.5242
19851TIP3    H281045   0.506   3.987   4.397 -0.7900 -0.1984  1.0629
19852TIP3   OH281046   0.531   3.135  11.267  0.0993  0.3139 -0.0844
19852TIP3    H181047   0.479   3.171  11.340  3.0468  2.6979  1.0648
19852TIP3    H281048   0.532   3.206  11.202  0.2141 -0.5167 -1.0035
19853TIP3   OH281049   2.227   5.870   2.105  0.0055 -0.0323 -0.2360
19853TIP3    H181050   2.204   5.891   2.196  0.1106  0.0812 -0.2354
19853TIP3    H281051   2.213   5.775   2.098  0.4648 -0.1212  0.0350
19854TIP3   OH281052   5.633   1.622   4.329 -0.6071  0.3882 -0.1303
19854TIP3    H181053   5.571   1.621   4.402 -2.8234 -1.7400 -1.8599
19854TIP3    H281054   5.580   1.599   4.253  2.0984 -0.2320 -1.9616
19855TIP3   OH281055   4.927   6.425  14.045  0.0208  0.2865  0.0918
19855TIP3    H181056   5.013   6.395  14.073  0.8799  1.2077 -1.4191
19855TIP3    H281057   4.889   6.351  13.998 -0.1229 -0.1972  0.9541
19856TIP3   OH281058   4.153   0.176   1.313  0.1572 -0.2573 -0.1017
19856TIP3    H181059   4.187   0.265   1.311  2.1334 -0.9510  0.3967
19856TIP3    H281060   4.180   0.142   1.399 -2.1593 -0.7667  0.4863
19857TIP3   OH281061   3.551   0.991   5.890 -0.2757  0.2592 -0.2147
19857TIP3    H181062   3.578   1.082   5.902  0.5638  0.0087 -0.1315
19857TIP3    H281063   3.597   0.943   5.959  0.3903 -0.4137 -1.1019
19858TIP3   OH281064   4.954   5.597   5.257 -0.5261  0.3182 -0.3418
19858TIP3    H181065   4.867   5.590   5.217 -0.2568 -0.2519 -0.8489
19858TIP3    H281066   4.968   5.691   5.266 -0.6685  0.4656 -1.4568
19859TIP3   OH281067   0.248   2.231   2.590  0.0006 -0.4576 -0.4910
19859TIP3    H181068   0.154   2.219   2.576 -0.0356 -0.4220 -0.2735
19859TIP3    H281069   0.285   2.225   2.502 -0.2779  0.1517 -0.6587
19860TIP3   OH281070   1.142   5.960  15.632  0.3067  0.2379 -0.0363
19860TIP3    H181071   1.232   5.929  15.625 -0.1748 -1.5713  1.0724
19860TIP3    H281072   1.109   5.920  15.713 -1.8566 -0.1642 -1.0374
19861TIP3   OH281073   5.769   6.314   2.976 -0.5801  0.1017  0.3311
19861TIP3    H181074   5.853   6.288   2.938 -0.7463  1.0603 -0.7451
19861TIP3    H281075   5.768   6.409   2.967 -0.7421  0.3594  2.5670
19862TIP3   OH281076   3.801   4.622  17.023  0.3383 -0.0221  0.0505
19862TIP3    H181077   3.710   4.633  17.052  0.7468 -0.3643  1.4990
19862TIP3    H281078   3.801   4.540  16.974 -0.2940  0.4069 -0.6944
19863TIP3   OH281079   4.306   3.844   0.093 -0.1941 -0.0165 -0.1785
19863TIP3    H181080   4.265   3.888   0.168 -0.7548  2.3720 -1.7786
19863TIP3    H281081   4.398   3.869   0.098 -0.8036  3.0313 -2.0514
19864TIP3   OH281082   5.611   1.665   6.493  0.4091 -0.3749  0.2386
19864TIP3    H181083   5.599   1.590   6.552  0.3509 -0.4971  0.0719
19864TIP3    H281084   5.656   1.629   6.417 -0.8581 -0.5463 -0.4660
19865TIP3   OH281085   4.231   3.150   4.114  0.3584  0.4938 -0.1291
19865TIP3    H181086   4.250   3.070   4.162 -1.4678 -0.5780 -1.0549
19865TIP3    H281087   4.136   3.155   4.112  0.4154  2.1038 -1.0716
19866TIP3   OH281088   3.809   3.741  14.117 -0.2730 -0.2503  0.8498
19866TIP3    H181089   3.746   3.732  14.189 -2.2806 -0.2834 -0.8150
19866TIP3    H281090   3.820   3.652  14.084  0.4122 -0.1942  0.9180
19867TIP3   OH281091   4.842   1.164   6.149  0.0225 -0.3200 -0.7171
19867TIP3    H181092   4.807   1.075   6.141 -2.3525  0.4924 -0.1545
19867TIP3    H281093   4.937   1.152   6.149 -0.2183 -2.9197  0.0847
19868TIP3   OH281094   5.979   0.176  11.693  0.0013  0.3433 -0.1607
19868TIP3    H181095   5.905   0.128  11.654  0.2917  1.2174 -1.8893
19868TIP3    H281096   5.963   0.172  11.787 -1.3137 -0.9691 -0.3973
19869TIP3   OH281097   3.269   6.686   4.598  0.2887  0.6070 -0.0645
19869TIP3    H181098   3.183   6.695   4.557  0.5373 -1.7303 -1.2325
19869TIP3    H281099   3.331   6.704   4.527  0.7606  0.3495  0.2786
19870TIP3   OH281100   2.240   3.462  12.307  0.2591  0.2715  0.1769
19870TIP3    H181101   2.249   3.415  12.390 -0.9272  1.2233  0.8723
19870TIP3    H281102   2.239   3.554  12.332  0.5252  0.5964 -0.9653
19871TIP3   OH281103   1.216   2.586  13.191 -0.0234  0.6619  0.6702
19871TIP3    H181104   1.138   2.531  13.192  1.1107 -1.0912 -0.9603
19871TIP3    H281105   1.266   2.558  13.268 -0.0397  0.2553  0.5379
19872TIP3   OH281106   2.858   0.908   5.974 -0.7017  0.1645 -0.0452
19872TIP3    H181107   2.927   0.914   5.908  1.2906  0.4640  1.9901
19872TIP3    H281108   2.840   0.999   5.998  0.4199 -0.0295  1.6220
19873TIP3   OH281109   3.487   3.228   4.323 -0.1120  0.3026 -0.5048
19873TIP3    H181110   3.515   3.234   4.414  0.0033 -1.0875 -0.4277
19873TIP3    H281111   3.486   3.134   4.304  2.0569  0.6099 -2.6012
19874TIP3   OH281112   0.414   6.005   2.176  0.6060 -0.2413 -0.0700
19874TIP3    H181113   0.432   5.911   2.168 -1.1062 -0.5542 -0.7525
19874TIP3    H281114   0.497   6.047   2.153  1.5559 -1.5770  0.7776
19875TIP3   OH281115   0.173   2.027  14.353 -0.1611  0.2398 -0.3583
19875TIP3    H181116   0.084   2.000  14.373  0.2997 -0.3073  1.0746
19875TIP3    H281117   0.177   2.029  14.257 -1.7926  0.6251 -0.4481
19876TIP3   OH281118   2.562   3.676   4.116  0.5173  0.4720 -0.0495
19876TIP3    H181119   2.618   3.679   4.193 -0.3553 -0.3400  0.6360
19876TIP3    H281120   2.553   3.583   4.095  2.2186  0.7190 -2.2659
19877TIP3   OH281121   6.640   0.660  11.794 -0.6553 -0.3427  0.0562
19877TIP3    H181122   6.721   0.637  11.748 -0.0454 -1.8322  1.7373
19877TIP3    H281123   6.571   0.650  11.728  0.4690  0.7883 -1.3622
19878TIP3   OH281124   6.242   2.806   5.323  0.2112 -0.4187 -0.6651
19878TIP3    H181125   6.198   2.891   5.331  0.8015 -0.2246  0.8696
19878TIP3    H281126   6.203   2.766   5.246 -2.0043  0.1355  0.0971
19879TIP3   OH281127   2.478   5.897   1.715 -0.3334 -0.1455 -0.1248
19879TIP3    H181128   2.562   5.938   1.693 -0.7200 -0.5753 -2.7159
19879TIP3    H281129   2.501   5.823   1.771  0.7271  1.1728  1.3029
19880TIP3   OH281130   5.527   0.132   5.162  0.1894 -0.2424  0.4015
19880TIP3    H181131   5.562   0.056   5.116  2.0293 -0.2421  1.6920
19880TIP3    H281132   5.574   0.207   5.125 -0.8132  0.1760 -0.0842
19881TIP3   OH281133   1.729   4.609   5.227 -0.0488  0.3093  0.1876
19881TIP3    H181134   1.694   4.696   5.211  1.5389  1.0232  0.3916
19881TIP3    H281135   1.741   4.572   5.140  2.3110  1.5945 -0.1023
19882TIP3   OH281136   5.697   6.291   4.872 -0.5374  0.4429 -0.3518
19882TIP3    H181137   5.743   6.208   4.885  0.3139  1.0835  0.8320
19882TIP3    H281138   5.617   6.266   4.826 -0.4407 -1.0760  0.2378
19883TIP3   OH281139   3.575   1.963   3.037  0.2754  0.2810 -0.7231
19883TIP3    H181140   3.501   1.961   3.098  1.8474  1.2077  1.3292
19883TIP3    H281141   3.537   1.993   2.954 -1.9963 -1.3202 -0.3605
19884TIP3   OH281142   5.209   5.626  13.320  0.3434  0.0494  0.1808
19884TIP3    H181143   5.271   5.564  13.358  0.4504  0.9772  1.6068
19884TIP3    H281144   5.216   5.614  13.226  0.2354 -2.2112  0.4202
19885TIP3   OH281145   0.903   6.207  13.099  0.4292  0.1701 -0.0403
19885TIP3    H181146   0.826   6.173  13.144  0.1764  1.6531  0.7107
19885TIP3    H281147   0.952   6.129  13.072 -0.4490 -0.7686  0.9954
19886TIP3   OH281148   2.384   5.779  13.524 -0.3792  0.4219 -0.1734
19886TIP3    H181149   2.316   5.804  13.463  0.3076  2.6752 -0.1074
19886TIP3    H281150   2.410   5.861  13.567  0.8957 -0.6864  1.3282
19887TIP3   OH281151   2.865   5.178  16.888  0.3912  0.2781 -0.0924
19887TIP3    H181152   2.927   5.233  16.840 -0.9033  1.8619 -0.0061
19887TIP3    H281153   2.867   5.094  16.842 -0.5835  1.6405 -2.7933
19888TIP3   OH281154   5.235   0.959   1.787 -0.3302  0.1839  1.1711
19888TIP3    H181155   5.264   0.978   1.698  1.1419  0.8577  1.7647
19888TIP3    H281156   5.305   0.905   1.825 -1.8228 -1.7610  1.3463
19889TIP3   OH281157   5.193   1.511  15.884  0.1876  0.8011 -0.0920
19889TIP3    H181158   5.102   1.483  15.880  0.0632  1.1947 -0.1131
19889TIP3    H281159   5.199   1.558  15.968  0.4766  0.4230  0.1046
19890TIP3   OH281160   5.824   2.064  12.504  0.1938  0.0740 -0.2022
19890TIP3    H181161   5.919   2.058  12.492  0.3067  0.1361  0.5635
19890TIP3    H281162   5.787   2.041  12.419  0.8690 -1.0745 -0.2102
19891TIP3   OH281163   0.191   5.035   5.301 -0.3711 -0.1540 -0.0324
19891TIP3    H181164   0.212   5.125   5.327  1.0098 -0.5905  0.4076
19891TIP3    H281165   0.172   4.990   5.383 -0.3586 -0.4538 -0.1911
19892TIP3   OH281166   2.220   1.386   2.738 -0.2063  0.0427  0.0841
19892TIP3    H181167   2.169   1.464   2.762 -1.6304 -0.7264 -0.3009
19892TIP3    H281168   2.208   1.379   2.643  0.1167 -0.4989  0.0833
19893TIP3   OH281169   1.867   1.870  10.575 -0.2899 -0.4939 -0.1493
19893TIP3    H181170   1.852   1.849  10.483 -2.0368  2.0712 -0.5499
19893TIP3    H281171   1.808   1.943  10.593 -0.8203 -1.5938  3.3384
19894TIP3   OH281172   6.652   4.994   0.484 -0.5121 -0.1491 -0.1295
19894TIP3    H181173   6.744   4.968   0.478 -0.6467 -0.9634  1.0806
19894TIP3    H281174   6.654   5.083   0.521 -0.1737  0.4914 -1.6015
19895TIP3   OH281175   4.634   2.627   3.249  0.1750 -0.7582 -0.0488
19895TIP3    H181176   4.585   2.639   3.168  0.8134  0.6639 -0.2409
19895TIP3    H281177   4.726   2.631   3.223  0.4033  1.3943  0.9375
19896TIP3   OH281178   3.261   4.176  13.633  0.3730  0.0928  0.0926
19896TIP3    H181179   3.250   4.100  13.691  0.7083 -1.9810 -2.4114
19896TIP3    H281180   3.354   4.175  13.610  0.4110  1.3948  0.1056
19897TIP3   OH281181   2.108   2.924  16.576 -1.0250 -0.1050  0.6926
19897TIP3    H181182   2.165   2.977  16.632 -2.0825  0.2000  1.4872
19897TIP3    H281183   2.019   2.953  16.596 -1.5047 -0.8379 -0.2683
19898TIP3   OH281184   4.172   4.763  14.009 -0.4795  0.6223 -0.6402
19898TIP3    H181185   4.188   4.669  14.009 -0.4930  0.5895 -2.3228
19898TIP3    H281186   4.218   4.796  13.932  0.7767  2.2590  0.7110
19899TIP3   OH281187   5.401   5.011  14.014  0.5623  0.2589 -0.2148
19899TIP3    H181188   5.383   5.040  13.924  0.7225 -0.9702 -0.6616
19899TIP3    H281189   5.497   5.005  14.018  0.5129 -1.4028 -0.5644
19900TIP3   OH281190   4.379   2.327   4.025  0.3009  0.8621  0.1626
19900TIP3    H181191   4.474   2.331   4.019  0.4084  0.3692  1.3175
19900TIP3    H281192   4.359   2.366   4.110 -0.4789  0.2868  0.2482
19901TIP3   OH281193   3.495   2.309   3.403 -0.4116 -1.1333  0.4729
19901TIP3    H181194   3.560   2.279   3.338  1.8048  0.0630  1.9991
19901TIP3    H281195   3.499   2.404   3.398 -0.5399 -1.0224  1.9874
19902TIP3   OH281196   1.429   1.417  16.458  0.6113  0.4554  0.2982
19902TIP3    H181197   1.339   1.448  16.464  0.6324  0.5693  0.0608
19902TIP3    H281198   1.483   1.495  16.474  0.6665  0.7239 -1.0346
19903TIP3   OH281199   2.932   6.669  10.949  0.2540 -0.1721  0.1336
19903TIP3    H181200   3.025   6.656  10.930  0.6633  1.8000  0.5697
19903TIP3    H281201   2.924   6.763  10.966 -1.6584 -0.4494  1.0211
19904TIP3   OH281202   0.651   5.522  13.090 -0.3633  0.1750  0.4000
19904TIP3    H181203   0.596   5.566  13.154 -0.9723  1.6674 -1.0955
19904TIP3    H281204   0.741   5.537  13.120 -0.6287  1.2060  0.7005
19905TIP3   OH281205   0.285   2.662   2.017 -0.2369 -0.2281 -0.4502
19905TIP3    H181206   0.310   2.748   1.985 -0.4661 -0.7476 -2.1244
19905TIP3    H281207   0.339   2.601   1.966 -1.9267 -1.1660 -1.2039
19906TIP3   OH281208   2.945   0.653   0.433  0.3792 -0.0913  0.1455
19906TIP3    H181209   3.028   0.646   0.479  0.4576 -0.7729 -0.0850
19906TIP3    H281210   2.885   0.596   0.482  0.6511 -1.4025 -0.9698
19907TIP3   OH281211   2.309   5.045   0.579  0.7431 -0.3494 -0.2384
19907TIP3    H181212   2.245   4.999   0.525  1.5135 -1.9141  0.1206
19907TIP3    H281213   2.389   5.043   0.527  1.6839 -2.5079  1.1796
19908TIP3   OH281214   5.841   0.623  15.788 -0.0037  0.6401  0.5451
19908TIP3    H181215   5.821   0.622  15.695  0.1908  2.7437  0.4259
19908TIP3    H281216   5.900   0.549  15.801 -2.3506 -1.5356 -0.3772
19909TIP3   OH281217   1.431   3.735  15.963 -0.2271  0.3449 -0.2228
19909TIP3    H181218   1.409   3.689  15.882  2.6547  0.2567 -1.0747
19909TIP3    H281219   1.446   3.825  15.936  1.3910  0.1852  0.0405
19910TIP3   OH281220   1.305   2.623  16.862  0.0150 -0.4113 -0.0900
19910TIP3    H181221   1.291   2.560  16.932 -4.0267 -0.7739 -0.9648
19910TIP3    H281222   1.234   2.605  16.800  2.0272  1.3867 -3.1742
19911TIP3   OH281223   2.369   6.219  15.596 -0.2736  0.2836  0.1371
19911TIP3    H181224   2.313   6.264  15.659  0.2989  0.3822  0.5882
19911TIP3    H281225   2.332   6.242  15.511 -1.3599 -0.2572  0.4405
19912TIP3   OH281226   5.915   2.985   0.217 -0.7844  0.1822 -0.0475
19912TIP3    H181227   5.888   2.913   0.159  0.1975  0.9545 -1.5391
19912TIP3    H281228   5.855   3.056   0.197 -0.9505  0.1999  0.4980
19913TIP3   OH281229   3.402   0.672  12.648  0.3208  0.2721 -0.4714
19913TIP3    H181230   3.326   0.628  12.688  0.9984 -2.0481 -1.5458
19913TIP3    H281231   3.371   0.761  12.630 -1.2819  0.1772  1.4501
19914TIP3   OH281232   4.443   2.166  14.284  0.2201  0.6342  0.1080
19914TIP3    H181233   4.419   2.127  14.368 -1.8709  0.0478 -0.6959
19914TIP3    H281234   4.397   2.250  14.283 -0.7609  0.0923 -0.9435
19915TIP3   OH281235   5.122   5.994   3.686 -0.0595  0.8340  0.2345
19915TIP3    H181236   5.176   5.919   3.708 -0.8332 -0.1708 -1.1458
19915TIP3    H281237   5.163   6.067   3.733  3.1755  0.3770 -1.5918
19916TIP3   OH281238   3.833   2.529   3.867  0.7044 -0.0361 -0.0660
19916TIP3    H181239   3.784   2.447   3.867  1.1758 -0.3173  0.6875
19916TIP3    H281240   3.838   2.554   3.959  0.1963  1.0652 -0.3154
19917TIP3   OH281241   4.864   0.039  12.586 -0.7636  0.1166 -0.2346
19917TIP3    H181242   4.820  -0.023  12.645 -1.5211  1.1593  0.3402
19917TIP3    H281243   4.836   0.013  12.498 -0.6557 -0.6697 -0.0400
19918TIP3   OH281244   3.518   6.219  13.573  0.2397  0.2016 -0.2423
19918TIP3    H181245   3.558   6.294  13.528  0.1950  1.5080  1.7660
19918TIP3    H281246   3.443   6.256  13.619 -1.9834 -1.7738 -1.9904
19919TIP3   OH281247   1.359   3.412   5.204 -0.1816  0.4159  0.2357
19919TIP3    H181248   1.290   3.419   5.138  0.7114 -3.1184 -1.3100
19919TIP3    H281249   1.406   3.496   5.198 -2.9139  2.0532 -0.1832
19920TIP3   OH281250   3.723   0.390  10.893  0.2310 -0.0952  0.1255
19920TIP3    H181251   3.696   0.359  10.980  0.6466 -0.4529  0.1247
19920TIP3    H281252   3.642   0.425  10.855 -0.8670 -3.3376 -0.8501
19921TIP3   OH281253   6.409   5.245  13.125  0.1829 -0.4135 -0.4372
19921TIP3    H181254   6.461   5.194  13.187 -0.5459  0.9346  1.3947
19921TIP3    H281255   6.395   5.329  13.169 -0.4675  0.5835 -2.4244
19922TIP3   OH281256   0.765   6.434   5.280  0.1708 -0.1356  0.1235
19922TIP3    H181257   0.800   6.374   5.214  0.8573 -0.9047  1.1439
19922TIP3    H281258   0.671   6.421   5.277  0.2659 -0.8604 -0.0769
19923TIP3   OH281259   2.071   0.799   3.387 -0.0686 -0.7890  0.0230
19923TIP3    H181260   2.062   0.815   3.481  0.7060  0.1607 -0.0447
19923TIP3    H281261   1.982   0.808   3.353 -0.1276  0.4437  0.4544
19924TIP3   OH281262   2.882   5.916   4.531 -0.0240  0.2134  0.7136
19924TIP3    H181263   2.945   5.983   4.503  0.2458 -0.7264 -1.0711
19924TIP3    H281264   2.851   5.947   4.616  3.1543  0.5145  1.9109
19925TIP3   OH281265   5.184   1.934  16.548  0.0347  0.0526 -0.2106
19925TIP3    H181266   5.247   1.943  16.477  1.0369  1.8440  0.8204
19925TIP3    H281267   5.101   1.914  16.505  1.3403 -3.0414 -1.5739
19926TIP3   OH281268   5.039   0.338   4.478 -0.0561  0.1934 -0.4234
19926TIP3    H181269   5.092   0.410   4.444 -1.2802  1.2803 -0.1170
19926TIP3    H281270   5.007   0.369   4.563 -2.4157  0.2331 -1.2551
19927TIP3   OH281271   1.759   3.709  15.070  0.5194 -0.4901 -0.4729
19927TIP3    H181272   1.829   3.645  15.055  0.6084 -0.2301 -1.2231
19927TIP3    H281273   1.712   3.713  14.987 -1.0141 -1.3859  0.3057
19928TIP3   OH281274   6.751   1.260   0.340  0.1816 -0.5410 -0.5634
19928TIP3    H181275   6.678   1.322   0.347  1.6384  1.1198  1.2087
19928TIP3    H281276   6.765   1.230   0.430  0.8582 -1.8413 -1.0788
19929TIP3   OH281277   1.818   1.668  15.348 -0.1679 -0.0738  0.4590
19929TIP3    H181278   1.875   1.741  15.375  2.1900 -0.9915 -1.6037
19929TIP3    H281279   1.730   1.705  15.351  0.8285  2.5610  0.4692
19930TIP3   OH281280   2.692   3.794  11.589  0.4300 -0.5343  0.2369
19930TIP3    H181281   2.673   3.884  11.613 -0.7000 -0.7581  0.2384
19930TIP3    H281282   2.662   3.786  11.498  0.5943 -0.8803  0.2087
19931TIP3   OH281283   4.048   0.861  13.923  0.5250 -0.3615  0.1966
19931TIP3    H181284   4.105   0.920  13.874  1.5683 -0.5841  1.0983
19931TIP3    H281285   3.983   0.833  13.860  1.3180  0.0288 -0.8297
19932TIP3   OH281286   1.954   4.693  15.941  0.2104  0.0304  0.2429
19932TIP3    H181287   2.043   4.717  15.916 -0.5046  1.3121 -1.2618
19932TIP3    H281288   1.909   4.777  15.953 -1.0805 -0.5767 -0.1145
19933TIP3   OH281289   2.668   6.070  13.705 -0.3887  0.0327 -0.4088
19933TIP3    H181290   2.729   5.999  13.723 -0.2936  0.5363  1.5276
19933TIP3    H281291   2.704   6.146  13.752 -2.1998  0.4643  0.3881
19934TIP3   OH281292   1.549   0.604   5.765 -0.2655  0.1476 -0.2119
19934TIP3    H181293   1.464   0.585   5.725 -0.6843  1.7119 -0.1298
19934TIP3    H281294   1.528   0.633   5.853  0.5219 -1.2855  0.4951
19935TIP3   OH281295   4.328   1.860  13.788  0.0195  0.4071  0.0540
19935TIP3    H181296   4.283   1.821  13.863 -0.4484 -2.7632 -1.7240
19935TIP3    H281297   4.261   1.913  13.744 -0.3725  0.3005  0.5168
19936TIP3   OH281298   6.434   2.422   3.402 -0.5632 -0.1188 -0.4407
19936TIP3    H181299   6.357   2.418   3.345  0.0738  1.9962 -1.5445
19936TIP3    H281300   6.399   2.402   3.489 -2.4361  1.0169 -0.8676
19937TIP3   OH281301   4.784   5.023   1.548  0.2179  0.2766 -0.8331
19937TIP3    H181302   4.853   5.046   1.611  0.0766 -0.5697 -0.3574
19937TIP3    H281303   4.716   4.982   1.600  0.2049 -0.6708 -1.5611
19938TIP3   OH281304   4.248   3.534   2.624  0.7760 -0.0746 -0.7725
19938TIP3    H181305   4.255   3.556   2.717  0.9462 -1.1775 -0.5110
19938TIP3    H281306   4.292   3.449   2.616  1.0100  0.1324 -1.9133
19939TIP3   OH281307   6.661   0.385   3.910 -0.1860  0.5701  0.2545
19939TIP3    H181308   6.663   0.299   3.954 -0.2539  0.7229  0.5615
19939TIP3    H281309   6.648   0.364   3.818 -0.4238  0.2591  0.3549
19940TIP3   OH281310   3.061   3.612  15.961 -0.2628 -0.1099 -0.4367
19940TIP3    H181311   2.982   3.595  16.011 -0.5426 -0.6860 -1.0474
19940TIP3    H281312   3.124   3.643  16.025 -0.3962 -1.4845  0.4102
19941TIP3   OH281313   6.439   6.144  14.890 -0.2907  0.2628 -0.3748
19941TIP3    H181314   6.423   6.073  14.952  1.0449 -1.0170 -1.4051
19941TIP3    H281315   6.522   6.183  14.918  0.4635 -0.5028 -1.4611
19942TIP3   OH281316   5.224   0.727  13.281  0.1696 -0.4602  0.0412
19942TIP3    H181317   5.172   0.783  13.223 -1.6120 -1.6792  0.3635
19942TIP3    H281318   5.182   0.736  13.367  1.3628 -0.4422  0.6431
19943TIP3   OH281319   3.626   4.153  14.173 -0.3056  0.5593  0.4632
19943TIP3    H181320   3.598   4.064  14.194  0.0375  0.1711 -0.6191
19943TIP3    H281321   3.552   4.190  14.125 -0.7557  1.1453  1.5734
19944TIP3   OH281322   6.582   1.223   2.404  0.2377 -0.3796 -0.1064
19944TIP3    H181323   6.623   1.165   2.339  0.9576 -2.1482  1.8070
19944TIP3    H281324   6.498   1.181   2.423 -0.1300  0.3270 -0.1601
19945TIP3   OH281325   3.261   2.242   3.167  0.4253 -0.5058 -0.3667
19945TIP3    H181326   3.300   2.327   3.150  0.7678 -0.4593  0.5846
19945TIP3    H281327   3.179   2.261   3.212  1.7844 -0.6762  2.4074
19946TIP3   OH281328   5.546   3.725   0.328  0.0192  0.1056 -0.3235
19946TIP3    H181329   5.615   3.660   0.321 -0.1661 -0.1193 -0.0276
19946TIP3    H281330   5.486   3.704   0.256  0.8722  1.0394 -1.3534
19947TIP3   OH281331   1.368   2.622   2.706 -0.6542  0.4770 -0.1886
19947TIP3    H181332   1.435   2.554   2.711  0.0862  1.2673  2.4448
19947TIP3    H281333   1.387   2.668   2.624 -0.2697 -1.5294 -1.2766
19948TIP3   OH281334   5.893   4.553  11.376 -0.3890 -0.3069  0.1081
19948TIP3    H181335   5.986   4.531  11.384 -0.6258 -1.3388  0.2106
19948TIP3    H281336   5.864   4.505  11.298 -0.4579  1.3831 -0.9684
19949TIP3   OH281337   4.780   2.730  15.933  0.2640  0.1206 -0.6187
19949TIP3    H181338   4.729   2.653  15.959 -0.2951  0.2869 -1.2047
19949TIP3    H281339   4.740   2.802  15.980  0.7790  0.0646 -0.0828
19950TIP3   OH281340   3.035   6.658   1.177  0.2677  0.1784  0.2167
19950TIP3    H181341   3.033   6.630   1.085  0.1267 -1.2012  0.6141
19950TIP3    H281342   3.122   6.696   1.188  0.2620  0.4198 -0.4980
19951TIP3   OH281343   5.127   3.303  12.218 -0.3332  0.9983  0.2947
19951TIP3    H181344   5.035   3.326  12.205 -0.6911 -0.9921 -1.0469
19951TIP3    H281345   5.130   3.208  12.214  1.8253  1.0096  0.0178
19952TIP3   OH281346   1.420   1.743  14.676  0.1916  0.5153  0.2410
19952TIP3    H181347   1.514   1.727  14.677  0.0395 -0.3995  0.4024
19952TIP3    H281348   1.403   1.779  14.588  0.6088  0.1566  0.0086
19953TIP3   OH281349   5.193   0.190   0.232 -0.4775  0.5823  0.5612
19953TIP3    H181350   5.262   0.125   0.238 -0.4422  0.5344 -0.2878
19953TIP3    H281351   5.112   0.141   0.250 -0.7093 -0.2234 -2.2831
19954TIP3   OH281352   5.835   2.420  12.873 -0.2812 -0.2135 -0.0776
19954TIP3    H181353   5.821   2.375  12.790  0.9058  0.9859 -0.9621
19954TIP3    H281354   5.921   2.391  12.902 -0.8688 -0.9696  0.9989
19955TIP3   OH281355   4.309   2.459  11.257 -0.0248 -0.3002  0.5689
19955TIP3    H181356   4.245   2.518  11.296  0.5509 -0.0309  1.1226
19955TIP3    H281357   4.393   2.489  11.291  0.5393  0.1762 -1.1780
19956TIP3   OH281358   0.333   3.268   0.622  0.5666  0.0604  0.4971
19956TIP3    H181359   0.238   3.258   0.626  0.5614 -0.8380 -0.9496
19956TIP3    H281360   0.364   3.245   0.709 -0.5662  0.8524  1.1322
19957TIP3   OH281361   4.795   3.061   0.283  0.1649 -0.3663  0.2836
19957TIP3    H181362   4.770   3.153   0.288  0.1998 -0.2818 -0.8624
19957TIP3    H281363   4.854   3.048   0.358  1.5869  1.0041 -0.5474
19958TIP3   OH281364   3.122   2.832   5.131 -0.4766  0.0546 -0.3808
19958TIP3    H181365   3.168   2.891   5.191  1.8465 -1.6460 -0.3318
19958TIP3    H281366   3.030   2.858   5.137  0.1598  2.2285  1.2193
19959TIP3   OH281367   2.280   6.525   1.689 -0.2179 -0.0416  0.5747
19959TIP3    H181368   2.302   6.586   1.619 -0.6151  1.0138  1.3572
19959TIP3    H281369   2.320   6.562   1.767  0.4827 -1.3728  0.8757
19960TIP3   OH281370   5.638   6.629  11.663 -0.1176  0.0875  0.8439
19960TIP3    H181371   5.559   6.576  11.677 -0.2526 -0.5826 -1.8517
19960TIP3    H281372   5.708   6.580  11.705 -0.5667 -1.2952  0.0472
19961TIP3   OH281373   3.342   3.442   3.253 -0.3444 -0.1366  0.3384
19961TIP3    H181374   3.386   3.527   3.242 -1.2815  0.1287 -1.7272
19961TIP3    H281375   3.328   3.410   3.164 -0.0522 -2.4763  1.0710
19962TIP3   OH281376   0.708   1.720  11.030 -0.2738  0.3641  0.4601
19962TIP3    H181377   0.744   1.807  11.014  0.9409 -0.2699 -0.3683
19962TIP3    H281378   0.641   1.709  10.962  0.5106  0.1319 -0.2848
19963TIP3   OH281379   2.516   2.386  16.240 -0.4983  0.0220  0.1841
19963TIP3    H181380   2.594   2.358  16.288  0.7972 -0.6276 -2.1406
19963TIP3    H281381   2.443   2.370  16.301  0.8768 -2.0797  1.3990
19964TIP3   OH281382   0.310   5.162   3.806 -0.0110  0.0282  0.4713
19964TIP3    H181383   0.275   5.074   3.820 -0.4653 -0.0812 -1.1286
19964TIP3    H281384   0.341   5.161   3.715 -0.0160  1.5231  0.4295
19965TIP3   OH281385   3.586   3.612   1.723 -0.0260 -1.0088 -0.2729
19965TIP3    H181386   3.559   3.521   1.729  0.4248 -1.1307 -0.0563
19965TIP3    H281387   3.680   3.608   1.708  0.4069 -0.5596  2.0726
19966TIP3   OH281388   4.500   0.866   4.584 -0.0806 -0.0186  0.4618
19966TIP3    H181389   4.464   0.930   4.645 -1.4515  0.4549 -0.7627
19966TIP3    H281390   4.558   0.916   4.527 -0.2545 -0.0754  0.2292
19967TIP3   OH281391   1.145   5.438  14.228  0.2228 -0.3241  0.0910
19967TIP3    H181392   1.126   5.376  14.298 -2.1076 -0.2564 -0.4121
19967TIP3    H281393   1.226   5.406  14.189 -0.9279 -3.0915 -0.2035
19968TIP3   OH281394   6.072   0.328   0.398  0.5355 -0.3360  0.0648
19968TIP3    H181395   6.106   0.305   0.485  1.4462 -0.2714 -0.2635
19968TIP3    H281396   6.055   0.244   0.356  1.5120 -0.3928 -0.2316
19969TIP3   OH281397   6.234   1.524  15.049 -0.3920 -0.2780 -0.4145
19969TIP3    H181398   6.166   1.554  14.989  0.8534 -1.1073 -2.3577
19969TIP3    H281399   6.314   1.522  14.995  0.7731 -1.2026  1.2463
19970TIP3   OH281400   6.471   5.236   5.528  0.4083  0.1639  0.2585
19970TIP3    H181401   6.477   5.309   5.590  0.8602 -0.0065  0.4211
19970TIP3    H281402   6.381   5.206   5.534  0.0424  1.1153 -0.2794
19971TIP3   OH281403   4.204   3.624   2.885  0.1359 -0.2077  0.1322
19971TIP3    H181404   4.115   3.660   2.885  0.6868  1.3630  1.9424
19971TIP3    H281405   4.231   3.629   2.977  2.7288  1.0908 -0.6011
19972TIP3   OH281406   1.181   5.169  13.279  0.6135  0.0206  0.7683
19972TIP3    H181407   1.162   5.229  13.351 -2.9739  0.2615 -0.2029
19972TIP3    H281408   1.140   5.086  13.305  1.5431 -0.6864  0.0800
19973TIP3   OH281409   5.976   0.028  13.683  0.9383  0.3697  0.0699
19973TIP3    H181410   5.889   0.040  13.722  0.8529  2.6442 -0.6683
19973TIP3    H281411   6.032   0.090  13.729  1.5485  0.8189 -1.2178
19974TIP3   OH281412   3.342   1.713   5.535  1.2046  0.1677  0.0880
19974TIP3    H181413   3.251   1.741   5.524  1.0399  1.0491  2.9241
19974TIP3    H281414   3.356   1.649   5.465 -1.3839  0.4586 -0.8048
19975TIP3   OH281415   5.017   5.126  12.451 -0.5118  0.3135 -0.2777
19975TIP3    H181416   5.061   5.130  12.366  1.4122 -2.0820  0.4703
19975TIP3    H281417   4.924   5.137  12.431 -0.1131 -0.1162 -2.6935
19976TIP3   OH281418   0.244   1.022   5.392 -0.3647 -0.0281  0.1339
19976TIP3    H181419   0.329   0.991   5.361 -1.9258 -5.5136  0.3908
19976TIP3    H281420   0.200   1.053   5.313  1.0066  0.7405 -0.3620
19977TIP3   OH281421   0.484   0.222   5.820  0.3980 -0.2085 -0.2018
19977TIP3    H181422   0.557   0.177   5.777 -0.4655 -0.1903 -1.7512
19977TIP3    H281423   0.440   0.269   5.749 -0.6402  0.4489  0.8446
19978TIP3   OH281424   1.101   6.810   3.101  0.4098 -0.0733 -0.0945
19978TIP3    H181425   1.143   6.740   3.051 -0.3460 -0.8552  0.3369
19978TIP3    H281426   1.173   6.867   3.127  1.2968 -1.6681  1.0877
19979TIP3   OH281427   4.746   4.630   0.818 -0.4825 -0.1781  0.0023
19979TIP3    H181428   4.765   4.711   0.771  0.1081 -0.5639 -0.4311
19979TIP3    H281429   4.830   4.602   0.854 -0.6455 -0.6980 -0.0055
19980TIP3   OH281430   2.743   6.601  13.088 -0.7591  0.1396 -0.1469
19980TIP3    H181431   2.752   6.507  13.070  0.5151  0.1472  0.3275
19980TIP3    H281432   2.810   6.642  13.033  1.8689  0.3298  2.8377
19981TIP3   OH281433   2.586   0.018   3.418 -0.0730  0.3080 -0.0425
19981TIP3    H181434   2.517   0.084   3.417 -1.0775 -0.7084  0.1246
19981TIP3    H281435   2.660   0.062   3.460 -0.7008  1.3308  0.0346
19982TIP3   OH281436   6.005   3.844  14.193 -0.5222 -0.1335  0.0412
19982TIP3    H181437   6.097   3.858  14.171 -0.3484 -1.9022 -0.5354
19982TIP3    H281438   5.957   3.883  14.121 -0.1275 -1.0853 -0.7626
19983TIP3   OH281439   1.772   3.688  11.710  0.0506 -0.6793 -0.0438
19983TIP3    H181440   1.837   3.621  11.731  0.2495 -0.0056  1.6415
19983TIP3    H281441   1.688   3.644  11.719  0.2100 -1.1317 -0.6589
19984TIP3   OH281442   0.078   4.590   5.246 -0.0855  0.0198 -0.0470
19984TIP3    H181443   0.101   4.557   5.159 -0.6692 -0.5784  0.0184
19984TIP3    H281444   0.003   4.647   5.231 -0.2195 -0.1254  0.0699
19985TIP3   OH281445   5.949   2.075   1.072 -0.3489  0.6575 -0.0731
19985TIP3    H181446   5.884   2.127   1.119 -2.7543 -0.4124 -1.9833
19985TIP3    H281447   6.014   2.139   1.043 -1.1776  1.9880  0.8916
19986TIP3   OH281448   4.397   2.890  16.481 -0.0189  0.0914  0.3566
19986TIP3    H181449   4.428   2.951  16.547 -0.1371  0.5078  0.0308
19986TIP3    H281450   4.329   2.839  16.525 -1.1994  1.4052  0.1341
19987TIP3   OH281451   2.332   1.057  16.483 -0.0856  0.3091 -0.0934
19987TIP3    H181452   2.349   1.012  16.566  1.6387 -0.5010 -0.8426
19987TIP3    H281453   2.285   0.993  16.430 -0.9124  0.7195  0.1268
19988TIP3   OH281454   2.605   5.245  12.525  0.0069 -0.1062 -0.4178
19988TIP3    H181455   2.538   5.267  12.589 -0.1540 -2.8496  0.4873
19988TIP3    H281456   2.560   5.249  12.440 -1.3438 -1.7559  0.1630
19989TIP3   OH281457   0.754   0.016  11.108 -0.7296 -0.0470  0.1973
19989TIP3    H181458   0.671   0.064  11.104 -1.5147 -1.1940  1.7585
19989TIP3    H281459   0.740  -0.061  11.053 -0.1625  0.4620 -0.6937
19990TIP3   OH281460   4.989   2.440  14.055  0.4791 -0.1798 -0.6849
19990TIP3    H181461   4.933   2.362  14.059 -0.2733  0.4196  1.9630
19990TIP3    H281462   4.930   2.510  14.026  0.4865 -0.0693 -0.4346
19991TIP3   OH281463   2.093   3.070   0.252 -0.3553  0.0529 -0.2400
19991TIP3    H181464   2.144   3.062   0.332  0.5698 -1.0037 -0.8942
19991TIP3    H281465   2.036   2.994   0.252  0.7758 -0.8475 -1.3058
19992TIP3   OH281466   0.510   3.279   4.227 -0.4932 -0.3028  0.4067
19992TIP3    H181467   0.493   3.333   4.149 -1.8387 -2.2964 -0.7540
19992TIP3    H281468   0.492   3.338   4.301  2.3392  2.1631 -0.6201
19993TIP3   OH281469   0.223   2.680  15.121  0.2057  0.2333 -0.2607
19993TIP3    H181470   0.130   2.699  15.133  0.2679  0.7369 -0.5688
19993TIP3    H281471   0.259   2.759  15.080  0.9899  0.5014  0.8853
19994TIP3   OH281472   3.983   5.794  12.733 -0.5877 -0.5452  0.7317
19994TIP3    H181473   3.915   5.736  12.699 -0.8467 -0.8998  1.8180
19994TIP3    H281474   3.936   5.872  12.762 -0.2054  0.3930 -1.0322
19995TIP3   OH281475   6.229   2.937   0.236 -0.0741  0.5435  0.5964
19995TIP3    H181476   6.246   2.872   0.304  2.1465  0.9839  0.5267
19995TIP3    H281477   6.134   2.931   0.220 -0.4371 -0.4713  2.7747
19996TIP3   OH281478   2.521   6.673   1.893  0.1244  0.3651 -0.6920
19996TIP3    H181479   2.546   6.582   1.877 -0.1863  0.4764 -1.9893
19996TIP3    H281480   2.604   6.720   1.900  0.3356 -0.2336  1.7181
19997TIP3   OH281481   1.413   6.208   1.185  0.1686  0.2359  0.0984
19997TIP3    H181482   1.372   6.162   1.111  1.8591  0.5358 -1.0986
19997TIP3    H281483   1.354   6.281   1.204 -2.3045 -2.0264  1.7105
19998TIP3   OH281484   1.410   5.462  14.418 -0.3045  0.3963  0.4937
19998TIP3    H181485   1.436   5.404  14.346 -1.3204 -3.0573  2.6633
19998TIP3    H281486   1.492   5.498  14.451  0.8288 -2.4974  1.0779
19999TIP3   OH281487   0.494   5.491  16.594 -0.5929 -0.0457 -0.1998
19999TIP3    H181488   0.514   5.405  16.556 -2.5736 -0.9505  0.6665
19999TIP3    H281489   0.460   5.472  16.681 -0.8255  1.6415  0.1126
20000TIP3   OH281490   0.689   3.054   4.585  0.0755  0.3036  0.5285
20000TIP3    H181491   0.650   3.039   4.499 -1.1065  0.2188  1.0485
20000TIP3    H281492   0.780   3.075   4.567  0.1095 -0.7279 -0.6755
20001TIP3   OH281493   6.165   0.197   2.044 -0.3774 -0.6630 -0.6587
20001TIP3    H181494   6.238   0.242   2.001  1.1687 -1.6428  0.8375
20001TIP3    H281495   6.199   0.110   2.064 -1.8951 -1.0753  0.2951
20002TIP3   OH281496   5.882   1.218   0.332 -0.8204  0.3214 -0.1504
20002TIP3    H181497   5.841   1.210   0.246 -2.0225  0.4031  0.3990
20002TIP3    H281498   5.965   1.263   0.315 -0.6348 -0.4543 -1.3742
20003TIP3   OH281499   2.546   6.719   0.930 -0.7415 -0.5423  0.4062
20003TIP3    H181500   2.559   6.704   1.023 -2.1735 -0.0050  0.7189
20003TIP3    H281501   2.497   6.801   0.925  2.1576  1.2894 -0.9897
20004TIP3   OH281502   4.224   3.683   1.863  0.2173 -0.3228  0.1617
20004TIP3    H181503   4.136   3.715   1.844 -0.3445 -1.8475  0.0523
20004TIP3    H281504   4.264   3.670   1.777 -0.3024 -1.8336  0.1232
20005TIP3   OH281505   1.784   1.392  15.391 -0.0669 -0.0507  0.1682
20005TIP3    H181506   1.704   1.375  15.342  1.0065 -0.2512 -1.6018
20005TIP3    H281507   1.781   1.486  15.411 -0.1442  0.2229 -1.0592
20006TIP3   OH281508   4.096   4.419   3.513  0.1662 -0.4834  0.0765
20006TIP3    H181509   4.190   4.416   3.494 -0.3060 -0.0651 -2.7033
20006TIP3    H281510   4.054   4.427   3.427 -2.4364 -0.6851  1.2359
20007TIP3   OH281511   5.364   4.057   3.693  0.7160 -0.2012 -0.3726
20007TIP3    H181512   5.444   4.010   3.713  1.3415  1.1979  0.5708
20007TIP3    H281513   5.300   4.024   3.756  0.6993 -0.9051 -0.7503
20008TIP3   OH281514   6.854   1.239   0.596  0.3737 -0.4674  0.1493
20008TIP3    H181515   6.799   1.219   0.671 -0.8017  0.0196 -0.5523
20008TIP3    H281516   6.938   1.265   0.634 -0.7217  1.4588  1.3742
20009TIP3   OH281517   4.850   4.566  13.950 -0.0804  0.0472 -0.2890
20009TIP3    H181518   4.767   4.551  13.994 -1.1943  0.0072 -2.3240
20009TIP3    H281519   4.903   4.612  14.015 -1.5486 -0.2387  1.1682
20010TIP3   OH281520   5.296   2.171  16.286  0.1074 -0.1122  0.1802
20010TIP3    H181521   5.339   2.246  16.246  0.6910 -1.0002 -0.9438
20010TIP3    H281522   5.358   2.099  16.273 -0.5967 -0.8674  0.8933
20011TIP3   OH281523   6.111   2.472   6.380  0.7536  0.1350  0.2188
20011TIP3    H181524   6.089   2.543   6.441  1.6913 -0.4784  1.3060
20011TIP3    H281525   6.194   2.438   6.412  0.3467 -1.4336 -0.3072
20012TIP3   OH281526   1.060   2.125  17.021  0.2589  0.1130  0.4416
20012TIP3    H181527   1.108   2.096  16.944  0.2121  0.6706  0.1925
20012TIP3    H281528   1.127   2.143  17.087  0.4503  1.3265 -0.0530
20013TIP3   OH281529   6.420   5.212   2.851 -0.8479 -0.0053  0.5287
20013TIP3    H181530   6.510   5.216   2.882 -0.8775  0.1998  0.5882
20013TIP3    H281531   6.368   5.245   2.924 -1.0316 -0.7463  0.7423
20014TIP3   OH281532   2.447   6.843  16.105 -0.8160 -0.1417 -0.4318
20014TIP3    H181533   2.523   6.790  16.081 -0.6659  0.2769 -0.9098
20014TIP3    H281534   2.408   6.867  16.021  1.2710  3.6877 -0.5539
20015TIP3   OH281535   5.393   6.190   2.886 -0.2411  0.0178 -0.4551
20015TIP3    H181536   5.335   6.138   2.830  0.4910  0.2468 -1.4358
20015TIP3    H281537   5.429   6.126   2.948 -1.4748 -0.1399  0.1379
20016TIP3   OH281538   6.216   2.266  15.943  0.7226  0.4267 -0.2312
20016TIP3    H181539   6.259   2.200  15.997 -2.7607 -2.6647 -0.7975
20016TIP3    H281540   6.279   2.285  15.873  2.4455 -1.2062  0.7925
20017TIP3   OH281541   6.251   4.319  16.361  0.5186  0.4327 -0.0478
20017TIP3    H181542   6.342   4.320  16.390 -0.2171  0.0642  2.4516
20017TIP3    H281543   6.240   4.404  16.316  1.3409  1.8044  2.1703
20018TIP3   OH281544   3.197   2.315  16.696 -0.2289  0.8390 -0.4562
20018TIP3    H181545   3.261   2.345  16.760 -0.0990 -0.0581 -0.1539
20018TIP3    H281546   3.250   2.282  16.623 -0.3358 -0.1585 -0.0888
20019TIP3   OH281547   4.069   4.010   0.776  0.1092 -0.2931  0.1561
20019TIP3    H181548   4.163   4.028   0.776  0.2541 -0.9668  1.1540
20019TIP3    H281549   4.049   3.986   0.686  0.3030  2.6668 -0.7907
20020TIP3   OH281550   4.392   5.864   1.390 -0.5213 -0.1946  0.6822
20020TIP3    H181551   4.306   5.877   1.350 -0.8886  1.2556  1.8788
20020TIP3    H281552   4.390   5.773   1.420 -0.9830 -0.6953 -0.7573
20021TIP3   OH281553   3.281   1.230  15.565 -0.4182  0.1629 -0.1696
20021TIP3    H181554   3.186   1.232  15.575 -0.2772 -0.6962  1.9543
20021TIP3    H281555   3.298   1.277  15.484 -2.5130  2.0717  0.4009
20022TIP3   OH281556   1.582   1.704   5.839  0.6241 -0.0788 -0.2491
20022TIP3    H181557   1.670   1.735   5.819 -0.0940  1.7013 -0.8730
20022TIP3    H281558   1.530   1.728   5.763 -0.4940 -0.6866  0.3002
20023TIP3   OH281559   4.564   0.632   5.858 -0.5281  0.1639  0.6542
20023TIP3    H181560   4.518   0.716   5.862 -0.2379  0.5011 -1.8850
20023TIP3    H281561   4.639   0.644   5.917 -1.1820  1.2153  1.3096
20024TIP3   OH281562   6.830   5.222  15.332  0.2270  0.1489  0.2545
20024TIP3    H181563   6.830   5.208  15.427 -0.4052  1.8498  0.5523
20024TIP3    H281564   6.914   5.263  15.314  0.7789 -1.1212 -0.0969
20025TIP3   OH281565   5.095   0.875  13.063 -0.6188  0.2016 -0.0656
20025TIP3    H181566   5.001   0.866  13.078 -0.8189 -1.4419 -1.8764
20025TIP3    H281567   5.121   0.793  13.020  2.1872 -0.5519  2.6720
20026TIP3   OH281568   0.087   2.099   6.040  0.2932  0.4083 -0.4248
20026TIP3    H181569   0.083   2.158   6.116 -0.0334 -0.5078  0.2927
20026TIP3    H281570  -0.004   2.082   6.018  0.3865  0.2711 -0.7005
20027TIP3   OH281571   2.500   3.797  13.205 -0.3737 -0.4514  0.0610
20027TIP3    H181572   2.432   3.859  13.178 -1.0791  0.4774  3.4397
20027TIP3    H281573   2.530   3.830  13.290 -0.5165 -4.4770  1.9206
20028TIP3   OH281574   5.612   5.050  13.361 -0.7655 -0.2253 -0.2559
20028TIP3    H181575   5.684   5.099  13.321 -1.3314  0.5792 -0.3154
20028TIP3    H281576   5.539   5.112  13.364 -1.4601 -1.0185 -0.1888
20029TIP3   OH281577   6.278   5.523   2.163 -0.4779 -0.4477  0.3180
20029TIP3    H181578   6.234   5.594   2.210  0.5540  0.4757 -0.0475
20029TIP3    H281579   6.340   5.487   2.226  0.6997  0.5983 -0.1962
20030TIP3   OH281580   5.941   0.147  11.968 -0.0490  0.2869 -0.1042
20030TIP3    H181581   5.895   0.104  12.040  0.1767  0.8128  0.3602
20030TIP3    H281582   6.006   0.202  12.011  1.8474 -1.3275 -0.7490
20031TIP3   OH281583   0.292   1.143  14.438 -0.2385 -0.1591 -0.1221
20031TIP3    H181584   0.295   1.237  14.456  0.0707 -0.5605  2.2160
20031TIP3    H281585   0.245   1.106  14.512 -0.0094 -1.9057 -0.8100
20032TIP3   OH281586   6.140   5.708   0.859 -0.3342 -0.2913 -0.0827
20032TIP3    H181587   6.092   5.764   0.920 -0.1226 -0.0131 -0.1673
20032TIP3    H281588   6.107   5.620   0.876 -1.1671 -0.0492 -0.4256
20033TIP3   OH281589   0.845   1.814   5.313 -0.3869 -0.4395  0.7432
20033TIP3    H181590   0.798   1.849   5.237 -0.5746 -2.0619  0.0726
20033TIP3    H281591   0.873   1.891   5.362  1.2822  0.7254 -1.8815
20034TIP3   OH281592   1.611   0.248  15.881 -0.4040 -0.9701  1.0240
20034TIP3    H181593   1.685   0.288  15.835 -0.3670 -2.8912 -0.7629
20034TIP3    H281594   1.536   0.305  15.862 -0.3722 -1.6439 -1.4725
20035TIP3   OH281595   0.656   1.978   2.914  0.3493  0.0016  0.0578
20035TIP3    H181596   0.724   1.968   2.980  0.7475 -0.1771 -0.3682
20035TIP3    H281597   0.580   2.011   2.961  1.0336  1.1491  0.3944
20036TIP3   OH281598   5.313   4.201   1.474 -0.3921 -0.0470  0.0339
20036TIP3    H181599   5.390   4.193   1.530 -0.1697  0.4797 -0.1830
20036TIP3    H281600   5.239   4.190   1.533 -0.1693 -2.3626 -0.0332
20037TIP3   OH281601   0.179   5.154   2.499  0.1841 -0.1542 -0.3709
20037TIP3    H181602   0.111   5.203   2.453 -1.3068  0.3730  2.1549
20037TIP3    H281603   0.239   5.222   2.532  0.1577 -0.3265  0.0453
20038TIP3   OH281604   1.426   3.610   2.643 -0.1863 -0.1027 -0.0477
20038TIP3    H181605   1.497   3.631   2.581  0.9067  1.0165  1.5134
20038TIP3    H281606   1.357   3.673   2.621 -0.6300 -0.9953 -1.3720
20039TIP3   OH281607   0.835   0.373  11.739 -0.0010  0.2437 -0.1608
20039TIP3    H181608   0.854   0.442  11.802 -0.7312 -0.0279  0.3756
20039TIP3    H281609   0.911   0.371  11.681  0.9455  0.1117  1.0544
20040TIP3   OH281610   5.904   1.344   4.075  0.0573 -0.4934  0.0042
20040TIP3    H181611   5.868   1.351   4.163  1.2337  0.8992  0.4091
20040TIP3    H281612   5.931   1.252   4.068 -1.9202 -1.1564  0.2888
20041TIP3   OH281613   1.325   4.769  14.922  0.4548 -0.2365  0.4874
20041TIP3    H181614   1.287   4.834  14.864  0.4733 -0.3167  0.3846
20041TIP3    H281615   1.273   4.690  14.905 -0.5471  0.1359  1.6785
20042TIP3   OH281616   1.122   4.827  15.624 -0.8019  0.2759  0.1934
20042TIP3    H181617   1.090   4.749  15.670 -1.0102  0.3607  0.1972
20042TIP3    H281618   1.042   4.870  15.592 -0.6666  0.3050 -0.1035
20043TIP3   OH281619   4.773   6.007  16.733 -0.3800  0.6693 -0.7336
20043TIP3    H181620   4.740   6.068  16.668  1.1608  0.1903 -2.0446
20043TIP3    H281621   4.868   6.006  16.719 -0.2676 -1.3796 -0.2116
20044TIP3   OH281622   2.280   2.591   4.839  0.4406 -0.0614  0.9500
20044TIP3    H181623   2.371   2.613   4.823  0.5942 -0.3024  1.4677
20044TIP3    H281624   2.266   2.510   4.788  0.7939 -0.5654  1.6396
20045TIP3   OH281625   6.109   0.936  17.073  0.2339  0.0885 -0.1382
20045TIP3    H181626   6.163   0.977  17.142  0.9008  0.3660 -0.8090
20045TIP3    H281627   6.091   0.848  17.107  2.1763 -0.4745 -0.4178
20046TIP3   OH281628   2.912   4.430   0.836 -0.2280  0.2846 -0.4635
20046TIP3    H181629   2.981   4.411   0.900  0.0005  1.0677 -0.4644
20046TIP3    H281630   2.863   4.348   0.828 -2.0012  0.8054  2.8344
20047TIP3   OH281631   3.432   6.073   5.892  0.2431  0.3767 -0.7226
20047TIP3    H181632   3.527   6.065   5.905  0.0274 -1.1639  0.1442
20047TIP3    H281633   3.418   6.040   5.803  0.8077  3.3837 -2.0268
20048TIP3   OH281634   4.082   6.356   4.794 -0.2803 -0.8336  0.4587
20048TIP3    H181635   4.107   6.385   4.706  0.2804  0.3340  0.9835
20048TIP3    H281636   4.088   6.435   4.848 -1.2322 -1.3964  1.4282
20049TIP3   OH281637   1.830   3.164  16.443  0.1077  0.7502  0.0886
20049TIP3    H181638   1.762   3.201  16.499  1.0811 -0.5844  2.2835
20049TIP3    H281639   1.885   3.238  16.419  0.8897  1.1132  2.7329
20050TIP3   OH281640   2.703   2.632   0.579  0.5514 -0.2768  0.0708
20050TIP3    H181641   2.701   2.620   0.484 -0.1138 -1.3444  0.2053
20050TIP3    H281642   2.760   2.708   0.592  3.3802 -2.0096 -1.0096
20051TIP3   OH281643   6.307   6.760  11.048 -0.3279  0.3802  0.0160
20051TIP3    H181644   6.260   6.680  11.027 -0.7007  0.5630  0.1463
20051TIP3    H281645   6.249   6.808  11.107  0.9425 -0.3785  1.9628
20052TIP3   OH281646   4.971   3.728  13.201  0.1742  0.7389 -0.9411
20052TIP3    H181647   4.998   3.641  13.173 -0.6499  0.0489  0.3276
20052TIP3    H281648   5.050   3.766  13.239 -0.0180 -0.4336  0.7544
20053TIP3   OH281649   5.069   2.599  16.683  0.3789 -0.4010  0.6203
20053TIP3    H181650   5.105   2.565  16.601 -0.2243 -1.3647  0.7367
20053TIP3    H281651   5.061   2.693  16.668  0.4309 -0.5410 -0.3763
20054TIP3   OH281652   1.183   6.087   1.729  0.3724 -0.1391 -0.2570
20054TIP3    H181653   1.202   5.995   1.712  0.5923 -0.1760  0.1752
20054TIP3    H281654   1.129   6.087   1.809  0.6177  0.1238 -0.0876
20055TIP3   OH281655   4.580   2.634  16.784  0.2625  0.2060  0.2643
20055TIP3    H181656   4.527   2.559  16.759  1.7398 -0.6186 -0.5345
20055TIP3    H281657   4.656   2.597  16.829  1.1249  1.1942 -0.3235
20056TIP3   OH281658   4.399   6.240  15.168  0.0921  0.0410  0.2744
20056TIP3    H181659   4.348   6.304  15.217 -0.5534  1.0850 -1.6754
20056TIP3    H281660   4.488   6.248  15.203 -0.1561  1.4029  0.6458
20057TIP3   OH281661   2.187   1.585   5.085 -0.0591 -0.6189  0.4420
20057TIP3    H181662   2.176   1.626   5.171 -0.7760  0.9975 -0.3812
20057TIP3    H281663   2.237   1.648   5.034 -0.8439 -0.9296 -0.7544
20058TIP3   OH281664   5.422   4.581  13.385 -0.1298 -0.3928  0.4198
20058TIP3    H181665   5.363   4.608  13.456 -0.6905 -1.4370  0.3701
20058TIP3    H281666   5.364   4.552  13.315  0.3835  1.6154 -0.9356
20059TIP3   OH281667   3.843   2.036  15.615  0.0430 -0.2343 -0.0590
20059TIP3    H181668   3.936   2.040  15.591  0.1265 -0.8725  0.1414
20059TIP3    H281669   3.843   2.029  15.710 -0.1905 -0.8503 -0.0999
20060TIP3   OH281670   3.736   6.777   0.044  0.2909 -0.8041 -0.3779
20060TIP3    H181671   3.826   6.767   0.012  0.7042  0.1164  0.4414
20060TIP3    H281672   3.691   6.827  -0.024  0.8246  0.0455 -0.1234
20061TIP3   OH281673   5.117   5.667   4.807  0.1063  0.4263 -0.5148
20061TIP3    H181674   5.145   5.758   4.814  0.5768  0.1537  1.5993
20061TIP3    H281675   5.124   5.647   4.713 -0.8367  2.7853 -1.1478
20062TIP3   OH281676   4.766   0.202  12.975 -0.1305 -0.3179  0.0634
20062TIP3    H181677   4.785   0.283  13.023 -0.3692 -0.1004 -0.2065
20062TIP3    H281678   4.829   0.202  12.903 -0.7654  0.1198 -0.5039
20063TIP3   OH281679   2.514   1.690   5.201  0.3449 -0.0676 -0.0936
20063TIP3    H181680   2.578   1.761   5.200  1.4208 -0.9581 -2.8483
20063TIP3    H281681   2.567   1.610   5.202 -0.6283 -0.8251 -2.4806
20064TIP3   OH281682   2.450   6.080  13.548 -0.2234 -0.3355 -0.0819
20064TIP3    H181683   2.372   6.095  13.602 -0.1628  0.0732 -0.1091
20064TIP3    H281684   2.523   6.086  13.609 -0.2821 -2.0372  0.2009
20065TIP3   OH281685   6.125   4.471   1.758 -0.1733 -0.7052  0.2728
20065TIP3    H181686   6.146   4.557   1.722  2.0892 -0.8437  1.1392
20065TIP3    H281687   6.123   4.413   1.682 -0.0136 -0.2081 -0.1153
20066TIP3   OH281688   0.463   2.303   3.077 -0.4209 -0.1806  0.5254
20066TIP3    H181689   0.421   2.298   2.991 -1.2689  0.8674  0.8582
20066TIP3    H281690   0.532   2.367   3.067 -0.1207 -0.5113  0.4696
20067TIP3   OH281691   0.366   2.948  15.030  0.1275 -0.1345 -0.1336
20067TIP3    H181692   0.327   3.034  15.014 -0.5168 -0.5078 -0.5922
20067TIP3    H281693   0.412   2.958  15.114  0.2503  0.7182 -0.2959
20068TIP3   OH281694   4.630   3.077   5.366 -0.3626  0.4596  0.5271
20068TIP3    H181695   4.639   3.160   5.412 -2.3945  0.5584  0.8228
20068TIP3    H281696   4.616   3.101   5.274  1.3426  0.3309  0.1967
20069TIP3   OH281697   0.748   5.585  14.864 -0.4614 -0.8088  0.3440
20069TIP3    H181698   0.829   5.544  14.893 -1.0368 -0.9417  1.8580
20069TIP3    H281699   0.742   5.563  14.771  0.4124 -2.1875  0.5869
20070TIP3   OH281700   0.326   1.882   1.900 -0.1859 -0.2619 -0.5381
20070TIP3    H181701   0.417   1.905   1.883 -0.3724  1.2691  0.3792
20070TIP3    H281702   0.326   1.844   1.987 -0.2431 -1.6400 -1.1076
20071TIP3   OH281703   1.494   0.691  10.838 -0.3996  0.4927 -0.0396
20071TIP3    H181704   1.455   0.777  10.821  1.2775  0.9999 -1.6513
20071TIP3    H281705   1.484   0.644  10.756 -2.2421 -1.3242  1.1272
20072TIP3   OH281706   6.785   2.464  10.539 -0.3644  0.2718  0.6786
20072TIP3    H181707   6.857   2.438  10.481  0.7510 -0.8262  2.4515
20072TIP3    H281708   6.710   2.414  10.508 -0.7407  2.1701 -1.8309
20073TIP3   OH281709   4.698   6.626   1.820 -0.7840  0.4674  0.2462
20073TIP3    H181710   4.658   6.619   1.733 -0.6913  0.3654  0.2117
20073TIP3    H281711   4.624   6.630   1.880 -0.8465 -0.2515  0.2231
20074TIP3   OH281712   5.413   3.843   2.209  0.0260  0.1124  0.2051
20074TIP3    H181713   5.358   3.768   2.231 -0.0010 -0.5531 -1.8315
20074TIP3    H281714   5.441   3.879   2.293 -1.5612 -0.9869  1.2537
20075TIP3   OH281715   1.503   6.852  15.969 -0.5151 -0.4982  0.1232
20075TIP3    H181716   1.410   6.858  15.993 -0.5017  0.5391 -0.0629
20075TIP3    H281717   1.523   6.936  15.928  1.1821  0.3458  2.4836
20076TIP3   OH281718   5.065   0.407  14.914 -0.7273 -0.3680 -0.0650
20076TIP3    H181719   5.008   0.372  14.845 -1.2049 -0.4117  0.3434
20076TIP3    H281720   5.135   0.451  14.867 -1.1858 -0.1799 -0.5817
20077TIP3   OH281721   1.019   1.616   6.146  0.0131 -0.0393 -0.3945
20077TIP3    H181722   1.000   1.540   6.092 -0.1187  0.3163 -0.8463
20077TIP3    H281723   0.971   1.600   6.228  0.1243 -0.5183 -0.4203
20078TIP3   OH281724   5.691   4.522  16.083 -0.0352 -0.3392 -0.3934
20078TIP3    H181725   5.753   4.595  16.083  0.3218 -0.5837  1.8859
20078TIP3    H281726   5.630   4.541  16.154 -1.5678 -0.9827 -1.4697
20079TIP3   OH281727   5.510   0.501   3.707 -0.4510 -0.0538 -0.1504
20079TIP3    H181728   5.517   0.419   3.658  2.1095  2.0506 -3.8779
20079TIP3    H281729   5.454   0.557   3.652  3.4917  2.8207 -1.7563
20080TIP3   OH281730   1.185   1.651  16.892  0.1001 -0.4042 -0.2117
20080TIP3    H181731   1.094   1.678  16.899  0.4324  1.1206 -1.2098
20080TIP3    H281732   1.234   1.733  16.886  1.4093 -1.1994 -1.0559
20081TIP3   OH281733   0.657   3.851  14.158 -0.0920 -0.1081 -0.9943
20081TIP3    H181734   0.563   3.839  14.169  0.0846  0.6341  2.7335
20081TIP3    H281735   0.690   3.762  14.143 -1.2557 -0.5539 -1.0585
20082TIP3   OH281736   4.168   5.412  10.284  0.2236  0.1826 -0.0548
20082TIP3    H181737   4.244   5.379  10.332 -0.7364 -0.5751  0.9870
20082TIP3    H281738   4.104   5.341  10.287 -1.4997  1.6841  1.2978
20083TIP3   OH281739   6.055   5.423   2.983 -0.0828  0.2762 -0.1757
20083TIP3    H181740   5.979   5.415   3.041 -0.2652 -0.9108 -0.5490
20083TIP3    H281741   6.056   5.515   2.958 -1.8935  0.1741 -0.7921
20084TIP3   OH281742   2.425   3.666  14.024 -0.6676 -0.3818  0.1331
20084TIP3    H181743   2.430   3.748  14.073  1.0061 -1.2724  1.5540
20084TIP3    H281744   2.449   3.598  14.087 -0.5553 -1.8076 -1.3726
20085TIP3   OH281745   4.128   4.293  13.158 -0.1411  0.0368 -0.2105
20085TIP3    H181746   4.042   4.259  13.134 -0.2689  0.5436 -0.4876
20085TIP3    H281747   4.122   4.387  13.142 -0.1107  0.3599  1.4482
20086TIP3   OH281748   1.661   6.011  16.527  0.0755 -0.4618  0.3161
20086TIP3    H181749   1.620   5.999  16.613  1.2959  0.8124  1.1132
20086TIP3    H281750   1.729   6.076  16.542 -1.0500  1.4276 -2.0672
20087TIP3   OH281751   5.170   0.667  12.908 -0.0364  0.3200 -0.3514
20087TIP3    H181752   5.259   0.642  12.885  0.6640  1.2573  1.2543
20087TIP3    H281753   5.120   0.585  12.902  1.3761 -0.6655  0.8456
20088TIP3   OH281754   5.339   3.695  12.753  0.4174  0.3245  0.0829
20088TIP3    H181755   5.358   3.788  12.739  0.0299  0.2645 -0.8995
20088TIP3    H281756   5.393   3.671  12.828 -0.1327  1.5465  0.8877
20089TIP3   OH281757   5.001   3.431   1.107  0.1022 -0.1223 -0.1823
20089TIP3    H181758   5.001   3.444   1.202  1.3577 -0.4838 -0.1133
20089TIP3    H281759   5.093   3.417   1.085 -0.2801 -1.0113 -1.3217
20090TIP3   OH281760   4.090   6.084   1.974 -0.1303 -0.4638 -0.4609
20090TIP3    H181761   4.083   6.090   1.878  0.7462 -0.4734 -0.5376
20090TIP3    H281762   4.074   6.173   2.005 -0.5189 -0.4803 -0.6089
20091TIP3   OH281763   2.441   2.450  15.758 -0.0334  0.0756 -0.0779
20091TIP3    H181764   2.469   2.518  15.818 -1.2410 -0.9787  1.7984
20091TIP3    H281765   2.355   2.423  15.791 -0.1209 -1.5172 -1.4498
20092TIP3   OH281766   1.050   3.443   2.282  0.0360  0.1108  0.5049
20092TIP3    H181767   0.986   3.403   2.222  1.1181 -0.2933 -0.4041
20092TIP3    H281768   1.112   3.373   2.302 -0.3176  0.2210  2.1751
20093TIP3   OH281769   2.827   1.595   1.270 -0.2692  0.2566 -0.1787
20093TIP3    H181770   2.747   1.647   1.267 -0.6245 -0.3131 -2.8394
20093TIP3    H281771   2.827   1.545   1.189  2.2809 -0.5647  0.2166
20094TIP3   OH281772   6.681   5.507   1.407 -0.0585  0.4627 -0.0303
20094TIP3    H181773   6.679   5.548   1.493  1.4753 -1.7712  1.1908
20094TIP3    H281774   6.594   5.470   1.395  0.3923 -1.3614  1.7837
20095TIP3   OH281775   0.527   1.966   4.883  0.0350  0.3376  0.1550
20095TIP3    H181776   0.555   1.877   4.860  0.3074  0.1434  1.1608
20095TIP3    H281777   0.432   1.964   4.877  0.0851  0.2474 -0.7270
20096TIP3   OH281778   5.346   0.535   5.759 -0.3685 -0.0095  0.2503
20096TIP3    H181779   5.270   0.537   5.817 -0.9059 -0.1092 -0.4443
20096TIP3    H281780   5.330   0.605   5.696 -0.3442 -0.6419 -0.4669
20097TIP3   OH281781   0.633   5.148  13.869 -0.1704  0.5575 -0.4465
20097TIP3    H181782   0.542   5.148  13.896 -0.1930  2.4808 -0.3392
20097TIP3    H281783   0.634   5.101  13.785 -0.7737 -1.8392  0.8249
20098TIP3   OH281784   2.079   0.384   2.753 -0.3546  0.7528 -0.0965
20098TIP3    H181785   2.054   0.406   2.664 -1.6041  0.6207  0.2047
20098TIP3    H281786   2.095   0.468   2.795  0.7737  0.7976 -0.5701
20099TIP3   OH281787   6.599   2.423   0.879 -0.1715 -0.4023  0.2816
20099TIP3    H181788   6.688   2.422   0.914  0.6344  2.1061 -1.4364
20099TIP3    H281789   6.572   2.515   0.882 -2.2314 -0.9130 -0.4124
20100TIP3   OH281790   1.588   5.825  13.841 -0.6396 -0.0908  0.4920
20100TIP3    H181791   1.592   5.858  13.751 -1.4557 -0.9191  0.1322
20100TIP3    H281792   1.512   5.765  13.841 -2.8211  2.4385  2.5740
20101TIP3   OH281793   4.943   2.643   5.328  0.0853  0.0997  0.2704
20101TIP3    H181794   4.923   2.700   5.253 -1.9667 -0.9724 -0.0688
20101TIP3    H281795   4.860   2.636   5.375  1.4560  1.2488  3.0667
20102TIP3   OH281796   3.246   5.169   4.370  0.4284  0.3158  0.1428
20102TIP3    H181797   3.266   5.135   4.283  0.6240 -0.0725  0.3397
20102TIP3    H281798   3.208   5.095   4.417  1.4675  0.1693  0.7824
20103TIP3   OH281799   0.864   5.212   4.973 -0.1040 -0.0433 -0.0895
20103TIP3    H181800   0.845   5.294   4.928  0.0963  0.2190  0.2983
20103TIP3    H281801   0.921   5.164   4.913 -0.8504 -0.2350 -0.6568
20104TIP3   OH281802   4.703   4.410  15.743 -0.5125  1.0914 -0.0155
20104TIP3    H181803   4.777   4.418  15.802  0.1400  2.3564 -0.9440
20104TIP3    H281804   4.733   4.452  15.662 -2.2108  1.5992 -0.4227
20105TIP3   OH281805   0.063   1.253  11.432 -0.2568 -0.3559  0.3172
20105TIP3    H181806   0.140   1.267  11.488 -0.3856 -1.3064  0.7526
20105TIP3    H281807  -0.007   1.232  11.493 -0.6785 -0.2519 -0.1290
20106TIP3   OH281808   1.652   5.558  16.994 -0.0811 -0.4688  0.7029
20106TIP3    H181809   1.728   5.591  17.042 -0.0535 -0.8194  0.8988
20106TIP3    H281810   1.591   5.530  17.062  0.3881 -1.9604  0.5429
20107TIP3   OH281811   4.399   0.829   3.482 -0.1537  0.1479 -0.3993
20107TIP3    H181812   4.380   0.737   3.463 -0.6073 -0.1409  1.3365
20107TIP3    H281813   4.314   0.867   3.504 -0.0266  1.1033 -1.4616
20108TIP3   OH281814   2.704   1.084  14.895  0.7792 -0.3304 -0.0320
20108TIP3    H181815   2.673   1.164  14.938  0.1292  0.0050 -1.0826
20108TIP3    H281816   2.682   1.097  14.803 -0.2513 -2.1534 -0.0816
20109TIP3   OH281817   2.406   0.229  13.486  0.5186  0.0709  0.3871
20109TIP3    H181818   2.374   0.319  13.492 -0.3863 -0.2017 -0.1142
20109TIP3    H281819   2.488   0.229  13.535  0.3555  1.0861  0.6793
20110TIP3   OH281820   5.728   2.548  13.198  0.1519  0.1647 -0.0632
20110TIP3    H181821   5.792   2.611  13.165  0.3494 -0.3814 -0.7365
20110TIP3    H281822   5.761   2.523  13.284  0.7232  0.0700 -0.3053
20111TIP3   OH281823   4.855   1.447  13.914  0.5976 -0.0115  0.4269
20111TIP3    H181824   4.839   1.364  13.959  2.6496 -0.3383  0.6387
20111TIP3    H281825   4.925   1.427  13.852 -0.8288  0.9056 -1.6003
20112TIP3   OH281826   2.093   4.869  11.015 -0.1345  0.3232  0.0792
20112TIP3    H181827   2.049   4.844  10.933 -0.5450  0.3581  0.2836
20112TIP3    H281828   2.033   4.839  11.083  0.7087 -0.6845  0.3990
20113TIP3   OH281829   0.346   2.205  14.888 -0.2223  0.0066 -0.0613
20113TIP3    H181830   0.282   2.157  14.940 -0.3832  0.8295  0.5356
20113TIP3    H281831   0.345   2.293  14.926  1.1312  0.0802 -0.1532
20114TIP3   OH281832   2.860   0.262   0.756  0.8197  0.5147  0.7238
20114TIP3    H181833   2.824   0.224   0.835  1.2242  0.3680  0.8395
20114TIP3    H281834   2.955   0.263   0.770  0.9839 -0.3824 -0.1294
20115TIP3   OH281835   4.103   5.447   2.075  0.2407 -0.9582  0.6243
20115TIP3    H181836   4.080   5.410   1.990  0.0520  0.9434 -0.1980
20115TIP3    H281837   4.021   5.447   2.124  0.0647 -0.8560  0.3299
20116TIP3   OH281838   0.171   1.533   5.807 -0.2297  0.1101  0.0590
20116TIP3    H181839   0.260   1.508   5.832 -0.7176 -0.5496  1.1676
20116TIP3    H281840   0.167   1.514   5.713  0.9124  0.5274 -0.1013
20117TIP3   OH281841   5.487   2.207   5.355  0.1124 -0.2987 -0.0279
20117TIP3    H181842   5.429   2.268   5.401  0.4552 -1.2184  1.7213
20117TIP3    H281843   5.571   2.251   5.351 -0.2981  0.4315 -1.2501
20118TIP3   OH281844   1.689   0.357  14.574 -0.0696  0.1017 -0.3219
20118TIP3    H181845   1.620   0.416  14.545  0.3648 -0.1949 -2.0924
20118TIP3    H281846   1.769   0.409  14.572  0.1621 -0.2654 -0.9245
20119TIP3   OH281847   5.015   4.186  16.511 -0.6785 -0.5819 -0.2708
20119TIP3    H181848   4.932   4.212  16.550 -0.3707  1.0033 -0.5907
20119TIP3    H281849   4.991   4.128  16.439 -1.5312 -0.0068 -0.4633
20120TIP3   OH281850   2.187   3.033  14.955 -0.5869 -0.4125  0.5060
20120TIP3    H181851   2.122   3.088  14.998 -0.0655 -1.2766  2.5130
20120TIP3    H281852   2.270   3.057  14.996 -0.4754 -3.3088  2.2511
20121TIP3   OH281853   2.820   1.597  12.724 -0.4860  0.2373 -0.1428
20121TIP3    H181854   2.818   1.687  12.755  1.8067 -0.2980  1.7769
20121TIP3    H281855   2.750   1.553  12.773  0.2130  0.3854  1.0086
20122TIP3   OH281856   5.487   2.940   0.563 -0.2849  0.3776 -0.5920
20122TIP3    H181857   5.581   2.930   0.580 -0.3053 -0.1848 -0.8279
20122TIP3    H281858   5.451   2.967   0.648 -0.0993 -0.6317 -0.1846
20123TIP3   OH281859   2.865   5.114   0.853 -0.3816  0.1771  0.3687
20123TIP3    H181860   2.954   5.102   0.886 -0.1502 -0.9439 -0.5721
20123TIP3    H281861   2.816   5.151   0.926  0.2000 -1.8216  1.8386
20124TIP3   OH281862   5.080   6.542   4.895  0.0639  0.0319 -0.1530
20124TIP3    H181863   4.987   6.538   4.872 -0.1166  3.3588 -0.5210
20124TIP3    H281864   5.081   6.553   4.990  0.1492 -0.7289 -0.0587
20125TIP3   OH281865   2.155   4.976   5.251  0.2069 -0.0789  0.1791
20125TIP3    H181866   2.129   5.065   5.227 -2.1633 -0.6862  0.1760
20125TIP3    H281867   2.140   4.971   5.345 -0.1454 -0.5978  0.1014
20126TIP3   OH281868   3.531   4.605   5.017  0.8685  0.1992  0.1025
20126TIP3    H181869   3.445   4.645   5.009  0.0108 -1.3621  1.1348
20126TIP3    H281870   3.525   4.523   4.968  1.5040 -0.3145  0.8498
20127TIP3   OH281871   5.025   6.319   0.802  0.1368  0.1140  0.1538
20127TIP3    H181872   5.067   6.234   0.816 -0.2745 -0.1446 -0.1674
20127TIP3    H281873   5.072   6.378   0.860 -0.2050 -0.5259  1.1225
20128TIP3   OH281874   5.505   3.381  15.216  0.1305 -0.4144 -0.1332
20128TIP3    H181875   5.476   3.362  15.305  0.9524  0.3028  0.3123
20128TIP3    H281876   5.537   3.297  15.183 -0.9297 -0.8625 -0.0581
20129TIP3   OH281877   1.551   4.190   3.295  0.0423  0.0812 -0.2884
20129TIP3    H181878   1.591   4.103   3.297 -0.4212 -0.1561 -0.9137
20129TIP3    H281879   1.486   4.185   3.225 -0.7472  0.5968  0.3811
20130TIP3   OH281880   2.275   2.612   2.665  0.2294 -0.8928  0.0727
20130TIP3    H181881   2.277   2.538   2.604 -1.3993 -0.5674 -0.4116
20130TIP3    H281882   2.362   2.651   2.658  1.0234 -2.5532  0.1089
20131TIP3   OH281883   6.574   1.973   1.333  0.5990 -0.2111 -0.1778
20131TIP3    H181884   6.647   1.961   1.394  1.4486  3.3541 -0.2998
20131TIP3    H281885   6.611   2.020   1.258 -1.7694  2.1408 -0.0551
20132TIP3   OH281886   0.550   1.216  15.874 -0.3117 -0.2957  0.1873
20132TIP3    H181887   0.491   1.145  15.898 -2.0136 -0.4196 -3.5183
20132TIP3    H281888   0.634   1.174  15.857 -0.3591 -0.8406  1.2367
20133TIP3   OH281889   6.135   5.720  14.577  0.0818  0.1807  0.0545
20133TIP3    H181890   6.201   5.660  14.609  0.6870  0.3888 -0.7629
20133TIP3    H281891   6.181   5.776  14.514 -0.8815  0.2555 -0.6183
20134TIP3   OH281892   4.826   5.460  12.752  0.3404 -0.2925 -0.1447
20134TIP3    H181893   4.905   5.448  12.805  1.0693  2.6958 -0.4343
20134TIP3    H281894   4.856   5.454  12.662 -0.1501 -1.0929 -0.2672
20135TIP3   OH281895   2.184   3.240   3.927 -0.3246 -0.1797  0.0739
20135TIP3    H181896   2.154   3.151   3.948  1.4275 -0.6874  0.5865
20135TIP3    H281897   2.227   3.270   4.007  1.7469 -0.0569 -1.0171
20136TIP3   OH281898   2.630   1.193  12.829 -0.2002 -0.4340  0.6005
20136TIP3    H181899   2.690   1.128  12.865  2.8729  1.3879 -0.8515
20136TIP3    H281900   2.563   1.142  12.785  2.2110 -2.6909 -0.7140
20137TIP3   OH281901   0.772   4.726  14.017 -0.1968  0.0502 -0.0222
20137TIP3    H181902   0.771   4.811  14.061 -1.2098  0.6646 -1.1753
20137TIP3    H281903   0.692   4.683  14.046 -0.9286  0.5044 -1.3091
20138TIP3   OH281904   2.216   0.435  14.354  0.1470  0.1882 -0.6279
20138TIP3    H181905   2.198   0.528  14.343 -4.3519 -0.2760  0.9080
20138TIP3    H281906   2.148   0.391  14.304  1.1969 -2.2863 -0.0202
20139TIP3   OH281907   5.601   0.807  14.894  0.3518 -0.5490 -0.4783
20139TIP3    H181908   5.670   0.785  14.958  1.1393  0.5144 -0.9258
20139TIP3    H281909   5.520   0.806  14.945  0.7798 -1.1232  0.2207
20140TIP3   OH281910   0.448   4.117   4.072 -0.1159 -0.1701  0.0186
20140TIP3    H181911   0.396   4.113   4.152 -0.1903 -1.2331 -0.0588
20140TIP3    H281912   0.400   4.062   4.010  0.9763 -1.0036 -0.1223
20141TIP3   OH281913   4.094   6.694   0.232  0.1037  0.5492  0.1993
20141TIP3    H181914   4.065   6.649   0.153  1.0543 -0.9922  0.6830
20141TIP3    H281915   4.030   6.669   0.299  1.4852 -1.5431  0.8689
20142TIP3   OH281916   6.265   5.061  12.424  0.0161  0.4351  0.4618
20142TIP3    H181917   6.199   4.996  12.448 -0.6661  0.9246 -0.0422
20142TIP3    H281918   6.318   5.017  12.358  0.0283  0.1326  0.6679
20143TIP3   OH281919   0.072   5.630   4.590  0.3019 -0.0075 -0.0823
20143TIP3    H181920  -0.018   5.663   4.584  0.5967  0.7277 -0.5609
20143TIP3    H281921   0.063   5.543   4.629 -0.4869  0.6837  1.3708
20144TIP3   OH281922   1.619   2.621  12.405 -0.1102 -0.1585  0.0391
20144TIP3    H181923   1.595   2.699  12.354 -0.2351  0.7264  1.3899
20144TIP3    H281924   1.576   2.634  12.489 -0.5028 -1.9303  0.1456
20145TIP3   OH281925   3.899   1.928  17.090  0.1582 -0.5494  0.3623
20145TIP3    H181926   3.963   1.955  17.156 -2.5122  3.0207  1.8369
20145TIP3    H281927   3.829   1.886  17.141 -0.6891 -0.3438 -0.5990
20146TIP3   OH281928   6.435   4.413   3.395 -0.2620  0.6494  0.1666
20146TIP3    H181929   6.361   4.426   3.454 -0.7994  0.2056 -0.3962
20146TIP3    H281930   6.404   4.446   3.311 -1.0685 -2.4999 -0.9138
20147TIP3   OH281931   6.531   4.745   3.119  0.0875 -0.6930  0.2351
20147TIP3    H181932   6.502   4.665   3.164 -0.9229 -0.0744  0.6995
20147TIP3    H281933   6.477   4.750   3.041 -0.5545  0.0751  0.7268
20148TIP3   OH281934   1.648   2.783   0.590  0.2228 -0.0800 -0.0958
20148TIP3    H181935   1.621   2.835   0.515 -0.6620  0.3740  0.5131
20148TIP3    H281936   1.643   2.844   0.664  2.9111  0.0097  0.0889
20149TIP3   OH281937   5.680   4.231   0.004 -0.0147 -0.6841  0.0343
20149TIP3    H181938   5.615   4.299   0.020  0.9453 -0.2145  2.3756
20149TIP3    H281939   5.642   4.151   0.041  0.7128 -0.3864  1.5063
20150TIP3   OH281940   3.242   1.841   3.065 -0.1269 -0.7050  0.3615
20150TIP3    H181941   3.179   1.873   3.130  1.1726  1.6201  0.5462
20150TIP3    H281942   3.252   1.913   3.003  0.9459 -1.7564 -0.7386
20151TIP3   OH281943   0.332   2.740  11.407  0.6574  0.1215 -0.0716
20151TIP3    H181944   0.274   2.801  11.362 -0.2215 -1.7123 -1.5975
20151TIP3    H281945   0.274   2.686  11.460  1.4923  1.0001  1.8311
20152TIP3   OH281946   4.835   5.815  16.027  0.0498  0.1013 -0.2653
20152TIP3    H181947   4.833   5.870  15.949 -1.1075  0.4292 -0.0279
20152TIP3    H281948   4.924   5.824  16.061  0.6959 -0.3490 -1.7445
20153TIP3   OH281949   5.549   3.761  13.242  0.2254 -0.7220  0.1656
20153TIP3    H181950   5.526   3.849  13.270  2.2877 -0.3766  0.9338
20153TIP3    H281951   5.519   3.755  13.151 -0.5238  0.5133  0.3190
20154TIP3   OH281952   4.396   2.874   0.681  0.4949  0.1165 -0.5262
20154TIP3    H181953   4.467   2.825   0.721  0.0818  0.3893  0.5566
20154TIP3    H281954   4.435   2.911   0.601  1.4370 -0.1026 -0.1770
20155TIP3   OH281955   1.048   3.141  12.612 -0.4620  0.1551 -0.1492
20155TIP3    H181956   1.052   3.209  12.679 -1.9845  0.3576 -0.2240
20155TIP3    H281957   0.974   3.087  12.637  0.7661 -1.5579 -0.0545
20156TIP3   OH281958   4.831   5.436  12.033  0.3923 -1.1314 -0.0215
20156TIP3    H181959   4.767   5.446  12.103  0.2177  1.7078 -0.4762
20156TIP3    H281960   4.787   5.382  11.968 -0.9509 -0.5254  0.3609
20157TIP3   OH281961   0.826   6.304   0.045 -0.3992 -0.5098 -0.2074
20157TIP3    H181962   0.773   6.244  -0.008 -0.1603  0.3165 -1.4291
20157TIP3    H281963   0.913   6.265   0.045 -0.2661 -0.2395 -0.9232
20158TIP3   OH281964   3.668   5.230   0.317 -0.3549 -0.0808 -0.6266
20158TIP3    H181965   3.585   5.275   0.308 -0.1965  0.2581 -0.4342
20158TIP3    H281966   3.715   5.280   0.383 -0.0751 -0.3838 -0.5908
20159TIP3   OH281967   5.408   0.366  16.129 -0.0596  0.1996  0.2613
20159TIP3    H181968   5.440   0.295  16.184  1.4125 -0.9193 -1.8655
20159TIP3    H281969   5.399   0.441  16.188  1.4240 -0.9092  2.0030
20160TIP3   OH281970   5.909   3.451  14.260 -0.2070  0.4808  0.0668
20160TIP3    H181971   5.867   3.469  14.344  1.5958  0.2716  1.0688
20160TIP3    H281972   5.990   3.502  14.263  0.9541 -1.2228 -0.5681
20161TIP3   OH281973   4.186   0.159  14.582 -0.3123 -0.8759  0.5473
20161TIP3    H181974   4.100   0.134  14.547 -0.4963 -0.9367  1.0296
20161TIP3    H281975   4.203   0.095  14.652  1.4589 -2.7060 -1.4201
20162TIP3   OH281976   3.440   4.245   4.306 -0.4202  0.0577  0.5777
20162TIP3    H181977   3.471   4.322   4.354  0.9797  0.5916 -1.0878
20162TIP3    H281978   3.508   4.179   4.319  0.2282  0.3748 -1.0202
20163TIP3   OH281979   0.522   5.908  13.919 -0.1333  0.2778 -0.2828
20163TIP3    H181980   0.493   5.881  13.832 -1.0542 -0.7457  0.3215
20163TIP3    H281981   0.448   5.956  13.956 -0.7044 -1.4071  0.8567
20164TIP3   OH281982   6.495   2.444  14.173 -0.1436 -0.5439  0.1205
20164TIP3    H181983   6.409   2.445  14.214  0.3643 -0.7629  1.2321
20164TIP3    H281984   6.483   2.395  14.091 -1.4246  0.9116 -0.6080
20165TIP3   OH281985   3.382   4.040  14.760  0.4398 -0.2426  0.3396
20165TIP3    H181986   3.416   4.047  14.850 -0.8706 -2.1522  1.0462
20165TIP3    H281987   3.369   4.131  14.733 -1.8350  0.4519  3.2113
20166TIP3   OH281988   2.013   1.258  12.499 -0.8076  0.2577 -0.8655
20166TIP3    H181989   2.056   1.333  12.457  1.7712 -0.0393  0.9753
20166TIP3    H281990   2.060   1.182  12.463 -0.9689 -0.2073 -0.1116
20167TIP3   OH281991   6.448   6.350   1.953  0.0231  0.1399  0.3139
20167TIP3    H181992   6.452   6.433   2.002 -0.0272  0.3071  0.0364
20167TIP3    H281993   6.475   6.374   1.865 -0.5578 -0.0336  0.0872
20168TIP3   OH281994   0.923   1.450  12.977 -0.6358  0.9430 -0.4013
20168TIP3    H181995   0.919   1.464  13.072  2.3109  0.5273 -0.1278
20168TIP3    H281996   0.878   1.526  12.940 -0.6531  1.8159  1.3089
20169TIP3   OH281997   0.370   5.488  11.311  0.2607 -0.4675  0.4518
20169TIP3    H181998   0.313   5.428  11.360 -0.0059 -0.2803  0.3715
20169TIP3    H281999   0.398   5.437  11.235  0.8339 -0.8254  0.8925
20170TIP3   OH282000   6.781   2.238  11.905 -0.6008 -0.7514 -0.3625
20170TIP3    H182001   6.734   2.190  11.837 -1.0675  0.9743 -1.3368
20170TIP3    H282002   6.716   2.296  11.944 -0.0324 -0.7592  0.6404
20171TIP3   OH282003   2.314   0.506   4.630  0.4350  0.1865  0.2428
20171TIP3    H182004   2.231   0.532   4.670 -0.2320 -0.5986 -0.5729
20171TIP3    H282005   2.380   0.556   4.677 -0.5623  1.4414  0.3838
20172TIP3   OH282006   6.344   3.905  12.884  0.3973  0.4846  0.1725
20172TIP3    H182007   6.431   3.943  12.902  0.6185  0.4290 -0.7495
20172TIP3    H282008   6.339   3.902  12.789  0.7871 -2.7263  0.1605
20173TIP3   OH282009   0.430   5.793   4.906  0.0521  0.8966  0.2652
20173TIP3    H182010   0.434   5.884   4.875 -0.3646  0.9758  0.4369
20173TIP3    H282011   0.370   5.796   4.981 -1.6277  0.1421 -0.9873
20174TIP3   OH282012   1.165   1.372   1.694 -0.0617  0.1017 -0.3167
20174TIP3    H182013   1.069   1.375   1.690 -0.1334 -0.7293  0.5274
20174TIP3    H282014   1.189   1.292   1.648  0.1047 -0.6243  0.9911
20175TIP3   OH282015   1.854   2.093  12.938 -0.5315  0.2323  0.4668
20175TIP3    H182016   1.770   2.087  12.984 -1.4987 -1.2767 -1.3409
20175TIP3    H282017   1.881   2.002  12.927  1.1548  0.6884  0.6286
20176TIP3   OH282018   3.818   2.307   0.672  0.0951  0.4156  0.3812
20176TIP3    H182019   3.766   2.288   0.750 -0.7709  2.0807  0.2513
20176TIP3    H282020   3.762   2.363   0.619  1.2525  0.5655 -0.7253
20177TIP3   OH282021   2.478   2.072   5.324  0.3228 -0.3738 -0.0790
20177TIP3    H182022   2.530   2.153   5.328 -1.5470  0.8538  1.1781
20177TIP3    H282023   2.536   2.005   5.359  1.2596  0.8290  0.7970
20178TIP3   OH282024   4.351   3.723  13.546 -0.3091  0.5006 -0.1694
20178TIP3    H182025   4.382   3.651  13.602  0.5426  0.3141 -0.8512
20178TIP3    H282026   4.432   3.766  13.517 -0.7950  3.3346  2.2185
20179TIP3   OH282027   1.467   1.646  12.118 -0.2395  0.2251  0.2377
20179TIP3    H182028   1.512   1.561  12.120 -1.2184 -0.3330 -0.5931
20179TIP3    H282029   1.526   1.705  12.166 -0.5477 -1.3790  2.7594
20180TIP3   OH282030   1.675   3.628  16.804 -0.0254 -0.1845  0.8783
20180TIP3    H182031   1.746   3.691  16.818 -1.1705  1.3797 -0.0921
20180TIP3    H282032   1.683   3.604  16.711 -1.2711  0.6871  0.5266
20181TIP3   OH282033   2.761   5.435  15.189 -0.0166  1.0346 -0.3172
20181TIP3    H182034   2.698   5.473  15.128  0.3675  0.5040 -1.0681
20181TIP3    H282035   2.836   5.494  15.188 -0.2026  1.2782  0.0128
20182TIP3   OH282036   3.165   6.047  10.361 -0.0417 -0.0778 -0.3912
20182TIP3    H182037   3.105   6.049  10.436  0.0795 -0.7189 -0.2746
20182TIP3    H282038   3.121   6.100  10.294 -0.6815 -0.4303 -0.2647
20183TIP3   OH282039   1.618   6.551  13.535 -0.0775  0.0640  0.0540
20183TIP3    H182040   1.620   6.542  13.440 -0.8310  0.0036  0.0331
20183TIP3    H282041   1.557   6.623  13.550  0.5554  0.5223  0.4720
20184TIP3   OH282042   0.784   6.024  16.138 -0.0568  0.7125 -0.1164
20184TIP3    H182043   0.712   6.084  16.158 -1.6131 -0.3510 -2.1064
20184TIP3    H282044   0.801   6.037  16.044 -0.2294 -1.6468 -0.5421
20185TIP3   OH282045   2.263   6.158   0.657 -0.3762  0.1582 -0.6628
20185TIP3    H182046   2.277   6.217   0.584  1.9408 -0.8674 -1.1371
20185TIP3    H282047   2.267   6.071   0.619  4.6586 -0.6274  0.9273
20186TIP3   OH282048   0.595   0.930  16.933  0.0848 -0.3895 -0.3637
20186TIP3    H182049   0.673   0.960  16.886  0.4781  0.2657  0.6637
20186TIP3    H282050   0.629   0.871  17.001 -0.0004  1.6678  1.5948
20187TIP3   OH282051   6.627   3.473   4.586 -0.1262 -0.1040  0.3342
20187TIP3    H182052   6.557   3.537   4.577 -0.5051 -0.5230  0.2882
20187TIP3    H282053   6.586   3.389   4.567  0.1647 -0.4672  1.2637
20188TIP3   OH282054   4.062   2.652   5.990  0.3967 -0.6438  0.1464
20188TIP3    H182055   3.990   2.602   6.029  0.3081 -0.8528 -0.2751
20188TIP3    H282056   4.085   2.603   5.911 -0.4466  0.5788 -0.9053
20189TIP3   OH282057   3.019   3.505   4.631 -0.4464  0.3533 -0.1100
20189TIP3    H182058   3.107   3.526   4.663 -0.5556 -0.6110  0.8786
20189TIP3    H282059   2.961   3.564   4.679 -0.4597  0.0082  0.3070
20190TIP3   OH282060   3.003   4.657  16.564 -0.0911  0.6889 -0.1674
20190TIP3    H182061   2.964   4.609  16.492  1.3185  0.9988 -1.1909
20190TIP3    H282062   2.994   4.749  16.539 -0.8301  0.8780  0.7384
20191TIP3   OH282063   6.846   6.527  16.849  0.1284  0.0009  0.1871
20191TIP3    H182064   6.934   6.506  16.818 -0.1139  0.2972 -0.7111
20191TIP3    H282065   6.861   6.580  16.928  0.7430 -0.5875  0.4839
20192TIP3   OH282066   0.968   4.788   1.587 -0.5163  0.4179  0.4020
20192TIP3    H182067   0.960   4.702   1.545 -0.7870 -0.3435  1.9238
20192TIP3    H282068   0.915   4.846   1.533  2.0458  0.3846 -2.4203
20193TIP3   OH282069   6.640   3.865  14.872  0.2537 -0.2821  0.4546
20193TIP3    H182070   6.618   3.958  14.873  0.2629 -0.2686 -0.2637
20193TIP3    H282071   6.721   3.859  14.821  0.0112 -0.7339  0.1174
20194TIP3   OH282072   6.446   0.731   6.154  0.0079 -0.3315  0.3209
20194TIP3    H182073   6.353   0.748   6.142  0.0778  0.8382  1.3018
20194TIP3    H282074   6.452   0.635   6.157 -1.2893 -0.4111  1.2243
20195TIP3   OH282075   0.517   3.883   2.823 -0.0351 -0.0407  0.6376
20195TIP3    H182076   0.464   3.872   2.902 -1.1440  1.0272  0.0751
20195TIP3    H282077   0.560   3.968   2.834 -1.2788  0.7720 -0.4799
20196TIP3   OH282078   1.277   2.127   5.874  0.4435 -0.8004  0.7320
20196TIP3    H182079   1.328   2.098   5.798  0.2435  0.6830  0.0015
20196TIP3    H282080   1.262   2.220   5.859 -0.6341 -0.7377  2.0094
20197TIP3   OH282081   6.459   4.927  10.971 -0.2988 -0.3763  0.4288
20197TIP3    H182082   6.473   4.903  11.063  2.3997 -0.4075  0.0872
20197TIP3    H282083   6.538   4.898  10.926 -1.7109 -0.7071 -2.0243
20198TIP3   OH282084   1.603   6.001   1.017  0.1635 -0.0189  0.1224
20198TIP3    H182085   1.653   5.993   1.098 -0.1255  2.3739  0.6225
20198TIP3    H282086   1.649   5.945   0.955  1.8567 -0.0110  1.2969
20199TIP3   OH282087   0.302   3.527   0.160  0.1024 -0.0409  0.5555
20199TIP3    H182088   0.299   3.475   0.080 -0.5516 -0.3236  0.7596
20199TIP3    H282089   0.212   3.527   0.193  0.3392  0.1666  1.2333
20200TIP3   OH282090   1.864   4.218  16.050 -0.2003  0.5570 -0.4013
20200TIP3    H182091   1.876   4.293  16.108  1.6604 -0.3997  0.5459
20200TIP3    H282092   1.790   4.242  15.994 -1.6802  1.7664  1.9479
20201TIP3   OH282093   4.801   6.420  12.589  0.3755 -0.3995  0.2025
20201TIP3    H182094   4.879   6.476  12.592  1.7692 -2.1161 -1.3378
20201TIP3    H282095   4.741   6.459  12.653  1.8537  1.9029  0.3060
20202TIP3   OH282096   0.319   4.060  14.592 -0.0379 -0.3841  0.3663
20202TIP3    H182097   0.371   4.079  14.515  0.1529 -0.4293  0.4840
20202TIP3    H282098   0.320   3.964  14.600  0.8141 -0.3303  1.0210
20203TIP3   OH282099   5.823   1.855  15.806  0.7369  0.0822  0.2051
20203TIP3    H182100   5.871   1.933  15.778 -0.2737  0.2351 -1.1605
20203TIP3    H282101   5.742   1.856  15.756  0.5450 -1.6822  0.3955
20204TIP3   OH282102   1.641   4.361   1.051  0.3758  0.1099 -0.0667
20204TIP3    H182103   1.684   4.313   1.121 -0.1313  2.5498  2.0717
20204TIP3    H282104   1.706   4.363   0.980  2.3134  0.4440  1.6245
20205TIP3   OH282105   3.944   0.687  11.311 -0.3382 -0.0858  0.2617
20205TIP3    H182106   4.011   0.753  11.297  1.2387 -1.6234  0.2085
20205TIP3    H282107   3.923   0.654  11.224  1.1573 -1.7289  0.4483
20206TIP3   OH282108   1.107   5.725  13.705 -0.1030  0.2319 -0.3902
20206TIP3    H182109   1.074   5.814  13.695 -1.4973 -0.2876 -0.6876
20206TIP3    H282110   1.059   5.689  13.780 -3.4692 -1.8623 -3.2051
20207TIP3   OH282111   4.402   1.167  14.496  0.4897  0.1419 -0.3538
20207TIP3    H182112   4.453   1.088  14.510  1.2821  0.2830 -2.1743
20207TIP3    H282113   4.326   1.139  14.446 -1.3060 -0.0496  2.2559
20208TIP3   OH282114   2.697   6.427   0.829 -0.6072 -0.4719  0.3469
20208TIP3    H182115   2.764   6.359   0.841  1.2399  1.1670 -0.0959
20208TIP3    H282116   2.693   6.441   0.735  1.8871  2.5617  0.5290
20209TIP3   OH282117   3.696   4.666  13.791 -0.8217  0.1584 -0.3209
20209TIP3    H182118   3.712   4.593  13.731 -0.6534  3.4429 -4.8641
20209TIP3    H282119   3.783   4.697  13.815 -0.6906  1.2362 -1.9514
20210TIP3   OH282120   0.527   4.347   4.724 -0.2222  0.3254  0.4943
20210TIP3    H182121   0.543   4.256   4.751  0.0374  0.6534  1.4967
20210TIP3    H282122   0.533   4.397   4.806  2.9573  1.6968 -0.4037
20211TIP3   OH282123   3.564   4.053  11.925  0.1436  0.1832  0.0931
20211TIP3    H182124   3.573   4.096  12.010 -0.2039  2.4207 -0.9313
20211TIP3    H282125   3.653   4.033  11.899  0.2346 -0.8016  1.0994
20212TIP3   OH282126   1.179   1.936  13.838 -0.8025 -0.1236  0.1533
20212TIP3    H182127   1.246   2.004  13.831  0.8878 -1.5920  1.2340
20212TIP3    H282128   1.164   1.907  13.748  2.1657 -1.6719  0.0360
20213TIP3   OH282129   5.072   2.484   1.027  0.1759 -0.1797  0.3591
20213TIP3    H182130   5.094   2.489   0.934  0.9477  0.3849  0.5651
20213TIP3    H282131   4.994   2.428   1.030  0.3823 -0.5353 -0.5836
20214TIP3   OH282132   0.176   2.793   6.224 -0.0116  0.3010 -0.3889
20214TIP3    H182133   0.185   2.734   6.299 -2.9395 -0.6194 -0.6500
20214TIP3    H282134   0.167   2.880   6.263 -1.4279 -0.1601  0.3768
20215TIP3   OH282135   5.215   4.392   1.689  0.3499 -0.5637  0.8284
20215TIP3    H182136   5.295   4.417   1.644  0.7439 -0.5822  1.4968
20215TIP3    H282137   5.193   4.468   1.742 -0.6793 -0.1535 -0.1566
20216TIP3   OH282138   4.982   6.643  16.317 -0.0233 -0.1905  0.2018
20216TIP3    H182139   5.068   6.639  16.276 -0.9273 -0.5214 -1.8032
20216TIP3    H282140   4.951   6.732  16.299 -0.8795 -0.6792 -0.8632
20217TIP3   OH282141   4.579   3.582   0.804  0.3626  0.5056 -0.6708
20217TIP3    H182142   4.622   3.497   0.803  3.3605  1.9106 -0.7266
20217TIP3    H282143   4.614   3.626   0.882 -2.4747  1.1200  0.3945
20218TIP3   OH282144   1.909   2.967  10.853  0.5720  0.1197  0.3556
20218TIP3    H182145   1.913   2.896  10.788 -0.1750  1.2316 -0.9609
20218TIP3    H282146   1.985   2.953  10.909 -0.6721 -2.9546  1.4891
20219TIP3   OH282147   0.161   0.404   5.806  0.1524  0.4265  0.5643
20219TIP3    H182148   0.117   0.375   5.886 -0.0231  0.1490  0.3669
20219TIP3    H282149   0.096   0.393   5.737 -0.1845  2.0234  0.5899
20220TIP3   OH282150   1.644   5.397   6.507  0.4182  0.3835 -0.2208
20220TIP3    H182151   1.650   5.321   6.565 -1.8081 -0.1033 -0.5203
20220TIP3    H282152   1.654   5.472   6.565 -0.3915 -0.1156  0.5955
20221TIP3   OH282153   4.178   3.881   3.621 -0.2798  0.3744  0.2978
20221TIP3    H182154   4.087   3.867   3.649 -0.1223  0.2842  0.7785
20221TIP3    H282155   4.219   3.795   3.630 -0.3293  0.2443 -0.6278
20222TIP3   OH282156   0.109   2.760   0.731 -0.2433  0.2193 -0.2639
20222TIP3    H182157   0.122   2.739   0.639  0.0563  0.2540 -0.2287
20222TIP3    H282158   0.076   2.850   0.730 -3.2598 -0.7780 -0.5319
20223TIP3   OH282159   4.662   0.471  14.453  0.8991  0.0963  0.5714
20223TIP3    H182160   4.754   0.493  14.441  0.7856 -0.1337 -0.9235
20223TIP3    H282161   4.657   0.378  14.431  0.1742  0.3079 -0.1812
20224TIP3   OH282162   6.678   2.559   2.860  0.0696  0.0806  0.4193
20224TIP3    H182163   6.718   2.480   2.898  1.8669 -0.2247 -1.8760
20224TIP3    H282164   6.725   2.632   2.902  1.5674 -0.2352 -0.6038
20225TIP3   OH282165   0.543   4.122   4.886 -0.1758 -0.0960 -0.2246
20225TIP3    H182166   0.593   4.054   4.932  0.4966 -0.3702 -1.3301
20225TIP3    H282167   0.537   4.193   4.949  1.3595 -0.1792  0.0622
20226TIP3   OH282168   5.281   1.989  11.672 -0.5527 -0.5880 -0.3586
20226TIP3    H182169   5.274   1.899  11.640  1.9664 -0.6162 -1.0644
20226TIP3    H282170   5.367   2.018  11.641 -0.1108  1.1125  2.2152
20227TIP3   OH282171   6.375   1.983  15.049  0.0341 -0.4173  0.1004
20227TIP3    H182172   6.468   1.974  15.031 -0.1355 -1.4464 -0.3841
20227TIP3    H282173   6.349   1.896  15.080 -0.6295  0.0503  0.9127
20228TIP3   OH282174   5.072   0.676  14.030  0.3418  0.1231  0.6275
20228TIP3    H182175   5.115   0.760  14.013  0.7219  0.0737  1.3245
20228TIP3    H282176   5.137   0.610  14.005 -0.4854 -0.0183 -1.3699
20229TIP3   OH282177   6.088   1.635  15.631  0.4522  0.0294  0.6033
20229TIP3    H182178   6.135   1.556  15.657  2.1134  0.5274 -0.7335
20229TIP3    H282179   6.011   1.603  15.585  2.1713 -0.8870 -1.7981
20230TIP3   OH282180   0.238   3.893  16.518  0.0497  0.4343 -0.1094
20230TIP3    H182181   0.143   3.905  16.519 -0.0054  0.4976  2.9332
20230TIP3    H282182   0.255   3.845  16.437 -2.4123  1.4106 -1.3113
20231TIP3   OH282183   1.119   6.018  13.047 -0.5313 -0.1231 -0.2947
20231TIP3    H182184   1.163   6.070  12.980 -2.1474  0.4054 -0.9767
20231TIP3    H282185   1.100   5.935  13.003  0.9768 -0.9067  0.4329
20232TIP3   OH282186   3.241   5.012  13.881 -0.4741  0.0221  0.3416
20232TIP3    H182187   3.293   4.938  13.850  0.1448  0.7350 -0.3790
20232TIP3    H282188   3.302   5.086  13.880 -1.3745  0.7818 -0.0709
20233TIP3   OH282189   1.501   3.043  15.182 -0.0006 -0.2370 -0.1864
20233TIP3    H182190   1.420   3.009  15.221 -0.0616 -0.1529 -0.2424
20233TIP3    H282191   1.514   2.990  15.103 -0.6690  0.5819 -0.8626
20234TIP3   OH282192   0.711   6.118  15.510  0.2129 -0.2090  0.4114
20234TIP3    H182193   0.759   6.035  15.509 -1.8939 -1.5516 -1.6390
20234TIP3    H282194   0.644   6.106  15.578  1.2762  0.7515  1.6726
20235TIP3   OH282195   0.049   2.013   4.377  0.2388  0.0333 -0.4277
20235TIP3    H182196   0.081   2.062   4.301  1.7711  0.7413  0.6292
20235TIP3    H282197   0.066   1.921   4.354  1.0992  0.2653 -0.7690
20236TIP3   OH282198   3.906   2.760   4.374  0.1885 -0.2465 -0.5397
20236TIP3    H182199   3.950   2.809   4.304  1.2823 -2.6978 -1.7194
20236TIP3    H282200   3.944   2.793   4.455  1.8083 -0.0110 -1.3549
20237LIG      S82201   4.428   2.702   9.533 -0.1772  0.0388 -0.4989
20237LIG     O182202   4.269   2.558   9.305 -0.4442 -0.4936 -0.4240
20237LIG     O282203   4.015   2.553   9.809  0.1672 -0.7435 -0.0908
20237LIG     O382204   4.109   2.507   9.999 -0.0131  0.0918 -0.3739
20237LIG     N182205   3.935   2.914   9.879  0.0793  0.2181 -0.1319
20237LIG     N282206   4.134   2.874   9.755  0.5948  0.0558  0.9255
20237LIG     N382207   4.048   2.580   9.926  0.3597  0.0780  0.2850
20237LIG     N482208   4.195   2.732   9.055 -0.6882  0.6298 -0.0367
20237LIG     C182209   3.836   2.922   9.769 -0.4370 -0.3669  0.4803
20237LIG     C282210   3.776   2.787   9.729  0.1043  0.5618  0.3597
20237LIG     C382211   3.738   3.029   9.810 -0.4742 -0.4575  0.0996
20237LIG     C482212   3.795   2.748   9.584  0.2922  0.2414 -0.2014
20237LIG     C582213   3.613   3.049   9.723  0.1297  0.5671 -0.6788
20237LIG     C682214   3.742   2.845   9.475 -0.4949 -0.0716 -0.2295
20237LIG     C782215   3.638   3.057   9.570 -0.6115 -0.2393 -0.2866
20237LIG     C882216   3.610   2.926   9.496  0.7505 -0.0233 -0.3983
20237LIG     C982217   4.049   2.840   9.849 -0.2721  0.1095 -0.0366
20237LIG    C1082218   4.083   2.725   9.949  0.2735 -0.0007  0.6341
20237LIG    C1182219   4.236   2.774   9.717  0.7663 -0.0973 -0.5712
20237LIG    C1282220   4.282   2.807   9.574 -0.3980 -0.7371 -0.2700
20237LIG    C1382221   4.342   2.533   9.529  0.6060  0.2174 -0.4709
20237LIG    C1482222   4.227   2.534   9.434  0.0406 -0.0486  0.0194
20237LIG    C1582223   4.157   2.562   9.228  0.4508  0.8717  0.0728
20237LIG    C1682224   4.179   2.587   9.085  0.6239  0.4647 -0.5494
20237LIG    C1782225   4.089   2.514   9.436  0.1200  0.1546  0.1764
20237LIG    C1882226   4.044   2.543   9.314 -0.4496  0.9011  0.6379
20237LIG    C1982227   4.325   2.787   9.076 -0.0575 -0.3738 -0.1293
20237LIG    C2082228   4.073   2.810   9.048 -0.2124 -0.4045  0.0242
20237LIG     H182229   3.886   2.963   9.678 -1.5995  1.0835  0.4622
20237LIG     H282230   3.666   2.785   9.745  0.1448  0.4996  0.6241
20237LIG     H382231   3.814   2.712   9.801  0.2813 -0.3361 -0.6555
20237LIG     H482232   3.786   3.129   9.816 -1.4990  0.0575 -0.0079
20237LIG     H582233   3.708   3.017   9.917  0.1531  0.6295  0.4169
20237LIG     H682234   3.739   2.652   9.577 -1.7791  1.2224  1.7186
20237LIG     H782235   3.902   2.742   9.556  0.3101  0.8520 -0.2739
20237LIG     H882236   3.548   3.130   9.762  0.8265  0.3919  0.9234
20237LIG     H982237   3.546   2.962   9.737 -0.6458  0.9998 -1.6451
20237LIG    H1082238   3.733   2.772   9.391 -2.9129 -0.1217  0.0180
20237LIG    H1182239   3.822   2.917   9.451  0.1270  0.2159  2.3679
20237LIG    H1282240   3.737   3.096   9.539  0.1366 -0.6633  1.4658
20237LIG    H1382241   3.559   3.128   9.537  0.7526  1.2212 -0.5152
20237LIG    H1482242   3.530   2.868   9.548  0.4474  1.3968  0.7867
20237LIG    H1582243   3.568   2.951   9.396  1.9785 -0.5265 -1.0598
20237LIG    H1682244   3.891   2.877   9.963 -1.0539  1.3253 -0.1962
20237LIG    H1782245   4.191   2.730   9.969  0.2690  2.2467  0.3611
20237LIG    H1882246   4.048   2.750  10.050  0.5928 -0.0874  0.7636
20237LIG    H1982247   4.193   2.672   9.713  1.1797 -0.4517  2.2144
20237LIG    H2082248   4.322   2.776   9.788  1.3769  2.5198 -1.2617
20237LIG    H2182249   4.193   2.797   9.507  0.3293  0.8733 -1.5587
20237LIG    H2282250   4.312   2.914   9.568 -0.1687 -0.8351 -1.0801
20237LIG    H2382251   4.303   2.499   9.627 -0.9619 -2.1980 -1.8168
20237LIG    H2482252   4.410   2.452   9.493  0.3808  0.4024 -1.3400
20237LIG    H2582253   4.281   2.549   9.064  0.4551 -1.4586  1.7588
20237LIG    H2682254   4.101   2.543   9.019  1.8028 -0.2498 -1.5115
20237LIG    H2782255   4.027   2.492   9.522 -0.3694 -1.7462 -0.5933
20237LIG    H2882256   3.943   2.532   9.276 -0.4881 -0.6641  1.0976
20237LIG    H2982257   4.391   2.757   8.992  1.0676 -0.9483  0.9224
20237LIG    H3082258   4.376   2.740   9.163  1.2034  1.4012  0.1606
20237LIG    H3182259   4.323   2.898   9.085 -2.2075 -0.3395 -0.4790
20237LIG    H3282260   3.978   2.754   9.064  0.3706 -1.1890  0.8788
20237LIG    H3382261   4.075   2.878   8.960  1.0200  0.4931  0.7090
20237LIG    H3482262   4.066   2.897   9.118  1.7525 -0.1037 -0.1154
   6.85710   6.85710  17.14326
